! Job execution by suborca V 6.07 on ZEUS !
Job started from zeus1, running /scratch/pantazis/1_2_difluoroethane_a__u29TNd/orca/orca copied from /opt/orca on zeussn149 in /scratch/pantazis/1_2_difluoroethane_a__u29TNd
Job execution start: Sat Jun 29 11:10:04 CEST 2019
Shared library path: /scratch/pantazis/1_2_difluoroethane_a__u29TNd/orca:/opt/openmpi_1.10.2/lib:/opt/intel/mkl/lib/intel64:/opt/intel/lib/intel64:
PBS Job ID is: 158771.icqc
izeussn149
izeussn149
izeussn149
izeussn149

                                 *****************
                                 * O   R   C   A *
                                 *****************

           --- An Ab Initio, DFT and Semiempirical electronic structure package ---

                  #######################################################
                  #                        -***-                        #
                  #          Department of theory and spectroscopy      #
                  #               Directorship: Frank Neese             #
                  #        Max Planck Institute fuer Kohlenforschung    #
                  #                Kaiser Wilhelm Platz 1               #
                  #                 D-45470 Muelheim/Ruhr               #
                  #                      Germany                        #
                  #                                                     #
                  #                  All rights reserved                #
                  #                        -***-                        #
                  #######################################################


                         Program Version 4.1.x  -  STABLE  -
                                (SVN: $Rev: 14094$)
                ($Date: 2019-06-14 15:01:15 +0200 (Fri, 14 Jun 2019) $)

                         (BUILD: $Sun Jun 23 06:18:31 CEST 2019$)


 With contributions from (in alphabetic order):
   Daniel Aravena         : Magnetic Properties
   Michael Atanasov       : Ab Initio Ligand Field Theory
   Alexander A. Auer      : GIAO ZORA
   Ute Becker             : Parallelization
   Giovanni Bistoni       : ED, Open-shell LED
   Martin Brehm           : Molecular dynamics
   Dmytro Bykov           : SCF Hessian
   Vijay G. Chilkuri      : MRCI spin determinant printing
   Dipayan Datta          : RHF DLPNO-CCSD density
   Achintya Kumar Dutta   : EOM-CC, STEOM-CC
   Dmitry Ganyushin       : Spin-Orbit,Spin-Spin,Magnetic field MRCI
   Miquel Garcia          : C-PCM Hessian
   Yang Guo               : DLPNO-NEVPT2, CIM, IAO-localization
   Andreas Hansen         : Spin unrestricted coupled pair/coupled cluster methods
   Benjamin Helmich-Paris : CASSCF linear response (MC-RPA)
   Lee Huntington         : MR-EOM, pCC
   Robert Izsak           : Overlap fitted RIJCOSX, COSX-SCS-MP3, EOM
   Christian Kollmar      : KDIIS, OOCD, Brueckner-CCSD(T), CCSD density
   Simone Kossmann        : Meta GGA functionals, TD-DFT gradient, OOMP2, MP2 Hessian
   Martin Krupicka        : AUTO-CI
   Lucas Lang             : DCDCAS
   Dagmar Lenk            : GEPOL surface, SMD
   Dimitrios Liakos       : Extrapolation schemes; parallel MDCI
   Dimitrios Manganas     : ROCIS; embedding schemes
   Dimitrios Pantazis     : SARC Basis sets
   Taras Petrenko         : DFT Hessian,TD-DFT gradient, ASA, ECA, R-Raman, ABS, FL, XAS/XES, NRVS
   Peter Pinski           : DLPNO-MP2, DLPNO-MP2 Gradient
   Christoph Reimann      : Effective Core Potentials
   Marius Retegan         : Local ZFS, SOC
   Christoph Riplinger    : Optimizer, TS searches, QM/MM, DLPNO-CCSD(T), (RO)-DLPNO pert. Triples
   Tobias Risthaus        : Range-separated hybrids, TD-DFT gradient, RPA, STAB
   Michael Roemelt        : Restricted open shell CIS
   Masaaki Saitow         : Open-shell DLPNO
   Barbara Sandhoefer     : DKH picture change effects
   Avijit Sen             : IP-ROCIS
   Kantharuban Sivalingam : CASSCF convergence, NEVPT2, FIC-MRCI
   Bernardo de Souza      : ESD, SOC TD-DFT
   Georgi Stoychev        : AutoAux, RI-MP2 NMR
   Willem Van den Heuvel  : Paramagnetic NMR
   Boris Wezisla          : Elementary symmetry handling
   Frank Wennmohs         : Technical directorship


 We gratefully acknowledge several colleagues who have allowed us to
 interface, adapt or use parts of their codes:
   Stefan Grimme, W. Hujo, H. Kruse,             : VdW corrections, initial TS optimization,
                  C. Bannwarth                     DFT functionals, gCP, sTDA/sTD-DF
   Ed Valeev                                     : LibInt (2-el integral package), F12 methods
   Garnet Chan, S. Sharma, J. Yang, R. Olivares  : DMRG
   Ulf Ekstrom                                   : XCFun DFT Library
   Mihaly Kallay                                 : mrcc  (arbitrary order and MRCC methods)
   Andreas Klamt, Michael Diedenhofen            : otool_cosmo (COSMO solvation model)
   Jiri Pittner, Ondrej Demel                    : Mk-CCSD
   Frank Weinhold                                : gennbo (NPA and NBO analysis)
   Christopher J. Cramer and Donald G. Truhlar   : smd solvation model
   Lars Goerigk                                  : TD-DFT with DH, B97 family of functionals
   V. Asgeirsson, H. Jonsson                     : NEB implementation
   FAccTs GmbH                                   : IRC, NEB, NEB-TS, Multilevel


 Your calculation uses the libint2 library for the computation of 2-el integrals
 For citations please refer to: http://libint.valeyev.net

 This ORCA versions uses:
   CBLAS   interface :  Fast vector & matrix operations
   LAPACKE interface :  Fast linear algebra routines
   SCALAPACK package :  Parallel linear algebra routines




***************************************
The coordinates will be read from file: 1_2_difluoroethane_a.xyz
***************************************


----- Orbital basis set information -----
Your calculation utilizes the basis: cc-pVDZ 
       H, B-Ne : Obtained from the ccRepo (grant-hill.group.shef.ac.uk/ccrepo) Feb. 2017
                 T. H. Dunning, Jr., J. Chem. Phys. 90, 1007 (1989)
            He : Obtained from the ccRepo (grant-hill.group.shef.ac.uk/ccrepo) Feb. 2017
                 D. E. Woon, T. H. Dunning, Jr., J. Chem. Phys. 100, 2975 (1994)
  Li-Be, Na-Mg : Obtained from the ccRepo (grant-hill.group.shef.ac.uk/ccrepo) Feb. 2017
                 B. P. Prascher, D. E. Woon, K. A. Peterson, T. H. Dunning, Jr., A. K. Wilson, Theor. Chem. Acc. 128, 69 (2011)
         Al-Ar : Obtained from the ccRepo (grant-hill.group.shef.ac.uk/ccrepo) Feb. 2017
                 D. E. Woon, T. H. Dunning, Jr., J. Chem. Phys. 98, 1358 (1993)
            Ca : Obtained from the Peterson Research Group Website (tyr0.chem.wsu.edu/~kipeters) Feb. 2017
                 J. Koput, K. A. Peterson, J. Phys. Chem. 106, 9595 (2002)
         Sc-Zn : Obtained from the ccRepo (grant-hill.group.shef.ac.uk/ccrepo) Feb. 2017
                 N. B. Balabanov, K. A. Peterson, J. Chem. Phys. 123, 064107 (2005)
                 N. B. Balabanov, K. A. Peterson, J. Chem. Phys. 125, 074110 (2006)
         Ga-Kr : Obtained from the ccRepo (grant-hill.group.shef.ac.uk/ccrepo) Feb. 2017
                 A. K. Wilson, D. E. Woon, K. A. Peterson, T. H. Dunning, Jr., J. Chem. Phys. 110, 7667 (1999)

----- AuxC basis set information -----
Your calculation utilizes the auxiliary basis: cc-pVDZ/C 
  H-He, B, Ne, Al-Ar, Ga-Br : Obtained from the EMSL Basis Set Exchange (bse.pnl.gov) Feb. 2017
                              F. Weigend, A. Kohn, C. Hattig, J. Chem. Phys. 116, 3175 (2002)
               Li-Be, Na-Mg : Obtained from the EMSL Basis Set Exchange (bse.pnl.gov) Feb. 2017
                              C. Haettig, Phys. Chem. Chem. Phys. 7, 59 (2005)
                        C-F : Obtained from the EMSL Basis Set Exchange (bse.pnl.gov) Feb. 2017
                              C. Haettig, Phys. Chem. Chem. Phys. 7, 59 (2005)
                              F. Weigend, A. Kohn, C. Hattig, J. Chem. Phys. 116, 3175 (2002)
                         Kr : Obtained from the TURBOMOLE 7.0 basis set library
                              F. Weigend, A. Kohn, C. Hattig, J. Chem. Phys. 116, 3175 (2002)
                              S function revised in Sep. 2009

----- AuxJK basis set information -----
Your calculation utilizes the auxiliary basis: cc-pVTZ/JK 
  H, B-F, Al-Cl, Ga-Br : Obtained from the TURBOMOLE 7.0 basis set library

================================================================================
                                        WARNINGS
                       Please study these warnings very carefully!
================================================================================


WARNING: MDCI localization with Augmented Hessian Foster-Boys
  ===> : Switching off randomization!

WARNING: Post HF methods need fully converged wavefunctions
  ===> : Setting SCFConvForced true
         You can overwrite this default with %scf ConvForced false 


INFO   : the flag for use of LIBINT has been found!

================================================================================
                                       INPUT FILE
================================================================================
NAME = 1_2_difluoroethane_a.inp
|  1> ! RHF DLPNO-CCSD(T) cc-pVDZ RIJK cc-pVTZ/JK cc-pVDZ/C
|  2> ! KDIIS SOSCF TightSCF TightPNO
|  3> 
|  4> %pal nprocs 4 end
|  5> 
|  6> %maxcore 8000
|  7> 
|  8> %scf maxiter 300
|  9>      shift shift 0.2 erroff 0.1 end
| 10> end
| 11> 
| 12> * xyzfile 0 1 1_2_difluoroethane_a.xyz 
| 13> 
| 14> 
| 15>                          ****END OF INPUT****
================================================================================

                       ****************************
                       * Single Point Calculation *
                       ****************************

---------------------------------
CARTESIAN COORDINATES (ANGSTROEM)
---------------------------------
  C      0.561440   -0.512600    0.000020
  F      1.779850    0.182880   -0.000020
  C     -0.561450    0.512610    0.000020
  F     -1.779850   -0.182900   -0.000020
  H      0.527740   -1.139600    0.895620
  H      0.527700   -1.139660   -0.895540
  H     -0.527760    1.139620    0.895620
  H     -0.527710    1.139680   -0.895530

----------------------------
CARTESIAN COORDINATES (A.U.)
----------------------------
  NO LB      ZA    FRAG     MASS         X           Y           Z
   0 C     6.0000    0    12.011    1.060968   -0.968674    0.000038
   1 F     9.0000    0    18.998    3.363429    0.345593   -0.000038
   2 C     6.0000    0    12.011   -1.060987    0.968693    0.000038
   3 F     9.0000    0    18.998   -3.363429   -0.345631   -0.000038
   4 H     1.0000    0     1.008    0.997284   -2.153532    1.692477
   5 H     1.0000    0     1.008    0.997208   -2.153645   -1.692325
   6 H     1.0000    0     1.008   -0.997322    2.153570    1.692477
   7 H     1.0000    0     1.008   -0.997227    2.153683   -1.692306

--------------------------------
INTERNAL COORDINATES (ANGSTROEM)
--------------------------------
 C      0   0   0     0.000000000000     0.00000000     0.00000000
 F      1   0   0     1.402930989073     0.00000000     0.00000000
 C      1   2   0     1.520505671216   107.88546770     0.00000000
 F      3   1   2     1.402937176676   107.88420119   179.99656690
 H      1   2   3     1.093784279463   108.11681436   239.48596790
 H      1   2   3     1.093787156992   108.11750436   120.51508705
 H      3   1   2     1.093789703828   111.33175728   298.47308013
 H      3   1   2     1.093784702307   111.33205813    61.51828928

---------------------------
INTERNAL COORDINATES (A.U.)
---------------------------
 C      0   0   0     0.000000000000     0.00000000     0.00000000
 F      1   0   0     2.651155354138     0.00000000     0.00000000
 C      1   2   0     2.873339303672   107.88546770     0.00000000
 F      3   1   2     2.651167047015   107.88420119   179.99656690
 H      1   2   3     2.066952737773   108.11681436   239.48596790
 H      1   2   3     2.066958175515   108.11750436   120.51508705
 H      3   1   2     2.066962988338   111.33175728   298.47308013
 H      3   1   2     2.066953536832   111.33205813    61.51828928

---------------------
BASIS SET INFORMATION
---------------------
There are 3 groups of distinct atoms

 Group   1 Type C   : 17s4p1d contracted to 3s2p1d pattern {881/31/1}
 Group   2 Type F   : 17s4p1d contracted to 3s2p1d pattern {881/31/1}
 Group   3 Type H   : 4s1p contracted to 2s1p pattern {31/1}

Atom   0C    basis set group =>   1
Atom   1F    basis set group =>   2
Atom   2C    basis set group =>   1
Atom   3F    basis set group =>   2
Atom   4H    basis set group =>   3
Atom   5H    basis set group =>   3
Atom   6H    basis set group =>   3
Atom   7H    basis set group =>   3
-------------------------------
AUXILIARY BASIS SET INFORMATION
-------------------------------
There are 3 groups of distinct atoms

 Group   1 Type C   : 7s5p4d2f contracted to 7s5p4d2f pattern {1111111/11111/1111/11}
 Group   2 Type F   : 7s5p4d2f contracted to 7s5p4d2f pattern {1111111/11111/1111/11}
 Group   3 Type H   : 3s2p1d contracted to 3s2p1d pattern {111/11/1}

Atom   0C    basis set group =>   1
Atom   1F    basis set group =>   2
Atom   2C    basis set group =>   1
Atom   3F    basis set group =>   2
Atom   4H    basis set group =>   3
Atom   5H    basis set group =>   3
Atom   6H    basis set group =>   3
Atom   7H    basis set group =>   3
-------------------------------
AUXILIARY BASIS SET INFORMATION
-------------------------------
There are 3 groups of distinct atoms

 Group   1 Type C   : 10s7p5d2f1g contracted to 10s7p5d2f1g pattern {1111111111/1111111/11111/11/1}
 Group   2 Type F   : 10s7p5d2f1g contracted to 10s7p5d2f1g pattern {1111111111/1111111/11111/11/1}
 Group   3 Type H   : 4s3p2d1f contracted to 4s3p2d1f pattern {1111/111/11/1}

Atom   0C    basis set group =>   1
Atom   1F    basis set group =>   2
Atom   2C    basis set group =>   1
Atom   3F    basis set group =>   2
Atom   4H    basis set group =>   3
Atom   5H    basis set group =>   3
Atom   6H    basis set group =>   3
Atom   7H    basis set group =>   3

Checking for AutoStart:
The File: 1_2_difluoroethane_a.gbw exists
Trying to determine its content:
     ... Fine, the file contains calculation information
     ... Fine, the calculation information was read
     ... Fine, the file contains a basis set
     ... Fine, the basis set was read
     ... Fine, the file contains a geometry
     ... Fine, the geometry was read
     ... Fine, the file contains a set of orbitals
     ... Fine, the orbitals can be read
     => possible old guess file was deleted
     => GBW file was renamed to GES file
     => GES file is set as startup file
     => Guess is set to MORead
     ... now leaving AutoStart



           ************************************************************
           *        Program running with 4 parallel MPI-processes     *
           *              working on a common directory               *
           ************************************************************
------------------------------------------------------------------------------
                           ORCA GTO INTEGRAL CALCULATION
                           -- RI-GTO INTEGRALS CHOSEN --
------------------------------------------------------------------------------

                         BASIS SET STATISTICS AND STARTUP INFO

Gaussian basis set:
 # of primitive gaussian shells          ...  108
 # of primitive gaussian functions       ...  164
 # of contracted shells                  ...   36
 # of contracted basis functions         ...   76
 Highest angular momentum                ...    2
 Maximum contraction depth               ...    8
Auxiliary gaussian basis set:
 # of primitive gaussian shells          ...  140
 # of primitive gaussian functions       ...  436
 # of contracted shells                  ...  140
 # of contracted aux-basis functions     ...  436
 Highest angular momentum                ...    4
 Maximum contraction depth               ...    1
Ratio of auxiliary to basis functions    ...  5.74
Integral package used                  ... LIBINT
 One Electron integrals                  ... done
 Ordering auxiliary basis shells         ... done
 Integral threshhold             Thresh  ...  2.500e-11
 Primitive cut-off               TCut    ...  2.500e-12
 Pre-screening matrix                    ... done
 Shell pair data                         ... 
 Ordering of the shell pairs             ... done (   0.000 sec) 651 of 666 pairs
 Determination of significant pairs      ... done (   0.000 sec)
 Creation of shell pair data             ... done (   0.000 sec)
 Storage of shell pair data              ... done (   0.002 sec)
 Shell pair data done in (   0.002 sec)
 Computing two index integrals           ... done
 Cholesky decomposition of the V-matrix  ... done


Timings:
 Total evaluation time                   ...  56.908 sec (  0.948 min)
 One electron matrix time                ...  56.676 sec (  0.945 min) = 99.6%
 Schwartz matrix evaluation time         ...   0.142 sec (  0.002 min) =  0.2%
 Two index repulsion integral time       ...   0.022 sec (  0.000 min) =  0.0%
 Cholesky decomposition of V             ...   0.040 sec (  0.001 min) =  0.1%
 Three index repulsion integral time     ...   0.000 sec (  0.000 min) =  0.0%



           ************************************************************
           *        Program running with 4 parallel MPI-processes     *
           *              working on a common directory               *
           ************************************************************
-------------------------------------------------------------------------------
                                 ORCA SCF
-------------------------------------------------------------------------------

------------
SCF SETTINGS
------------
Hamiltonian:
 Ab initio Hamiltonian  Method          .... Hartree-Fock(GTOs)
 RI-approximation to the Coulomb term is turned on
   Number of auxiliary basis functions  .... 436
   RI-JK (J+K treated both via RI)      .... on


General Settings:
 Integral files         IntName         .... 1_2_difluoroethane_a
 Hartree-Fock type      HFTyp           .... RHF
 Total Charge           Charge          ....    0
 Multiplicity           Mult            ....    1
 Number of Electrons    NEL             ....   34
 Basis Dimension        Dim             ....   76
 Nuclear Repulsion      ENuc            ....    124.7943314753 Eh

Convergence Acceleration:
 DIIS                   CNVDIIS         .... off
 Newton-Raphson         CNVNR           .... off
 SOSCF                  CNVSOSCF        .... on
   Start iteration      SOSCFMaxIt      ....   150
   Startup grad/error   SOSCFStart      ....  0.003300
 Level Shifting         CNVShift        .... on
   Level shift para.    LevelShift      ....    0.2000
   Turn off err/grad.   ShiftErr        ....    0.1000
 Zerner damping         CNVZerner       .... off
 Static damping         CNVDamp         .... off
 Fernandez-Rico         CNVRico         .... off

SCF Procedure:
 Maximum # iterations   MaxIter         ....   300
 SCF integral mode      SCFMode         .... Direct
   Integral package                     .... LIBINT
 Reset frequency        DirectResetFreq ....    20
 Integral Threshold     Thresh          ....  2.500e-11 Eh
 Primitive CutOff       TCut            ....  2.500e-12 Eh

Convergence Tolerance:
 Convergence Check Mode ConvCheckMode   .... Total+1el-Energy
 Convergence forced     ConvForced      .... 1
 Energy Change          TolE            ....  1.000e-08 Eh
 1-El. energy change                    ....  1.000e-05 Eh
 Orbital Gradient       TolG            ....  1.000e-05
 Orbital Rotation angle TolX            ....  1.000e-05


Diagonalization of the overlap matrix:
Smallest eigenvalue                        ... 6.312e-03
Time for diagonalization                   ...    0.003 sec
Threshold for overlap eigenvalues          ... 1.000e-08
Number of eigenvalues below threshold      ... 0
Time for construction of square roots      ...    0.028 sec
Total time needed                          ...    0.031 sec

---------------------
INITIAL GUESS: MOREAD
---------------------
Guess MOs are being read from file: 1_2_difluoroethane_a.ges
Input Geometry matches current geometry (good)
Atom 0: N(Shells)= 6 and 10 - projection required
Input basis set needs projection
NBasis(read)= 176
NBasis(calc)= 76
Basis set overlap was calculated
Using GuessMode=FMatrix for the initial guess
C*T matrix was formed
Effective Fockian was calculated
Effective Fockian was diagonalized
Initial density was built
                      ------------------
                      INITIAL GUESS DONE (   0.0 sec)
                      ------------------
--------------
SCF ITERATIONS
--------------
ITER       Energy         Delta-E        Max-DP      RMS-DP      [F,P]   Gradient Norm
                             ****Turning on KDIIS(Cayley)****
  0   -276.9383949888   0.000000000000 0.00126173  0.00008004  0.0075967   0.006305119
  1   -276.9385043877  -0.000109398880 0.00252183  0.00014954  0.0069062   0.005588298
  2   -276.9386508851  -0.000146497410 0.00439425  0.00026074  0.0055584   0.004572992
  3   -276.9388455201  -0.000194634920 0.00666862  0.00039659  0.0033247   0.002749149
                      *** Initiating the SOSCF procedure ***
                           *** Shutting down KDIIS ***
                      *** Re-Reading the Fockian *** 
                      *** Removing any level shift *** 
ITER      Energy       Delta-E        Grad      Rot      Max-DP    RMS-DP
  4   -276.93895856  -0.0001130428  0.000034  0.000034  0.000066  0.000004
  5   -276.93895860  -0.0000000327  0.000008  0.000008  0.000012  0.000001
  6   -276.93895860  -0.0000000019  0.000004  0.000006  0.000009  0.000001
                  ***Gradient check signals convergence***
              ***Rediagonalizing the Fockian in SOSCF/NRSCF***

               *****************************************************
               *                     SUCCESS                       *
               *           SCF CONVERGED AFTER   7 CYCLES          *
               *****************************************************


----------------
TOTAL SCF ENERGY
----------------

Total Energy       :         -276.93895860 Eh           -7535.89218 eV

Components:
Nuclear Repulsion  :          124.79433148 Eh            3395.82640 eV
Electronic Energy  :         -401.73329007 Eh          -10931.71858 eV
One Electron Energy:         -631.42926371 Eh          -17182.06378 eV
Two Electron Energy:          229.69597363 Eh            6250.34520 eV

Virial components:
Potential Energy   :         -553.70134922 Eh          -15066.97970 eV
Kinetic Energy     :          276.76239062 Eh            7531.08752 eV
Virial Ratio       :            2.00063798


---------------
SCF CONVERGENCE
---------------

  Last Energy change         ...   -4.0126e-10  Tolerance :   1.0000e-08
  Last MAX-Density change    ...    9.2401e-07  Tolerance :   1.0000e-07
  Last RMS-Density change    ...    6.7318e-08  Tolerance :   5.0000e-09
  Last Orbital Gradient      ...    6.4532e-07  Tolerance :   1.0000e-05
  Last Orbital Rotation      ...    7.6640e-07  Tolerance :   1.0000e-05

             **** THE GBW FILE WAS UPDATED (1_2_difluoroethane_a.gbw) ****
             **** DENSITY FILE WAS UPDATED (1_2_difluoroethane_a.scfp.tmp) ****
             **** ENERGY FILE WAS UPDATED (1_2_difluoroethane_a.en.tmp) ****
----------------
ORBITAL ENERGIES
----------------

  NO   OCC          E(Eh)            E(eV) 
   0   2.0000     -26.286970      -715.3048 
   1   2.0000     -26.286969      -715.3048 
   2   2.0000     -11.328342      -308.2599 
   3   2.0000     -11.327709      -308.2426 
   4   2.0000      -1.595026       -43.4029 
   5   2.0000      -1.589729       -43.2587 
   6   2.0000      -1.041483       -28.3402 
   7   2.0000      -0.882130       -24.0040 
   8   2.0000      -0.731896       -19.9159 
   9   2.0000      -0.712932       -19.3999 
  10   2.0000      -0.702386       -19.1129 
  11   2.0000      -0.678586       -18.4653 
  12   2.0000      -0.649945       -17.6859 
  13   2.0000      -0.618261       -16.8237 
  14   2.0000      -0.563426       -15.3316 
  15   2.0000      -0.511686       -13.9237 
  16   2.0000      -0.511175       -13.9098 
  17   0.0000       0.185201         5.0396 
  18   0.0000       0.210183         5.7194 
  19   0.0000       0.220783         6.0078 
  20   0.0000       0.249320         6.7843 
  21   0.0000       0.276873         7.5341 
  22   0.0000       0.377150        10.2628 
  23   0.0000       0.406128        11.0513 
  24   0.0000       0.590391        16.0654 
  25   0.0000       0.591988        16.1088 
  26   0.0000       0.703217        19.1355 
  27   0.0000       0.754581        20.5332 
  28   0.0000       0.771502        20.9936 
  29   0.0000       0.800103        21.7719 
  30   0.0000       0.834588        22.7103 
  31   0.0000       0.840251        22.8644 
  32   0.0000       0.842305        22.9203 
  33   0.0000       0.856505        23.3067 
  34   0.0000       1.074873        29.2488 
  35   0.0000       1.144904        31.1544 
  36   0.0000       1.167100        31.7584 
  37   0.0000       1.296498        35.2795 
  38   0.0000       1.393204        37.9110 
  39   0.0000       1.409498        38.3544 
  40   0.0000       1.507604        41.0240 
  41   0.0000       1.567178        42.6451 
  42   0.0000       1.573855        42.8268 
  43   0.0000       1.605432        43.6860 
  44   0.0000       1.660427        45.1825 
  45   0.0000       1.717220        46.7279 
  46   0.0000       1.843563        50.1659 
  47   0.0000       1.860656        50.6310 
  48   0.0000       1.863455        50.7072 
  49   0.0000       1.881466        51.1973 
  50   0.0000       1.883697        51.2580 
  51   0.0000       1.918481        52.2045 
  52   0.0000       1.969075        53.5813 
  53   0.0000       1.992199        54.2105 
  54   0.0000       2.072763        56.4027 
  55   0.0000       2.117879        57.6304 
  56   0.0000       2.195841        59.7519 
  57   0.0000       2.363581        64.3163 
  58   0.0000       2.370098        64.4937 
  59   0.0000       2.433173        66.2100 
  60   0.0000       2.616000        71.1850 
  61   0.0000       2.749773        74.8251 
  62   0.0000       2.758879        75.0729 
  63   0.0000       2.763177        75.1899 
  64   0.0000       2.849825        77.5477 
  65   0.0000       2.850848        77.5755 
  66   0.0000       4.002653       108.9177 
  67   0.0000       4.015828       109.2762 
  68   0.0000       4.033034       109.7444 
  69   0.0000       4.034824       109.7931 
  70   0.0000       4.159078       113.1743 
  71   0.0000       4.233873       115.2096 
  72   0.0000       4.270039       116.1937 
  73   0.0000       4.290146       116.7408 
  74   0.0000       4.465625       121.5158 
  75   0.0000       4.477945       121.8511 

                    ********************************
                    * MULLIKEN POPULATION ANALYSIS *
                    ********************************

-----------------------
MULLIKEN ATOMIC CHARGES
-----------------------
   0 C :    0.265875
   1 F :   -0.364510
   2 C :    0.265871
   3 F :   -0.364513
   4 H :    0.049318
   5 H :    0.049320
   6 H :    0.049319
   7 H :    0.049320
Sum of atomic charges:   -0.0000000

--------------------------------
MULLIKEN REDUCED ORBITAL CHARGES
--------------------------------
  0 C s       :     3.041829  s :     3.041829
      pz      :     1.024917  p :     2.564308
      px      :     0.644684
      py      :     0.894707
      dz2     :     0.019836  d :     0.127988
      dxz     :     0.015862
      dyz     :     0.027375
      dx2y2   :     0.024612
      dxy     :     0.040302
  1 F s       :     3.928015  s :     3.928015
      pz      :     1.954371  p :     5.431148
      px      :     1.632234
      py      :     1.844543
      dz2     :     0.000858  d :     0.005347
      dxz     :     0.000721
      dyz     :     0.000270
      dx2y2   :     0.001375
      dxy     :     0.002122
  2 C s       :     3.041833  s :     3.041833
      pz      :     1.024919  p :     2.564310
      px      :     0.644689
      py      :     0.894702
      dz2     :     0.019836  d :     0.127986
      dxz     :     0.015862
      dyz     :     0.027375
      dx2y2   :     0.024611
      dxy     :     0.040302
  3 F s       :     3.928017  s :     3.928017
      pz      :     1.954371  p :     5.431149
      px      :     1.632244
      py      :     1.844534
      dz2     :     0.000858  d :     0.005347
      dxz     :     0.000721
      dyz     :     0.000270
      dx2y2   :     0.001375
      dxy     :     0.002122
  4 H s       :     0.920564  s :     0.920564
      pz      :     0.016898  p :     0.030118
      px      :     0.002817
      py      :     0.010404
  5 H s       :     0.920561  s :     0.920561
      pz      :     0.016897  p :     0.030118
      px      :     0.002817
      py      :     0.010405
  6 H s       :     0.920563  s :     0.920563
      pz      :     0.016898  p :     0.030118
      px      :     0.002817
      py      :     0.010404
  7 H s       :     0.920561  s :     0.920561
      pz      :     0.016897  p :     0.030119
      px      :     0.002817
      py      :     0.010405


                     *******************************
                     * LOEWDIN POPULATION ANALYSIS *
                     *******************************

----------------------
LOEWDIN ATOMIC CHARGES
----------------------
   0 C :    0.071471
   1 F :   -0.116905
   2 C :    0.071475
   3 F :   -0.116910
   4 H :    0.022717
   5 H :    0.022718
   6 H :    0.022718
   7 H :    0.022717

-------------------------------
LOEWDIN REDUCED ORBITAL CHARGES
-------------------------------
  0 C s       :     2.828272  s :     2.828272
      pz      :     1.069953  p :     2.788547
      px      :     0.757708
      py      :     0.960886
      dz2     :     0.048263  d :     0.311710
      dxz     :     0.036084
      dyz     :     0.072414
      dx2y2   :     0.059495
      dxy     :     0.095454
  1 F s       :     3.718474  s :     3.718474
      pz      :     1.933367  p :     5.391808
      px      :     1.627731
      py      :     1.830710
      dz2     :     0.001035  d :     0.006623
      dxz     :     0.000902
      dyz     :     0.000348
      dx2y2   :     0.001740
      dxy     :     0.002598
  2 C s       :     2.828274  s :     2.828274
      pz      :     1.069954  p :     2.788545
      px      :     0.757709
      py      :     0.960883
      dz2     :     0.048261  d :     0.311706
      dxz     :     0.036083
      dyz     :     0.072415
      dx2y2   :     0.059493
      dxy     :     0.095454
  3 F s       :     3.718477  s :     3.718477
      pz      :     1.933367  p :     5.391809
      px      :     1.627740
      py      :     1.830702
      dz2     :     0.001035  d :     0.006623
      dxz     :     0.000902
      dyz     :     0.000348
      dx2y2   :     0.001740
      dxy     :     0.002598
  4 H s       :     0.899920  s :     0.899920
      pz      :     0.040700  p :     0.077363
      px      :     0.009487
      py      :     0.027177
  5 H s       :     0.899919  s :     0.899919
      pz      :     0.040697  p :     0.077363
      px      :     0.009487
      py      :     0.027180
  6 H s       :     0.899920  s :     0.899920
      pz      :     0.040699  p :     0.077363
      px      :     0.009486
      py      :     0.027177
  7 H s       :     0.899919  s :     0.899919
      pz      :     0.040697  p :     0.077364
      px      :     0.009487
      py      :     0.027180


                      *****************************
                      * MAYER POPULATION ANALYSIS *
                      *****************************

  NA   - Mulliken gross atomic population
  ZA   - Total nuclear charge
  QA   - Mulliken gross atomic charge
  VA   - Mayer's total valence
  BVA  - Mayer's bonded valence
  FA   - Mayer's free valence

  ATOM       NA         ZA         QA         VA         BVA        FA
  0 C      5.7341     6.0000     0.2659     3.9056     3.9056    -0.0000
  1 F      9.3645     9.0000    -0.3645     0.9275     0.9275    -0.0000
  2 C      5.7341     6.0000     0.2659     3.9056     3.9056     0.0000
  3 F      9.3645     9.0000    -0.3645     0.9275     0.9275    -0.0000
  4 H      0.9507     1.0000     0.0493     0.9697     0.9697    -0.0000
  5 H      0.9507     1.0000     0.0493     0.9697     0.9697    -0.0000
  6 H      0.9507     1.0000     0.0493     0.9697     0.9697    -0.0000
  7 H      0.9507     1.0000     0.0493     0.9697     0.9697     0.0000

  Mayer bond orders larger than 0.1
B(  0-C ,  1-F ) :   0.8947 B(  0-C ,  2-C ) :   1.0582 B(  0-C ,  4-H ) :   0.9695 
B(  0-C ,  5-H ) :   0.9695 B(  2-C ,  3-F ) :   0.8947 B(  2-C ,  6-H ) :   0.9695 
B(  2-C ,  7-H ) :   0.9695 

-------
TIMINGS
-------

Total SCF time: 0 days 0 hours 0 min 1 sec 

Total time                  ....       1.734 sec
Sum of individual times     ....       1.576 sec  ( 90.9%)

Fock matrix formation       ....       1.516 sec  ( 87.4%)
Diagonalization             ....       0.026 sec  (  1.5%)
Density matrix formation    ....       0.001 sec  (  0.0%)
Population analysis         ....       0.003 sec  (  0.2%)
Initial guess               ....       0.013 sec  (  0.7%)
Orbital Transformation      ....       0.000 sec  (  0.0%)
Orbital Orthonormalization  ....       0.000 sec  (  0.0%)
DIIS solution               ....       0.000 sec  (  0.0%)
SOSCF solution              ....       0.016 sec  (  0.9%)


           ************************************************************
           *        Program running with 4 parallel MPI-processes     *
           *              working on a common directory               *
           ************************************************************


------------------------------------------------------------------------------- 
                              ORCA-MATRIX DRIVEN CI                            
------------------------------------------------------------------------------- 


Wavefunction type
-----------------
Correlation treatment                      ...      CCSD     
Single excitations                         ... ON
Orbital optimization                       ... OFF
Calculation of Z vector                    ... OFF
Calculation of Brueckner orbitals          ... OFF
Perturbative triple excitations            ... ON
Calculation of F12 correction              ... OFF
Frozen core treatment                      ... chemical core (8 el)
Reference Wavefunction                     ... RHF
  Internal Orbitals:     4 ...   16 ( 13 MO's/ 26 electrons)
  Virtual  Orbitals:    17 ...   75 ( 59 MO's              )
Number of AO's                             ...     76
Number of electrons                        ...     34
Number of correlated electrons             ...     26

Algorithmic settings
--------------------
Integral transformation                    ... All integrals via the RI transformation
K(C) Formation                             ... RI-DLPNO
   PNO-Integral Storage                    ... ON DISK
   PNO occupation number cut-off           ... 1.000e-07
   Singles PNO occupation number cut-off   ... 3.000e-09
   PNO Mulliken prescreening cut-off       ... 1.000e-03
   Domain cut-off (Mulliken population)    ... 1.000e-03
   PNO Normalization                       ...    1
Maximum number of iterations               ...        50
Convergence tolerance (max. residuum)      ... 1.000e-05
Level shift for amplitude update           ... 2.000e-01
Maximum number of DIIS vectors             ...         7
DIIS turned on at iteration                ...         0
Damping before turning on DIIS             ...     0.500
Damping after turning on DIIS              ...     0.000
Pair specific amplitude update             ... OFF
Natural orbital iterations                 ... OFF
Perturbative natural orbital generation    ... OFF
Printlevel                                 ... 2

Singles Fock matrix elements calculated using PNOs.

Memory handling:
----------------
Maximum memory for working arrays          ...   8000 MB
Data storage in matrix containers          ... UNCOMPRESSED
Data type for integral storage             ... DOUBLE
In-Core Storage of quantities:
   Amplitudes+Sigma Vector      ... NO
   J+K operators                ... NO
   DIIS vectors                 ... NO
   3-external integrals         ... NO
   4-external integrals         ... NO

Localization treatment:
-----------------------
Localization option                        ...    6
Localization threshhold                    ... -1.0e+00
Using relative localization threshhold     ... 1.0e-08
Neglect threshold for strong pairs         ... 1.000e-05 Eh
Prescreening threshold for very weak pairs ... 1.000e-07 Eh

Initializing the integral package          ... done
Localizing the valence orbitals
------------------------------------------------------------------------------
                           ORCA ORBITAL LOCALIZATION
------------------------------------------------------------------------------

Input orbitals are from                  ... 1_2_difluoroethane_a.proc0.gbw
Output orbitals are to                   ... 1_2_difluoroethane_a.proc0.loc
Max. number of iterations                ... 128
Localizations seeded randomly            ... off
Convergence tolerance                    ... 1.000e-06
Using relative localization threshhold   ... 1.000e-08
Treshold for strong local MOs            ... 9.500e-01
Treshold for bond MOs                    ... 8.500e-01
Operator                                 ... 0
Orbital range for localization           ... 4 to 16
Localization criterion                   ... FOSTER-BOYS (AUGMENTED HESSIAN)
Doing the dipole integrals     ... o.k.
Initial value of the localization sum :    97.805681
ITERATION   0 : L=  108.7494420519 DL=  1.09e+01 (AVERGE_DL)=    0.3745726017 
ITERATION   1 : L=  109.7990844759 DL=  1.05e+00 (AVERGE_DL)=    0.1160041127 
ITERATION   2 : L=  109.8192636951 DL=  2.02e-02 (AVERGE_DL)=    0.0160844005 
ITERATION   3 : L=  109.8214186753 DL=  2.15e-03 (AVERGE_DL)=    0.0052562297 
ITERATION   4 : L=  109.8216217070 DL=  2.03e-04 (AVERGE_DL)=    0.0016133726 
ITERATION   5 : L=  109.8216705429 DL=  4.88e-05 (AVERGE_DL)=    0.0007912653 
ITERATION   6 : L=  109.8217049976 DL=  3.45e-05 (AVERGE_DL)=    0.0006646258 
ITERATION   7 : L=  109.8217365601 DL=  3.16e-05 (AVERGE_DL)=    0.0006361189 
ITERATION   8 : L=  109.8217675961 DL=  3.10e-05 (AVERGE_DL)=    0.0006307917 
ITERATION   9 : L=  109.8217984857 DL=  3.09e-05 (AVERGE_DL)=    0.0006293016 
ITERATION  10 : L=  109.8218293622 DL=  3.09e-05 (AVERGE_DL)=    0.0006291677 
ITERATION  11 : L=  109.8218602440 DL=  3.09e-05 (AVERGE_DL)=    0.0006292220 
ITERATION  12 : L=  109.8218911351 DL=  3.09e-05 (AVERGE_DL)=    0.0006293174 
ITERATION  13 : L=  109.8219220355 DL=  3.09e-05 (AVERGE_DL)=    0.0006294117 
ITERATION  14 : L=  109.8219529202 DL=  3.09e-05 (AVERGE_DL)=    0.0006292513 
ITERATION  15 : L=  109.8219837826 DL=  3.09e-05 (AVERGE_DL)=    0.0006290247 
DETECTED SLOW CONVERGENCE - QUITTING

------------------------------------------------------
AUGMENTED HESSIAN OPTIMIZATION OF FOSTER-BOYS ORBITALS
------------------------------------------------------

Spin operator:           0
Orbital window:          4 to 16
Number of iterations:    128
Gradient tolerance:      1.000e-06
Number of pairs:         78
Davidson threshold:      2000
Diagonalization method:  LAPACK
Iter:    0   L: 109.8219837826   Grad. norm: 7.033584e-03
Iter:    1   L: 109.8229162968   Grad. norm: 8.446160e-03
Iter:    2   L: 109.8236672385   Grad. norm: 1.070484e-02
Iter:    3   L: 109.8241045156   Grad. norm: 9.929142e-03
Iter:    4   L: 109.8241819087   Grad. norm: 2.310579e-03
   *** Likely close to a maximum now. ***
       Augmented Hessian eigenvalues:  1.34e-07 -1.03e-02 -1.03e-02 -1.47e+00 ... 
Iter:    5   L: 109.8241819759   Grad. norm: 1.536095e-07
LOCALIZATION HAS CONVERGED.

Eigenvalues of the Hessian:
  0 -1.031e-02
  1 -1.031e-02
  2 -1.466e+00
  3 -1.466e+00
  4 -1.500e+00
  5 -1.500e+00
  6 -3.622e+00
  7 -3.622e+00
  8 -3.645e+00
  9 -3.645e+00
    ...


------------------------------------------------------------------------------- 
                    LOCALIZED MOLECULAR ORBITAL COMPOSITIONS                   
------------------------------------------------------------------------------- 

The Mulliken populations for each LMO on each atom are computed
The LMO`s will be ordered according to atom index and type
  (A) Strongly localized MO`s have populations of >=0.950 on one atom
  (B) Two center bond orbitals have populations of >=0.850 on two atoms
  (C) Other MO`s are considered to be `delocalized`

FOUND  -   6 strongly local MO`s
       -   7 two center bond MO`s
       -   0 significantly delocalized MO`s

Rather strongly localized orbitals:
MO   9:   3F  -   0.985626
MO   8:   3F  -   0.990856
MO   7:   3F  -   0.990856
MO   6:   1F  -   0.985626
MO   5:   1F  -   0.990856
MO   4:   1F  -   0.990856
Bond-like localized orbitals:
MO  16:   7H  -   0.492193  and   2C  -   0.522710
MO  15:   6H  -   0.492194  and   2C  -   0.522708
MO  14:   5H  -   0.492193  and   0C  -   0.522710
MO  13:   4H  -   0.492195  and   0C  -   0.522708
MO  12:   3F  -   0.733255  and   2C  -   0.266980
MO  11:   2C  -   0.521179  and   0C  -   0.521175
MO  10:   1F  -   0.733254  and   0C  -   0.266981
Localized MO's were stored in: 1_2_difluoroethane_a.proc0.loc

Localizing the core orbitals
------------------------------------------------------------------------------
                           ORCA ORBITAL LOCALIZATION
------------------------------------------------------------------------------

Input orbitals are from                  ... 1_2_difluoroethane_a.proc0.loc
Output orbitals are to                   ... 1_2_difluoroethane_a.proc0.loc
Max. number of iterations                ... 128
Localizations seeded randomly            ... off
Convergence tolerance                    ... 1.000e-06
Using relative localization threshhold   ... 1.000e-08
Treshold for strong local MOs            ... 9.500e-01
Treshold for bond MOs                    ... 8.500e-01
Operator                                 ... 0
Orbital range for localization           ... 0 to 3
Localization criterion                   ... FOSTER-BOYS (AUGMENTED HESSIAN)
Doing the dipole integrals     ... o.k.
Initial value of the localization sum :    26.990915
ITERATION   0 : L=   26.9909163052 DL=  1.26e-06 (AVERGE_DL)=    0.0004589517 
ITERATION   1 : L=   26.9909163052 DL=  0.00e+00 (AVERGE_DL)=    0.0000000000 
LOCALIZATION SUM CONVERGED

------------------------------------------------------
AUGMENTED HESSIAN OPTIMIZATION OF FOSTER-BOYS ORBITALS
------------------------------------------------------

Spin operator:           0
Orbital window:          0 to 3
Number of iterations:    128
Gradient tolerance:      1.000e-06
Number of pairs:         6
Davidson threshold:      2000
Diagonalization method:  LAPACK
Iter:    0   L: 26.9909163052   Grad. norm: 5.901785e-07
   *** Likely close to a maximum now. ***
       Augmented Hessian eigenvalues:  4.87e-15 -2.81e+01 -2.81e+01 -3.30e+01 ... 
Iter:    1   L: 26.9909163052   Grad. norm: 8.556574e-21
LOCALIZATION HAS CONVERGED.

Eigenvalues of the Hessian:
  0 -2.811e+01
  1 -2.811e+01
  2 -3.303e+01
  3 -7.985e+01
  4 -7.986e+01
  5 -1.829e+02


------------------------------------------------------------------------------- 
                    LOCALIZED MOLECULAR ORBITAL COMPOSITIONS                   
------------------------------------------------------------------------------- 

The Mulliken populations for each LMO on each atom are computed
The LMO`s will be ordered according to atom index and type
  (A) Strongly localized MO`s have populations of >=0.950 on one atom
  (B) Two center bond orbitals have populations of >=0.850 on two atoms
  (C) Other MO`s are considered to be `delocalized`

FOUND  -   4 strongly local MO`s
       -   0 two center bond MO`s
       -   0 significantly delocalized MO`s

Rather strongly localized orbitals:
MO   3:   3F  -   0.999814
MO   2:   2C  -   0.999543
MO   1:   1F  -   0.999814
MO   0:   0C  -   0.999543
Localized MO's were stored in: 1_2_difluoroethane_a.proc0.loc

Warning: internal orbitals are localized - no re-canonicalization of internal orbitals

--------------------------
CLOSED-SHELL FOCK OPERATOR
--------------------------

RI-JK section for the Fock operator:
  RHF full Fock operator         ... done
  RHF frozen core Fock operator  ... done
Time needed for Fock operator              ...            0.502 sec
Reference energy                           ...   -276.938958598

--------------
DLPNO SETTINGS (2015 fully linear scaling implementation)
--------------

TCutMKN:           1.000e-03
TCutPAO:           1.000e-03
TCutPNO:           1.000e-07
TCutPNOSingles:    3.000e-09
TCutEN:            9.700e-01
TCutPAOExt:        1.000e-01
TCutPairs:         1.000e-05
TCutPre:           1.000e-07
TCutOSV:           1.000e-06
TCutDOij:          1.000e-05
TCutDO:            5.000e-03
TCutC:             1.000e-04
TCutCPAO:          1.000e-03
TCutCMO:           1.000e-03
TScaleDOMP2PreScr: 2.000e+00
TScaleMKNMP2PreScr:1.000e+01
TScalePNOMP2PreScr:1.000e+00
PAO overlap thresh 1.000e-08
Using PNOs for Singles Fock computation
Use new domains
Use fully linear algorithm
TCutTNO:           1.000e-09
TCutMP2Pairs:      1.000e-06
TCutDOStrong:      2.000e-03
TCutMKNStrong:     1.000e-02
TCutMKNWeak:       1.000e-01
TCutDOWeak:        4.000e-03
NTCutTNO:          1

--------------------------
Calculating differential overlap integrals ... ok
--------------------------
ELECTRON PAIR PRESCREENING
--------------------------

Dipole-based pair screening          .... used

   TCutDOij = 1.000000e-05
   TCutPre  = 1.000000e-07
   .... Finished loop over pairs
Total time spent in the prescreening                  ...     0.000 sec
sum of pair energies estimated for screened out pairs ...       0.000000000000 Eh
Thresholds for map construction and integral transformation for crude MP2:
   TCutMKN                    ...     1.0e-02
   TCutDO                     ...     1.0e-02
   TCutPairs                  ...     1.0e-05
   TCutPNO_CrudeMP2           ...     1.0e-07
   TCutPNOSingles_CrudeMP2    ...     3.0e-09
--------------------------------
LOCAL RI TRANSFORMATION (IAVPAO)
--------------------------------

Orbital window:       4 to 16
Number of PAOs:      76
Basis functions:     76 (36 shells)
Aux. functions:     280 (96 shells)

Processing maps (0.0 sec)
Average map sizes:
   Aux shells -> MOs              13.0
   Aux shells -> PAOs             76.0
   MOs        -> AO shells        36.0
   PAOs       -> AO shells        36.0

Calculating integrals (0.2 sec, 2.114 MB)
Sorting integrals (0.0 sec, 2.111 MB)
Total time for the integral transformation: 0.2 sec
--------------------------------
INITIAL GUESS AND PNO GENERATION
--------------------------------

PNO truncation parameters                   .... 
    PAOOverlapThresh   =        1.000e-08

    TCutPairs          =        1.000e-05
    TCutPNO            =        1.000e-07
    TCutPNOSingles     =        3.000e-09
    TCutMP2Pairs       =        1.000e-06
    TCutMKN            =        1.000e-02
    TCutDO             =        1.000e-02

Pair selection                          .... not used
Type of local MP2 treatment                 .... semi-local MP2
Strategy for PNO selection                  .... occupation number selection
Pair density normalization                  .... MP2 norm
Spin component scaling                      .... not used

   .... Finished loop over pairs
Making pair pair interaction lists          ... done

                       ===========================
                         87 OF   91 PAIRS ARE KEPT CCSD PAIRS
                          4 OF   91 PAIRS ARE KEPT MP2 PAIRS FOR (T)
                          0 OF   91 PAIRS ARE SKIPPED
                       ===========================

Total time spent in the initial guess                 ...     0.069 sec
SL-MP2 correlation energy (all non-screened pairs)    ...      -0.624819534825 Eh

Initial PNO correlation energy                        ...      -0.624649166918 Eh
sum of pair energies prescreened and skipped MP2 pairs...       0.000000000000 Eh
sum of pair energies of crude MP2 skipped pairs only  ...       0.000000000000 Eh
sum of MP2 pair energies for pairs that were not kept ...      -0.000024061222 Eh
sum of PNO error estimates for the kept pairs         ...      -0.000146306685 Eh
                                                          --------------------
sum of all corrections                                         -0.000170367907
Initial total correlation energy                               -0.624819534825
Thresholds for map construction and integral transformation for fine MP2 and CCSD(T) calculation:
   TCutMKN   ...     1.0e-03
   TCutDO    ...     5.0e-03
   TCutPairs ...     1.0e-05
   TCutCMO   ...     1.0e-03
   TCutCPAO  ...     1.0e-03

Thresholds for map construction and integral transformation for strong Triples:
   TCutMKN   ...     1.0e-02
   TCutDO    ...     1.0e-02
   TCutCMO   ...     1.0e-03
   TCutCPAO  ...     1.0e-03

Thresholds for map construction and integral transformation for weak Triples:
   TCutMKN   ...     1.0e-01
   TCutDO    ...     2.0e-02
   TCutCMO   ...     1.0e-03
   TCutCPAO  ...     1.0e-03

--------------------------------
LOCAL RI TRANSFORMATION (IAVPAO)
--------------------------------

Orbital window:       4 to 16
Number of PAOs:      76
Basis functions:     76 (36 shells)
Aux. functions:     280 (96 shells)

Processing maps (0.0 sec)
Average map sizes:
   Aux shells -> MOs              13.0
   Aux shells -> PAOs             76.0
   MOs        -> AO shells        36.0
   PAOs       -> AO shells        36.0

Calculating integrals (0.2 sec, 2.114 MB)
Sorting integrals (0.0 sec, 2.111 MB)
Total time for the integral transformation: 0.2 sec
--------------------------------
INITIAL GUESS AND PNO GENERATION
--------------------------------

PNO truncation parameters                   .... 
    ScaleTCutPNO       =        1.000e-02
    PAOOverlapThresh   =        1.000e-08

    TCutPairs          =        1.000e-05
    TCutPNO            =        1.000e-07
    TCutPNOSingles     =        3.000e-09
    TCutMP2Pairs       =        1.000e-06
    TCutMKN            =        1.000e-03
    TCutDO             =        5.000e-03

Pair selection                          .... not used
Type of local MP2 treatment                 .... full local PMP2
Strategy for PNO selection                  .... occupation number selection
Pair density normalization                  .... MP2 norm
Spin component scaling                      .... not used

PASS-1: Formation of initial guess LMP2 amplitudes
Initial amplitudes guess done. Entering LMP2 iteration loop:
   Max. no of iterations          ...  50
   Energy convergence tolerance   ...    1.0e-07
   Residual convergence tolerance ...    5.0e-07
   Fock matrix cutoff             ...    1.0e-05 Eh
   DIIS convergence acceleration parameters:
        Max # vectors in DIIS     ... 7
        Start iteration of DIIS   ... 0
        Levelshift                ... 2.000e-01
        Damping factor 1          ... 5.000e-01
        Damping factor 2          ... 1.000e+00
   L-MP2 PNO cut-off              ...   1.0e-09
   L-MP2 PNO cut-off (core)       ...   1.0e-11
                           *** Turning on DIIS ***
LMP2-Iter=   0:  ELMP2= -0.641111013175  DE=   1.6e-02 RMAX=   7.9e-03
LMP2-Iter=   1:  ELMP2= -0.648296203346  DE=   7.2e-03 RMAX=   5.0e-03
LMP2-Iter=   2:  ELMP2= -0.649353972211  DE=   1.1e-03 RMAX=   1.0e-03
LMP2-Iter=   3:  ELMP2= -0.649505222485  DE=   1.5e-04 RMAX=   4.0e-04
LMP2-Iter=   4:  ELMP2= -0.649517178053  DE=   1.2e-05 RMAX=   3.7e-05
LMP2-Iter=   5:  ELMP2= -0.649516746890  DE=   4.3e-07 RMAX=   1.6e-05
LMP2-Iter=   6:  ELMP2= -0.649516591155  DE=   1.6e-07 RMAX=   1.2e-06
LMP2-Iter=   7:  ELMP2= -0.649516552500  DE=   3.9e-08 RMAX=   3.3e-07
LMP2-Iter=   8:  ELMP2= -0.649516560155  DE=   7.7e-09 RMAX=   5.2e-08 => CONVERGED
PASS-2: Formation of Pair natural orbitals
   .... Finished loop over pairs

 PNO Occupation Number Statistics: 
  | Av. % of trace(Dij) retained        ...  99.358237851669
  | sigma^2 in % of trace(Dij) retained ...   2.43e+00
  | Av. % of trace(Di) retained         ...  99.999874124143
  | sigma^2 in % of trace(Di) retained  ...   2.46e-09
 Distributions of % trace(Dij) recovered:
  |       >= 99.9  ...    59 ( 64.8 % of all pairs)
  |   [90.0, 99.0) ...    17 ( 18.7 % of all pairs)
  |   [99.0, 99.9) ...    15 ( 16.5 % of all pairs)
 Distributions of % trace(Di) recovered :
  |       >= 99.9  ...    13 (100.0 % of all I-pairs )

Making pair pair interaction lists          ... done

                       ===========================
                         87 OF   91 PAIRS ARE KEPT
                       ===========================

Total time spent in the initial guess                 ...     0.596 sec
L-MP2 correlation energy (all non-screened pairs)     ...      -0.649516560155 Eh
L-MP2 PNO error correction                            ...      -0.000001538978 Eh
                                                          --------------------
Initial total L-MP2 energy (non-screened pairs)       ...      -0.649518099133 Eh

Initial PNO correlation energy                        ...      -0.649350909715 Eh
sum of pair energies estimated for screened out pairs ...       0.000000000000 Eh
sum of MP2 pair energies for pairs that were not kept ...      -0.000029974834 Eh
sum of PNO error estimates for the kept pairs         ...      -0.000137214584 Eh
                                                          --------------------
sum of all corrections                                         -0.000167189418
Initial total correlation energy                               -0.649518099133
Thresholds for map construction and integral transformation for fine MP2 and CCSD(T) calculation:
   TCutMKN   ...     1.0e-03
   TCutDO    ...     5.0e-03
   TCutPairs ...     1.0e-05
   TCutCMO   ...     1.0e-03
   TCutCPAO  ...     1.0e-03

Time for aux screen maps:            0.000
Time for maps after fine MP2:            0.002
-----------------------------
LOCAL RI TRANSFORMATION (IJV)
-----------------------------

Orbital window:       4 to 16
Basis functions:     76 (36 shells)
Aux. functions:     280 (96 shells)

Processing maps (0.0 sec)
Average map sizes:
   Aux shells -> MOs(i)           13.0
   Aux shells -> MOs(j)           13.0
   MOs        -> AO shells        36.0

Calculating integrals (0.2 sec, 0.364 MB)
Sorting integrals (0.0 sec, 0.361 MB)
Total time for the integral transformation: 0.3 sec
--------------------------------
LOCAL RI TRANSFORMATION (VABPAO)
--------------------------------

Number of PAOs:      76
Basis functions:     76 (36 shells)
Aux. functions:     280 (96 shells)

Processing maps (0.0 sec)
Average map sizes:
   Aux shells -> PAOs             76.0
   PAOs       -> AO shells        36.0

Calculating integrals (0.3 sec, 21.863 MB)
Finished


-------------------------------------
Pair Pair Term precalculation with     
RI-(ij|mn) and (im|jn) transformation  
ON THE FLY                             
-------------------------------------

   IBatch   1 (of   1)              ... done (    1.759 sec)
Total EXT                           ...           1.797 sec

---------------------
RI-PNO TRANSFORMATION
---------------------

Total Number of PNOs                   ...  2024
Average number of PNOs per pair        ...    23
Maximal number of PNOs per pair        ...    35
   #pairs with  1 -  5 PNOs   :    0
   #pairs with  6 - 10 PNOs   :    0
   #pairs with 11 - 15 PNOs   :   12
   #pairs with 16 - 20 PNOs   :   23
   #pairs with 21 - 25 PNOs   :   17
   #pairs with 26 - 30 PNOs   :   20
   #pairs with 31 - 35 PNOs   :   15
   #pairs with 36 - 40 PNOs   :    0
   #pairs with 41 - 45 PNOs   :    0
   #pairs with 46 - 50 PNOs   :    0

Generation of (ij|ab)[P] integrals            ... on
Generation of (ia|bc)[P],(ja|bc)[P] integrals ... on
Storage of 3 and 4 external integrals         ... on
Generation of ALL (ka|bc)[P] integrals        ... on
Keep RI integrals in memory                   ... off

Ibatch:  1 (of  1)
Starting 2-4 index PNO integral generation ... done

Timings:
Total PNO integral transformation time     ...          0.626 sec
Size of the 3-external file                ...        10 MB
Size of the 4-external file                ...        38 MB
Size of the IKJL file                      ...         0 MB
Size of the all 3-external file            ...        69 MB
Size of the 1-external file                ...         0 MB

Making pair/pair overlap matrices          ... done (    0.088 sec)
Size of the pair overlap file              ... 22 MB
Redoing the guess amplitudes               ... done (    0.001 sec)

-------------------------
FINAL STARTUP INFORMATION
-------------------------

E(0)                                       ...   -276.938958598
E(L-MP2)                                   ...     -0.649518099
E(L-MP2) including corrections             ...     -0.649518099
Initial E(tot)                             ...   -277.588476697
<T|T>                                      ...      0.148605848
Number of pairs included                   ... 87
Total number of pairs                      ... 91

------------------------------------------------
                  RHF COUPLED CLUSTER ITERATIONS
------------------------------------------------

Number of PNO amplitudes to be optimized   ...        50772
Number of non-PNO amplitudes               ...       302847
Untruncated number of regular amplitudes   ...       316771

Iter       E(tot)           E(Corr)          Delta-E          Residual     Time
  0   -277.564038148     -0.624912360      0.024605739      0.018760969    0.53
                           *** Turning on DIIS ***
  1   -277.599286877     -0.660161089     -0.035248729      0.011698218    0.53
  2   -277.617587739     -0.678461952     -0.018300863      0.003848965    0.53
  3   -277.620818744     -0.681692957     -0.003231005      0.002305602    0.53
  4   -277.621792805     -0.682667018     -0.000974061      0.000695131    0.53
  5   -277.622035001     -0.682909213     -0.000242196      0.000230132    0.53
  6   -277.622062402     -0.682936615     -0.000027401      0.000102047    0.54
  7   -277.622067693     -0.682941906     -0.000005291      0.000032364    0.55
  8   -277.622069336     -0.682943549     -0.000001643      0.000009224    0.55
               --- The Coupled-Cluster iterations have converged ---

----------------------
COUPLED CLUSTER ENERGY
----------------------

E(0)                                       ...   -276.938958598
E(CORR)(strong-pairs)                      ...     -0.682943549
E(CORR)(weak-pairs)                        ...     -0.000167189
E(CORR)(corrected)                         ...     -0.683110738
E(TOT)                                     ...   -277.622069336
Singles Norm <S|S>**1/2                    ...      0.051128525  
T1 diagnostic                              ...      0.010027129  

------------------
LARGEST AMPLITUDES
------------------
  12-> 17  12-> 17       0.044016
  10-> 17  10-> 17       0.044015
  15-> 25  15-> 25       0.039677
  13-> 25  13-> 25       0.039677
  16-> 25  16-> 25       0.039676
  14-> 25  14-> 25       0.039674
  15-> 17  15-> 17       0.035700
  14-> 17  14-> 17       0.035700
  13-> 17  13-> 17       0.035700
  16-> 17  16-> 17       0.035699
  12-> 21  12-> 17       0.031422
  12-> 17  12-> 21       0.031422
  10-> 17  10-> 21       0.031422
  10-> 21  10-> 17       0.031422
  15-> 25  15-> 17       0.030871
  15-> 17  15-> 25       0.030871


-------------------------------------------
DLPNO BASED TRIPLES CORRECTION
-------------------------------------------

Singles multiplier          ...  1.000000
TCutTNO                     ... 1.000e-09
TCutMP2Pairs                ... 1.000e-06
TCutDOStrong                ... 1.000e-02
TCutMKNStrong               ... 1.000e-02
TCutDOWeak                  ... 2.000e-02
TCutMKNWeak                 ... 1.000e-01

Fragment selection                          .... not used
Number of Triples that are to be computed   ...       430

 . . . . . . . . .
10% done  
20% done  
30% done  
40% done  
50% done  
60% done  
70% done  
80% done  
90% done               (      2.815 sec)
Triples timings:
Total time for T0               ...     3.064 sec
Total time for Iterative (T)    ...     0.000 sec
Total time of overall (T)       ...     3.065 sec

Triples List generation         ...     0.000 sec
TNO generation                  ...     0.248 sec
Pair density generation         ...     0.001 sec
Look up tables                  ...     0.000 sec
Generating 3-index integrals    ...     1.140 sec
  Make 4-ind.int. from 3-ind.int...     0.688 sec
  Projecting amplitudes (D + S) ...     0.246 sec
  Downprojecting integrals      ...     0.000 sec
  Energy contr. (sum over a,b,c)...     0.243 sec
Fitting ET(->0)                 ...     0.000 sec

Everything after 3-index        ...     1.675 sec

Timing details:
 TNO integrals                  ...     1.708 sec
   Reading 3-index integrals    ...     0.005 sec
   Sorting integrals            ...     0.388 sec
       Sorting integrals 1      ...     0.000 sec
       Sorting integrals 2      ...     0.092 sec
       Sorting integrals 3      ...     0.027 sec
       Sorting integrals 4      ...     0.004 sec
       Sorting integrals 5      ...     0.008 sec
       Sorting integrals 6      ...     0.257 sec
   Calculating local VM**-1/2   ...     0.032 sec
   Orthogonal. integrals        ...     0.055 sec
   Multipl. 3-index integrals   ...     1.227 sec
   All concerning IRIab (w/TNO) ...     0.305 sec

 Calculate W0/W1                ...     0.495 sec
 W 3-ext contribution           ...     0.265 sec
 W 3-int contribution           ...     0.088 sec
 Sorting W                      ...     0.122 sec

 V exchange contribution        ...     0.102 sec

 Timings for Triples without generation
     of 3-index integrals       ...     1.674 sec
       0 weak pairs             ...     1.538 sec
       1 weak pair              ...     0.136 sec
       2 weak pairs             ...     0.000 sec
       3 weak pairs             ...     0.000 sec
  Extra time for extrapolation  ...     0.000 sec

Number of Triples   (0, 1, 2, 3 weak pairs; overall):    394      36       0       0  (   430)
Number of Atoms     (0, 1, 2, 3 weak pairs; overall):    8.0     8.0     0.0     0.0  (     8)
Number of PAOs      (0, 1, 2, 3 weak pairs; overall):   76.0    76.0     0.0     0.0  (    76)
Number of AuxFcns   (0, 1, 2, 3 weak pairs; overall):  168.0   168.0     0.0     0.0  (   280)
Number of TNOs      (0, 1, 2, 3 weak pairs         ):   45.0    42.5     0.0     0.0
Aver. Number of NTNO, Atoms, PAOs, AuxFcns / Triples:    430    44.8     8.0    76.0   168.0

Triples Correction (T)                     ...     -0.013523790
Final correlation energy                   ...     -0.696634528
E(CCSD)                                    ...   -277.622069336
E(CCSD(T))                                 ...   -277.635593126


Maximum memory used throughout the entire calculation: 682.6 MB


------------------------------------------------------------------------------- 
                                     TIMINGS                                   
------------------------------------------------------------------------------- 


Total execution time                   ...       13.383 sec

Localization of occupied MO's          ...        0.366 sec (  2.7%)
Fock Matrix Formation                  ...        0.502 sec (  3.7%)
Global overlap, Fock, MKN matrices     ...        0.118 sec (  0.9%)
Differential overlap integrals         ...        0.037 sec (  0.3%)
Organizing maps                        ...        0.007 sec (  0.1%)
RI 3-index integral generations        ...        0.986 sec (  7.4%)
RI-PNO integral transformation         ...        2.628 sec ( 19.6%)
Initial Guess                          ...        0.673 sec (  5.0%)
DIIS Solver                            ...        0.150 sec (  1.1%)
State Vector Update                    ...        0.005 sec (  0.0%)
Sigma-vector construction              ...        4.783 sec ( 35.7%)
  <D|H|D>(0-ext)                       ...        0.314 sec (  6.6% of sigma)
  <D|H|D>(2-ext Fock)                  ...        0.004 sec (  0.1% of sigma)
  <D|H|D>(2-ext)                       ...        0.558 sec ( 11.7% of sigma)
  <D|H|D>(4-ext)                       ...        0.438 sec (  9.2% of sigma)
  <D|H|D>(4-ext-corr)                  ...        1.838 sec ( 38.4% of sigma)
  CCSD doubles correction              ...        0.041 sec (  0.9% of sigma)
  <S|H|S>                              ...        0.034 sec (  0.7% of sigma)
  <S|H|D>(1-ext)                       ...        0.057 sec (  1.2% of sigma)
  <D|H|S>(1-ext)                       ...        0.003 sec (  0.1% of sigma)
  <S|H|D>(3-ext)                       ...        0.040 sec (  0.8% of sigma)
  Fock-dressing                        ...        0.787 sec ( 16.5% of sigma)
  Singles amplitudes                   ...        0.046 sec (  1.0% of sigma)
  (ik|jl)-dressing                     ...        0.214 sec (  4.5% of sigma)
  (ij|ab),(ia|jb)-dressing             ...        0.366 sec (  7.7% of sigma)
  Pair energies                        ...        0.002 sec (  0.0% of sigma)
Total Time for computing (T)           ...        3.076 sec ( 23.0% of ALL)


-------------------------   --------------------
FINAL SINGLE POINT ENERGY      -277.635593126267
-------------------------   --------------------


                            ***************************************
                            *     ORCA property calculations      *
                            ***************************************

                                    ---------------------
                                    Active property flags
                                    ---------------------
   (+) Dipole Moment


------------------------------------------------------------------------------
                       ORCA ELECTRIC PROPERTIES CALCULATION
------------------------------------------------------------------------------

Dipole Moment Calculation                       ... on
Quadrupole Moment Calculation                   ... off
Polarizability Calculation                      ... off
GBWName                                         ... 1_2_difluoroethane_a.gbw
Electron density file                           ... 1_2_difluoroethane_a.scfp.tmp
The origin for moment calculation is the CENTER OF MASS  = (-0.000004, -0.000006 -0.000003)

-------------
DIPOLE MOMENT
-------------
                                X             Y             Z
Electronic contribution:      0.00002      -0.00004      -0.00015
Nuclear contribution   :     -0.00002       0.00006       0.00020
                        -----------------------------------------
Total Dipole Moment    :     -0.00000       0.00002       0.00005
                        -----------------------------------------
Magnitude (a.u.)       :      0.00005
Magnitude (Debye)      :      0.00013



--------------------
Rotational spectrum 
--------------------
 
Rotational constants in cm-1:     1.055272     0.127348     0.118815 
Rotational constants in MHz : 31636.259478  3817.809937  3561.993660 

 Dipole components along the rotational axes: 
x,y,z [a.u.] :    -0.000000     0.000023     0.000046 
x,y,z [Debye]:    -0.000000     0.000059     0.000118 

 

Timings for individual modules:

Sum of individual times         ...       72.385 sec (=   1.206 min)
GTO integral calculation        ...       57.015 sec (=   0.950 min)  78.8 %
SCF iterations                  ...        1.842 sec (=   0.031 min)   2.5 %
MDCI module                     ...       13.529 sec (=   0.225 min)  18.7 %
                             ****ORCA TERMINATED NORMALLY****
TOTAL RUN TIME: 0 days 0 hours 1 minutes 12 seconds 644 msec
1_2_difluoroethane_a.gbw -> /home1/pantazis/klk/VDZ/Haloalkanes/1_2_difluoroethane_a.gbw
1_2_difluoroethane_a.ges -> /home1/pantazis/klk/VDZ/Haloalkanes/1_2_difluoroethane_a.ges
1_2_difluoroethane_a.job -> /home1/pantazis/klk/VDZ/Haloalkanes/1_2_difluoroethane_a.job
1_2_difluoroethane_a.loc -> /home1/pantazis/klk/VDZ/Haloalkanes/1_2_difluoroethane_a.loc
1_2_difluoroethane_a.nodes -> /home1/pantazis/klk/VDZ/Haloalkanes/1_2_difluoroethane_a.nodes
1_2_difluoroethane_a.prop -> /home1/pantazis/klk/VDZ/Haloalkanes/1_2_difluoroethane_a.prop
1_2_difluoroethane_a_property.txt -> /home1/pantazis/klk/VDZ/Haloalkanes/1_2_difluoroethane_a_property.txt
1_2_difluoroethane_a.xyz -> /home1/pantazis/klk/VDZ/Haloalkanes/1_2_difluoroethane_a.xyz
cp: cannot stat 1_2_difluoroethane_a.asa.inp: No such file or directory
