! Job execution by suborca V 6.07 on ZEUS !
Job started from zeus1, running /scratch/pantazis/1_2_ethanediol_a_a_a__inpwbP/orca/orca copied from /opt/orca on zeussn149 in /scratch/pantazis/1_2_ethanediol_a_a_a__inpwbP
Job execution start: Sat Jun 29 11:38:09 CEST 2019
Shared library path: /scratch/pantazis/1_2_ethanediol_a_a_a__inpwbP/orca:/opt/openmpi_1.10.2/lib:/opt/intel/mkl/lib/intel64:/opt/intel/lib/intel64:
PBS Job ID is: 158874.icqc
izeussn149
izeussn149
izeussn149
izeussn149

                                 *****************
                                 * O   R   C   A *
                                 *****************

           --- An Ab Initio, DFT and Semiempirical electronic structure package ---

                  #######################################################
                  #                        -***-                        #
                  #          Department of theory and spectroscopy      #
                  #               Directorship: Frank Neese             #
                  #        Max Planck Institute fuer Kohlenforschung    #
                  #                Kaiser Wilhelm Platz 1               #
                  #                 D-45470 Muelheim/Ruhr               #
                  #                      Germany                        #
                  #                                                     #
                  #                  All rights reserved                #
                  #                        -***-                        #
                  #######################################################


                         Program Version 4.1.x  -  STABLE  -
                                (SVN: $Rev: 14094$)
                ($Date: 2019-06-14 15:01:15 +0200 (Fri, 14 Jun 2019) $)

                         (BUILD: $Sun Jun 23 06:18:31 CEST 2019$)


 With contributions from (in alphabetic order):
   Daniel Aravena         : Magnetic Properties
   Michael Atanasov       : Ab Initio Ligand Field Theory
   Alexander A. Auer      : GIAO ZORA
   Ute Becker             : Parallelization
   Giovanni Bistoni       : ED, Open-shell LED
   Martin Brehm           : Molecular dynamics
   Dmytro Bykov           : SCF Hessian
   Vijay G. Chilkuri      : MRCI spin determinant printing
   Dipayan Datta          : RHF DLPNO-CCSD density
   Achintya Kumar Dutta   : EOM-CC, STEOM-CC
   Dmitry Ganyushin       : Spin-Orbit,Spin-Spin,Magnetic field MRCI
   Miquel Garcia          : C-PCM Hessian
   Yang Guo               : DLPNO-NEVPT2, CIM, IAO-localization
   Andreas Hansen         : Spin unrestricted coupled pair/coupled cluster methods
   Benjamin Helmich-Paris : CASSCF linear response (MC-RPA)
   Lee Huntington         : MR-EOM, pCC
   Robert Izsak           : Overlap fitted RIJCOSX, COSX-SCS-MP3, EOM
   Christian Kollmar      : KDIIS, OOCD, Brueckner-CCSD(T), CCSD density
   Simone Kossmann        : Meta GGA functionals, TD-DFT gradient, OOMP2, MP2 Hessian
   Martin Krupicka        : AUTO-CI
   Lucas Lang             : DCDCAS
   Dagmar Lenk            : GEPOL surface, SMD
   Dimitrios Liakos       : Extrapolation schemes; parallel MDCI
   Dimitrios Manganas     : ROCIS; embedding schemes
   Dimitrios Pantazis     : SARC Basis sets
   Taras Petrenko         : DFT Hessian,TD-DFT gradient, ASA, ECA, R-Raman, ABS, FL, XAS/XES, NRVS
   Peter Pinski           : DLPNO-MP2, DLPNO-MP2 Gradient
   Christoph Reimann      : Effective Core Potentials
   Marius Retegan         : Local ZFS, SOC
   Christoph Riplinger    : Optimizer, TS searches, QM/MM, DLPNO-CCSD(T), (RO)-DLPNO pert. Triples
   Tobias Risthaus        : Range-separated hybrids, TD-DFT gradient, RPA, STAB
   Michael Roemelt        : Restricted open shell CIS
   Masaaki Saitow         : Open-shell DLPNO
   Barbara Sandhoefer     : DKH picture change effects
   Avijit Sen             : IP-ROCIS
   Kantharuban Sivalingam : CASSCF convergence, NEVPT2, FIC-MRCI
   Bernardo de Souza      : ESD, SOC TD-DFT
   Georgi Stoychev        : AutoAux, RI-MP2 NMR
   Willem Van den Heuvel  : Paramagnetic NMR
   Boris Wezisla          : Elementary symmetry handling
   Frank Wennmohs         : Technical directorship


 We gratefully acknowledge several colleagues who have allowed us to
 interface, adapt or use parts of their codes:
   Stefan Grimme, W. Hujo, H. Kruse,             : VdW corrections, initial TS optimization,
                  C. Bannwarth                     DFT functionals, gCP, sTDA/sTD-DF
   Ed Valeev                                     : LibInt (2-el integral package), F12 methods
   Garnet Chan, S. Sharma, J. Yang, R. Olivares  : DMRG
   Ulf Ekstrom                                   : XCFun DFT Library
   Mihaly Kallay                                 : mrcc  (arbitrary order and MRCC methods)
   Andreas Klamt, Michael Diedenhofen            : otool_cosmo (COSMO solvation model)
   Jiri Pittner, Ondrej Demel                    : Mk-CCSD
   Frank Weinhold                                : gennbo (NPA and NBO analysis)
   Christopher J. Cramer and Donald G. Truhlar   : smd solvation model
   Lars Goerigk                                  : TD-DFT with DH, B97 family of functionals
   V. Asgeirsson, H. Jonsson                     : NEB implementation
   FAccTs GmbH                                   : IRC, NEB, NEB-TS, Multilevel


 Your calculation uses the libint2 library for the computation of 2-el integrals
 For citations please refer to: http://libint.valeyev.net

 This ORCA versions uses:
   CBLAS   interface :  Fast vector & matrix operations
   LAPACKE interface :  Fast linear algebra routines
   SCALAPACK package :  Parallel linear algebra routines




***************************************
The coordinates will be read from file: 1_2_ethanediol_a_a_a.xyz
***************************************


----- Orbital basis set information -----
Your calculation utilizes the basis: cc-pVDZ 
       H, B-Ne : Obtained from the ccRepo (grant-hill.group.shef.ac.uk/ccrepo) Feb. 2017
                 T. H. Dunning, Jr., J. Chem. Phys. 90, 1007 (1989)
            He : Obtained from the ccRepo (grant-hill.group.shef.ac.uk/ccrepo) Feb. 2017
                 D. E. Woon, T. H. Dunning, Jr., J. Chem. Phys. 100, 2975 (1994)
  Li-Be, Na-Mg : Obtained from the ccRepo (grant-hill.group.shef.ac.uk/ccrepo) Feb. 2017
                 B. P. Prascher, D. E. Woon, K. A. Peterson, T. H. Dunning, Jr., A. K. Wilson, Theor. Chem. Acc. 128, 69 (2011)
         Al-Ar : Obtained from the ccRepo (grant-hill.group.shef.ac.uk/ccrepo) Feb. 2017
                 D. E. Woon, T. H. Dunning, Jr., J. Chem. Phys. 98, 1358 (1993)
            Ca : Obtained from the Peterson Research Group Website (tyr0.chem.wsu.edu/~kipeters) Feb. 2017
                 J. Koput, K. A. Peterson, J. Phys. Chem. 106, 9595 (2002)
         Sc-Zn : Obtained from the ccRepo (grant-hill.group.shef.ac.uk/ccrepo) Feb. 2017
                 N. B. Balabanov, K. A. Peterson, J. Chem. Phys. 123, 064107 (2005)
                 N. B. Balabanov, K. A. Peterson, J. Chem. Phys. 125, 074110 (2006)
         Ga-Kr : Obtained from the ccRepo (grant-hill.group.shef.ac.uk/ccrepo) Feb. 2017
                 A. K. Wilson, D. E. Woon, K. A. Peterson, T. H. Dunning, Jr., J. Chem. Phys. 110, 7667 (1999)

----- AuxC basis set information -----
Your calculation utilizes the auxiliary basis: cc-pVDZ/C 
  H-He, B, Ne, Al-Ar, Ga-Br : Obtained from the EMSL Basis Set Exchange (bse.pnl.gov) Feb. 2017
                              F. Weigend, A. Kohn, C. Hattig, J. Chem. Phys. 116, 3175 (2002)
               Li-Be, Na-Mg : Obtained from the EMSL Basis Set Exchange (bse.pnl.gov) Feb. 2017
                              C. Haettig, Phys. Chem. Chem. Phys. 7, 59 (2005)
                        C-F : Obtained from the EMSL Basis Set Exchange (bse.pnl.gov) Feb. 2017
                              C. Haettig, Phys. Chem. Chem. Phys. 7, 59 (2005)
                              F. Weigend, A. Kohn, C. Hattig, J. Chem. Phys. 116, 3175 (2002)
                         Kr : Obtained from the TURBOMOLE 7.0 basis set library
                              F. Weigend, A. Kohn, C. Hattig, J. Chem. Phys. 116, 3175 (2002)
                              S function revised in Sep. 2009

----- AuxJK basis set information -----
Your calculation utilizes the auxiliary basis: cc-pVTZ/JK 
  H, B-F, Al-Cl, Ga-Br : Obtained from the TURBOMOLE 7.0 basis set library

================================================================================
                                        WARNINGS
                       Please study these warnings very carefully!
================================================================================


WARNING: MDCI localization with Augmented Hessian Foster-Boys
  ===> : Switching off randomization!

WARNING: Post HF methods need fully converged wavefunctions
  ===> : Setting SCFConvForced true
         You can overwrite this default with %scf ConvForced false 


INFO   : the flag for use of LIBINT has been found!

================================================================================
                                       INPUT FILE
================================================================================
NAME = 1_2_ethanediol_a_a_a.inp
|  1> ! RHF DLPNO-CCSD(T) cc-pVDZ RIJK cc-pVTZ/JK cc-pVDZ/C
|  2> ! KDIIS SOSCF TightSCF TightPNO
|  3> 
|  4> %pal nprocs 4 end
|  5> 
|  6> %maxcore 8000
|  7> 
|  8> %scf maxiter 300
|  9>      shift shift 0.2 erroff 0.1 end
| 10> end
| 11> 
| 12> * xyzfile 0 1 1_2_ethanediol_a_a_a.xyz 
| 13> 
| 14> 
| 15>                          ****END OF INPUT****
================================================================================

                       ****************************
                       * Single Point Calculation *
                       ****************************

---------------------------------
CARTESIAN COORDINATES (ANGSTROEM)
---------------------------------
  C     -0.574610    0.497900    0.000080
  O     -1.784380   -0.260910   -0.000010
  C      0.574610   -0.497890   -0.000010
  O      1.784390    0.260890   -0.000110
  H     -0.501530    1.136820    0.891020
  H     -0.501490    1.136990   -0.890740
  H      0.501550   -1.136910    0.890860
  H      0.501430   -1.136890   -0.890890
  H     -2.537550    0.341860   -0.000170
  H      2.537550   -0.341880    0.000540

----------------------------
CARTESIAN COORDINATES (A.U.)
----------------------------
  NO LB      ZA    FRAG     MASS         X           Y           Z
   0 C     6.0000    0    12.011   -1.085856    0.940895    0.000151
   1 O     8.0000    0    15.999   -3.371990   -0.493048   -0.000019
   2 C     6.0000    0    12.011    1.085856   -0.940876   -0.000019
   3 O     8.0000    0    15.999    3.372008    0.493011   -0.000208
   4 H     1.0000    0     1.008   -0.947754    2.148278    1.683784
   5 H     1.0000    0     1.008   -0.947679    2.148600   -1.683255
   6 H     1.0000    0     1.008    0.947792   -2.148449    1.683481
   7 H     1.0000    0     1.008    0.947565   -2.148411   -1.683538
   8 H     1.0000    0     1.008   -4.795275    0.646022   -0.000321
   9 H     1.0000    0     1.008    4.795275   -0.646060    0.001020

--------------------------------
INTERNAL COORDINATES (ANGSTROEM)
--------------------------------
 C      0   0   0     0.000000000000     0.00000000     0.00000000
 O      1   0   0     1.428053247292     0.00000000     0.00000000
 C      1   2   0     1.520626298799   106.99395714     0.00000000
 O      3   1   2     1.428045778958   106.99519047   179.99202887
 H      1   2   3     1.098787302620   111.43024552   240.57474092
 H      1   2   3     1.098791533868   111.43082695   119.42385952
 H      3   1   2     1.098787368375   109.30178849   300.78132878
 H      3   1   2     1.098791830512   109.30179911    59.20510140
 H      2   1   3     0.964674425597   109.23196635   180.01345449
 H      4   3   1     0.964666823831   109.23282032   179.95539212

---------------------------
INTERNAL COORDINATES (A.U.)
---------------------------
 C      0   0   0     0.000000000000     0.00000000     0.00000000
 O      1   0   0     2.698629542038     0.00000000     0.00000000
 C      1   2   0     2.873567256769   106.99395714     0.00000000
 O      3   1   2     2.698615428933   106.99519047   179.99202887
 H      1   2   3     2.076407081383   111.43024552   240.57474092
 H      1   2   3     2.076415077282   111.43082695   119.42385952
 H      3   1   2     2.076407205640   109.30178849   300.78132878
 H      3   1   2     2.076415637858   109.30179911    59.20510140
 H      2   1   3     1.822970472775   109.23196635   180.01345449
 H      4   3   1     1.822956107520   109.23282032   179.95539212

---------------------
BASIS SET INFORMATION
---------------------
There are 3 groups of distinct atoms

 Group   1 Type C   : 17s4p1d contracted to 3s2p1d pattern {881/31/1}
 Group   2 Type O   : 17s4p1d contracted to 3s2p1d pattern {881/31/1}
 Group   3 Type H   : 4s1p contracted to 2s1p pattern {31/1}

Atom   0C    basis set group =>   1
Atom   1O    basis set group =>   2
Atom   2C    basis set group =>   1
Atom   3O    basis set group =>   2
Atom   4H    basis set group =>   3
Atom   5H    basis set group =>   3
Atom   6H    basis set group =>   3
Atom   7H    basis set group =>   3
Atom   8H    basis set group =>   3
Atom   9H    basis set group =>   3
-------------------------------
AUXILIARY BASIS SET INFORMATION
-------------------------------
There are 3 groups of distinct atoms

 Group   1 Type C   : 7s5p4d2f contracted to 7s5p4d2f pattern {1111111/11111/1111/11}
 Group   2 Type O   : 7s5p4d2f contracted to 7s5p4d2f pattern {1111111/11111/1111/11}
 Group   3 Type H   : 3s2p1d contracted to 3s2p1d pattern {111/11/1}

Atom   0C    basis set group =>   1
Atom   1O    basis set group =>   2
Atom   2C    basis set group =>   1
Atom   3O    basis set group =>   2
Atom   4H    basis set group =>   3
Atom   5H    basis set group =>   3
Atom   6H    basis set group =>   3
Atom   7H    basis set group =>   3
Atom   8H    basis set group =>   3
Atom   9H    basis set group =>   3
-------------------------------
AUXILIARY BASIS SET INFORMATION
-------------------------------
There are 3 groups of distinct atoms

 Group   1 Type C   : 10s7p5d2f1g contracted to 10s7p5d2f1g pattern {1111111111/1111111/11111/11/1}
 Group   2 Type O   : 10s7p5d2f1g contracted to 10s7p5d2f1g pattern {1111111111/1111111/11111/11/1}
 Group   3 Type H   : 4s3p2d1f contracted to 4s3p2d1f pattern {1111/111/11/1}

Atom   0C    basis set group =>   1
Atom   1O    basis set group =>   2
Atom   2C    basis set group =>   1
Atom   3O    basis set group =>   2
Atom   4H    basis set group =>   3
Atom   5H    basis set group =>   3
Atom   6H    basis set group =>   3
Atom   7H    basis set group =>   3
Atom   8H    basis set group =>   3
Atom   9H    basis set group =>   3

Checking for AutoStart:
The File: 1_2_ethanediol_a_a_a.gbw exists
Trying to determine its content:
     ... Fine, the file contains calculation information
     ... Fine, the calculation information was read
     ... Fine, the file contains a basis set
     ... Fine, the basis set was read
     ... Fine, the file contains a geometry
     ... Fine, the geometry was read
     ... Fine, the file contains a set of orbitals
     ... Fine, the orbitals can be read
     => possible old guess file was deleted
     => GBW file was renamed to GES file
     => GES file is set as startup file
     => Guess is set to MORead
     ... now leaving AutoStart



           ************************************************************
           *        Program running with 4 parallel MPI-processes     *
           *              working on a common directory               *
           ************************************************************
------------------------------------------------------------------------------
                           ORCA GTO INTEGRAL CALCULATION
                           -- RI-GTO INTEGRALS CHOSEN --
------------------------------------------------------------------------------

                         BASIS SET STATISTICS AND STARTUP INFO

Gaussian basis set:
 # of primitive gaussian shells          ...  118
 # of primitive gaussian functions       ...  178
 # of contracted shells                  ...   42
 # of contracted basis functions         ...   86
 Highest angular momentum                ...    2
 Maximum contraction depth               ...    8
Auxiliary gaussian basis set:
 # of primitive gaussian shells          ...  160
 # of primitive gaussian functions       ...  496
 # of contracted shells                  ...  160
 # of contracted aux-basis functions     ...  496
 Highest angular momentum                ...    4
 Maximum contraction depth               ...    1
Ratio of auxiliary to basis functions    ...  5.77
Integral package used                  ... LIBINT
 One Electron integrals                  ... done
 Ordering auxiliary basis shells         ... done
 Integral threshhold             Thresh  ...  2.500e-11
 Primitive cut-off               TCut    ...  2.500e-12
 Pre-screening matrix                    ... done
 Shell pair data                         ... 
 Ordering of the shell pairs             ... done (   0.000 sec) 899 of 903 pairs
 Determination of significant pairs      ... done (   0.000 sec)
 Creation of shell pair data             ... done (   0.000 sec)
 Storage of shell pair data              ... done (   0.003 sec)
 Shell pair data done in (   0.004 sec)
 Computing two index integrals           ... done
 Cholesky decomposition of the V-matrix  ... done


Timings:
 Total evaluation time                   ...   2.892 sec (  0.048 min)
 One electron matrix time                ...   2.640 sec (  0.044 min) = 91.3%
 Schwartz matrix evaluation time         ...   0.139 sec (  0.002 min) =  4.8%
 Two index repulsion integral time       ...   0.038 sec (  0.001 min) =  1.3%
 Cholesky decomposition of V             ...   0.045 sec (  0.001 min) =  1.6%
 Three index repulsion integral time     ...   0.000 sec (  0.000 min) =  0.0%



           ************************************************************
           *        Program running with 4 parallel MPI-processes     *
           *              working on a common directory               *
           ************************************************************
-------------------------------------------------------------------------------
                                 ORCA SCF
-------------------------------------------------------------------------------

------------
SCF SETTINGS
------------
Hamiltonian:
 Ab initio Hamiltonian  Method          .... Hartree-Fock(GTOs)
 RI-approximation to the Coulomb term is turned on
   Number of auxiliary basis functions  .... 496
   RI-JK (J+K treated both via RI)      .... on


General Settings:
 Integral files         IntName         .... 1_2_ethanediol_a_a_a
 Hartree-Fock type      HFTyp           .... RHF
 Total Charge           Charge          ....    0
 Multiplicity           Mult            ....    1
 Number of Electrons    NEL             ....   34
 Basis Dimension        Dim             ....   86
 Nuclear Repulsion      ENuc            ....    129.8646855819 Eh

Convergence Acceleration:
 DIIS                   CNVDIIS         .... off
 Newton-Raphson         CNVNR           .... off
 SOSCF                  CNVSOSCF        .... on
   Start iteration      SOSCFMaxIt      ....   150
   Startup grad/error   SOSCFStart      ....  0.003300
 Level Shifting         CNVShift        .... on
   Level shift para.    LevelShift      ....    0.2000
   Turn off err/grad.   ShiftErr        ....    0.1000
 Zerner damping         CNVZerner       .... off
 Static damping         CNVDamp         .... off
 Fernandez-Rico         CNVRico         .... off

SCF Procedure:
 Maximum # iterations   MaxIter         ....   300
 SCF integral mode      SCFMode         .... Direct
   Integral package                     .... LIBINT
 Reset frequency        DirectResetFreq ....    20
 Integral Threshold     Thresh          ....  2.500e-11 Eh
 Primitive CutOff       TCut            ....  2.500e-12 Eh

Convergence Tolerance:
 Convergence Check Mode ConvCheckMode   .... Total+1el-Energy
 Convergence forced     ConvForced      .... 1
 Energy Change          TolE            ....  1.000e-08 Eh
 1-El. energy change                    ....  1.000e-05 Eh
 Orbital Gradient       TolG            ....  1.000e-05
 Orbital Rotation angle TolX            ....  1.000e-05


Diagonalization of the overlap matrix:
Smallest eigenvalue                        ... 5.062e-03
Time for diagonalization                   ...    0.004 sec
Threshold for overlap eigenvalues          ... 1.000e-08
Number of eigenvalues below threshold      ... 0
Time for construction of square roots      ...    0.004 sec
Total time needed                          ...    0.008 sec

---------------------
INITIAL GUESS: MOREAD
---------------------
Guess MOs are being read from file: 1_2_ethanediol_a_a_a.ges
Input Geometry matches current geometry (good)
Atom 0: N(Shells)= 6 and 10 - projection required
Input basis set needs projection
NBasis(read)= 204
NBasis(calc)= 86
Basis set overlap was calculated
Using GuessMode=FMatrix for the initial guess
C*T matrix was formed
Effective Fockian was calculated
Effective Fockian was diagonalized
Initial density was built
                      ------------------
                      INITIAL GUESS DONE (   0.0 sec)
                      ------------------
--------------
SCF ITERATIONS
--------------
ITER       Energy         Delta-E        Max-DP      RMS-DP      [F,P]   Gradient Norm
                             ****Turning on KDIIS(Cayley)****
  0   -228.9475572580   0.000000000000 0.00163644  0.00008564  0.0052149   0.005733474
  1   -228.9476493661  -0.000092108150 0.00336098  0.00016939  0.0047353   0.005155315
  2   -228.9477899078  -0.000140541641 0.00561134  0.00028967  0.0038103   0.004213340
                      *** Initiating the SOSCF procedure ***
                           *** Shutting down KDIIS ***
                      *** Re-Reading the Fockian *** 
                      *** Removing any level shift *** 
ITER      Energy       Delta-E        Grad      Rot      Max-DP    RMS-DP
  3   -228.94797628  -0.0001863710  0.002279  0.002279  0.008500  0.000440
  4   -228.94808464  -0.0001083658  0.000047  0.000035  0.000053  0.000003
  5   -228.94808467  -0.0000000252  0.000015  0.000017  0.000031  0.000001
  6   -228.94808468  -0.0000000057  0.000003  0.000005  0.000008  0.000001
                  ***Gradient check signals convergence***
              ***Rediagonalizing the Fockian in SOSCF/NRSCF***

               *****************************************************
               *                     SUCCESS                       *
               *           SCF CONVERGED AFTER   7 CYCLES          *
               *****************************************************


----------------
TOTAL SCF ENERGY
----------------

Total Energy       :         -228.94808468 Eh           -6229.99411 eV

Components:
Nuclear Repulsion  :          129.86468558 Eh            3533.79775 eV
Electronic Energy  :         -358.81277026 Eh           -9763.79186 eV
One Electron Energy:         -571.12615149 Eh          -15541.13268 eV
Two Electron Energy:          212.31338123 Eh            5777.34082 eV

Virial components:
Potential Energy   :         -457.66024714 Eh          -12453.56845 eV
Kinetic Energy     :          228.71216246 Eh            6223.57434 eV
Virial Ratio       :            2.00103152


---------------
SCF CONVERGENCE
---------------

  Last Energy change         ...   -3.4720e-10  Tolerance :   1.0000e-08
  Last MAX-Density change    ...    2.1086e-06  Tolerance :   1.0000e-07
  Last RMS-Density change    ...    1.1778e-07  Tolerance :   5.0000e-09
  Last Orbital Gradient      ...    8.6659e-07  Tolerance :   1.0000e-05
  Last Orbital Rotation      ...    7.0171e-07  Tolerance :   1.0000e-05

             **** THE GBW FILE WAS UPDATED (1_2_ethanediol_a_a_a.gbw) ****
             **** DENSITY FILE WAS UPDATED (1_2_ethanediol_a_a_a.scfp.tmp) ****
             **** ENERGY FILE WAS UPDATED (1_2_ethanediol_a_a_a.en.tmp) ****
----------------
ORBITAL ENERGIES
----------------

  NO   OCC          E(Eh)            E(eV) 
   0   2.0000     -20.553649      -559.2932 
   1   2.0000     -20.553648      -559.2932 
   2   2.0000     -11.276945      -306.8613 
   3   2.0000     -11.276313      -306.8441 
   4   2.0000      -1.358920       -36.9781 
   5   2.0000      -1.345959       -36.6254 
   6   2.0000      -0.993445       -27.0330 
   7   2.0000      -0.826340       -22.4859 
   8   2.0000      -0.711009       -19.3476 
   9   2.0000      -0.662062       -18.0156 
  10   2.0000      -0.658680       -17.9236 
  11   2.0000      -0.572193       -15.5702 
  12   2.0000      -0.571106       -15.5406 
  13   2.0000      -0.529108       -14.3978 
  14   2.0000      -0.475065       -12.9272 
  15   2.0000      -0.448914       -12.2156 
  16   2.0000      -0.436362       -11.8740 
  17   0.0000       0.183000         4.9797 
  18   0.0000       0.189793         5.1645 
  19   0.0000       0.240790         6.5522 
  20   0.0000       0.242539         6.5998 
  21   0.0000       0.249876         6.7995 
  22   0.0000       0.302098         8.2205 
  23   0.0000       0.356896         9.7116 
  24   0.0000       0.418026        11.3751 
  25   0.0000       0.434705        11.8289 
  26   0.0000       0.620726        16.8908 
  27   0.0000       0.638382        17.3713 
  28   0.0000       0.728034        19.8108 
  29   0.0000       0.767525        20.8854 
  30   0.0000       0.780310        21.2333 
  31   0.0000       0.818570        22.2744 
  32   0.0000       0.845141        22.9975 
  33   0.0000       0.862354        23.4658 
  34   0.0000       0.866713        23.5845 
  35   0.0000       0.879015        23.9192 
  36   0.0000       0.893819        24.3221 
  37   0.0000       0.917087        24.9552 
  38   0.0000       1.121637        30.5213 
  39   0.0000       1.130916        30.7738 
  40   0.0000       1.174075        31.9482 
  41   0.0000       1.222916        33.2772 
  42   0.0000       1.288992        35.0752 
  43   0.0000       1.314946        35.7815 
  44   0.0000       1.331152        36.2225 
  45   0.0000       1.405862        38.2555 
  46   0.0000       1.475454        40.1491 
  47   0.0000       1.487224        40.4694 
  48   0.0000       1.547844        42.1190 
  49   0.0000       1.580927        43.0192 
  50   0.0000       1.593620        43.3646 
  51   0.0000       1.604243        43.6537 
  52   0.0000       1.744883        47.4807 
  53   0.0000       1.852234        50.4019 
  54   0.0000       1.865729        50.7691 
  55   0.0000       1.872640        50.9571 
  56   0.0000       1.905474        51.8506 
  57   0.0000       1.923464        52.3401 
  58   0.0000       1.941303        52.8255 
  59   0.0000       1.984556        54.0025 
  60   0.0000       2.005906        54.5835 
  61   0.0000       2.054244        55.8988 
  62   0.0000       2.068003        56.2732 
  63   0.0000       2.169113        59.0246 
  64   0.0000       2.195735        59.7490 
  65   0.0000       2.256826        61.4114 
  66   0.0000       2.316447        63.0337 
  67   0.0000       2.352502        64.0148 
  68   0.0000       2.455756        66.8245 
  69   0.0000       2.497486        67.9600 
  70   0.0000       2.582175        70.2645 
  71   0.0000       2.643192        71.9249 
  72   0.0000       2.739776        74.5531 
  73   0.0000       2.742903        74.6382 
  74   0.0000       2.821875        76.7871 
  75   0.0000       2.858300        77.7783 
  76   0.0000       3.271967        89.0348 
  77   0.0000       3.353940        91.2654 
  78   0.0000       3.356600        91.3377 
  79   0.0000       3.361488        91.4707 
  80   0.0000       3.451792        93.9280 
  81   0.0000       3.501979        95.2937 
  82   0.0000       3.599089        97.9362 
  83   0.0000       3.609194        98.2112 
  84   0.0000       4.094850       111.4265 
  85   0.0000       4.132333       112.4465 

                    ********************************
                    * MULLIKEN POPULATION ANALYSIS *
                    ********************************

-----------------------
MULLIKEN ATOMIC CHARGES
-----------------------
   0 C :    0.173790
   1 O :   -0.396679
   2 C :    0.173792
   3 O :   -0.396672
   4 H :    0.026726
   5 H :    0.026734
   6 H :    0.026725
   7 H :    0.026732
   8 H :    0.169428
   9 H :    0.169425
Sum of atomic charges:    0.0000000

--------------------------------
MULLIKEN REDUCED ORBITAL CHARGES
--------------------------------
  0 C s       :     3.025707  s :     3.025707
      pz      :     0.997338  p :     2.675106
      px      :     0.754713
      py      :     0.923056
      dz2     :     0.018120  d :     0.125397
      dxz     :     0.017171
      dyz     :     0.030051
      dx2y2   :     0.021878
      dxy     :     0.038178
  1 O s       :     3.726551  s :     3.726551
      pz      :     1.925632  p :     4.656045
      px      :     1.177130
      py      :     1.553283
      dz2     :     0.002347  d :     0.014082
      dxz     :     0.000776
      dyz     :     0.001275
      dx2y2   :     0.001254
      dxy     :     0.008431
  2 C s       :     3.025704  s :     3.025704
      pz      :     0.997339  p :     2.675106
      px      :     0.754707
      py      :     0.923059
      dz2     :     0.018119  d :     0.125398
      dxz     :     0.017171
      dyz     :     0.030051
      dx2y2   :     0.021879
      dxy     :     0.038178
  3 O s       :     3.726544  s :     3.726544
      pz      :     1.925630  p :     4.656045
      px      :     1.177127
      py      :     1.553288
      dz2     :     0.002347  d :     0.014082
      dxz     :     0.000776
      dyz     :     0.001275
      dx2y2   :     0.001254
      dxy     :     0.008431
  4 H s       :     0.944690  s :     0.944690
      pz      :     0.015959  p :     0.028584
      px      :     0.002625
      py      :     0.010001
  5 H s       :     0.944681  s :     0.944681
      pz      :     0.015956  p :     0.028584
      px      :     0.002625
      py      :     0.010004
  6 H s       :     0.944690  s :     0.944690
      pz      :     0.015957  p :     0.028585
      px      :     0.002625
      py      :     0.010003
  7 H s       :     0.944685  s :     0.944685
      pz      :     0.015957  p :     0.028584
      px      :     0.002625
      py      :     0.010002
  8 H s       :     0.749431  s :     0.749431
      pz      :     0.021205  p :     0.081141
      px      :     0.034224
      py      :     0.025711
  9 H s       :     0.749433  s :     0.749433
      pz      :     0.021206  p :     0.081142
      px      :     0.034225
      py      :     0.025712


                     *******************************
                     * LOEWDIN POPULATION ANALYSIS *
                     *******************************

----------------------
LOEWDIN ATOMIC CHARGES
----------------------
   0 C :    0.018800
   1 O :   -0.087373
   2 C :    0.018795
   3 O :   -0.087364
   4 H :    0.009349
   5 H :    0.009353
   6 H :    0.009350
   7 H :    0.009351
   8 H :    0.049872
   9 H :    0.049867

-------------------------------
LOEWDIN REDUCED ORBITAL CHARGES
-------------------------------
  0 C s       :     2.809866  s :     2.809866
      pz      :     1.052817  p :     2.874494
      px      :     0.839305
      py      :     0.982372
      dz2     :     0.042004  d :     0.296840
      dxz     :     0.040018
      dyz     :     0.079940
      dx2y2   :     0.045970
      dxy     :     0.088907
  1 O s       :     3.400216  s :     3.400216
      pz      :     1.857057  p :     4.662172
      px      :     1.222559
      py      :     1.582556
      dz2     :     0.003999  d :     0.024985
      dxz     :     0.001553
      dyz     :     0.001066
      dx2y2   :     0.002717
      dxy     :     0.015650
  2 C s       :     2.809864  s :     2.809864
      pz      :     1.052818  p :     2.874497
      px      :     0.839304
      py      :     0.982376
      dz2     :     0.042004  d :     0.296844
      dxz     :     0.040021
      dyz     :     0.079940
      dx2y2   :     0.045972
      dxy     :     0.088908
  3 O s       :     3.400206  s :     3.400206
      pz      :     1.857053  p :     4.662173
      px      :     1.222559
      py      :     1.582561
      dz2     :     0.003999  d :     0.024986
      dxz     :     0.001554
      dyz     :     0.001066
      dx2y2   :     0.002717
      dxy     :     0.015650
  4 H s       :     0.914045  s :     0.914045
      pz      :     0.038225  p :     0.076606
      px      :     0.012052
      py      :     0.026330
  5 H s       :     0.914041  s :     0.914041
      pz      :     0.038218  p :     0.076606
      px      :     0.012052
      py      :     0.026336
  6 H s       :     0.914043  s :     0.914043
      pz      :     0.038221  p :     0.076607
      px      :     0.012052
      py      :     0.026334
  7 H s       :     0.914043  s :     0.914043
      pz      :     0.038221  p :     0.076606
      px      :     0.012052
      py      :     0.026332
  8 H s       :     0.742301  s :     0.742301
      pz      :     0.060611  p :     0.207828
      px      :     0.074735
      py      :     0.072482
  9 H s       :     0.742301  s :     0.742301
      pz      :     0.060613  p :     0.207832
      px      :     0.074735
      py      :     0.072484


                      *****************************
                      * MAYER POPULATION ANALYSIS *
                      *****************************

  NA   - Mulliken gross atomic population
  ZA   - Total nuclear charge
  QA   - Mulliken gross atomic charge
  VA   - Mayer's total valence
  BVA  - Mayer's bonded valence
  FA   - Mayer's free valence

  ATOM       NA         ZA         QA         VA         BVA        FA
  0 C      5.8262     6.0000     0.1738     3.9986     3.9986     0.0000
  1 O      8.3967     8.0000    -0.3967     1.9999     1.9999     0.0000
  2 C      5.8262     6.0000     0.1738     3.9986     3.9986     0.0000
  3 O      8.3967     8.0000    -0.3967     1.9999     1.9999     0.0000
  4 H      0.9733     1.0000     0.0267     0.9657     0.9657     0.0000
  5 H      0.9733     1.0000     0.0267     0.9657     0.9657    -0.0000
  6 H      0.9733     1.0000     0.0267     0.9657     0.9657     0.0000
  7 H      0.9733     1.0000     0.0267     0.9657     0.9657     0.0000
  8 H      0.8306     1.0000     0.1694     1.0189     1.0189     0.0000
  9 H      0.8306     1.0000     0.1694     1.0189     1.0189     0.0000

  Mayer bond orders larger than 0.1
B(  0-C ,  1-O ) :   0.9967 B(  0-C ,  2-C ) :   1.0618 B(  0-C ,  4-H ) :   0.9670 
B(  0-C ,  5-H ) :   0.9670 B(  1-O ,  8-H ) :   0.9973 B(  2-C ,  3-O ) :   0.9967 
B(  2-C ,  6-H ) :   0.9670 B(  2-C ,  7-H ) :   0.9670 B(  3-O ,  9-H ) :   0.9973 


-------
TIMINGS
-------

Total SCF time: 0 days 0 hours 0 min 29 sec 

Total time                  ....      29.497 sec
Sum of individual times     ....      29.318 sec  ( 99.4%)

Fock matrix formation       ....      29.289 sec  ( 99.3%)
Diagonalization             ....       0.004 sec  (  0.0%)
Density matrix formation    ....       0.001 sec  (  0.0%)
Population analysis         ....       0.005 sec  (  0.0%)
Initial guess               ....       0.017 sec  (  0.1%)
Orbital Transformation      ....       0.000 sec  (  0.0%)
Orbital Orthonormalization  ....       0.000 sec  (  0.0%)
DIIS solution               ....       0.000 sec  (  0.0%)
SOSCF solution              ....       0.003 sec  (  0.0%)


           ************************************************************
           *        Program running with 4 parallel MPI-processes     *
           *              working on a common directory               *
           ************************************************************


------------------------------------------------------------------------------- 
                              ORCA-MATRIX DRIVEN CI                            
------------------------------------------------------------------------------- 


Wavefunction type
-----------------
Correlation treatment                      ...      CCSD     
Single excitations                         ... ON
Orbital optimization                       ... OFF
Calculation of Z vector                    ... OFF
Calculation of Brueckner orbitals          ... OFF
Perturbative triple excitations            ... ON
Calculation of F12 correction              ... OFF
Frozen core treatment                      ... chemical core (8 el)
Reference Wavefunction                     ... RHF
  Internal Orbitals:     4 ...   16 ( 13 MO's/ 26 electrons)
  Virtual  Orbitals:    17 ...   85 ( 69 MO's              )
Number of AO's                             ...     86
Number of electrons                        ...     34
Number of correlated electrons             ...     26

Algorithmic settings
--------------------
Integral transformation                    ... All integrals via the RI transformation
K(C) Formation                             ... RI-DLPNO
   PNO-Integral Storage                    ... ON DISK
   PNO occupation number cut-off           ... 1.000e-07
   Singles PNO occupation number cut-off   ... 3.000e-09
   PNO Mulliken prescreening cut-off       ... 1.000e-03
   Domain cut-off (Mulliken population)    ... 1.000e-03
   PNO Normalization                       ...    1
Maximum number of iterations               ...        50
Convergence tolerance (max. residuum)      ... 1.000e-05
Level shift for amplitude update           ... 2.000e-01
Maximum number of DIIS vectors             ...         7
DIIS turned on at iteration                ...         0
Damping before turning on DIIS             ...     0.500
Damping after turning on DIIS              ...     0.000
Pair specific amplitude update             ... OFF
Natural orbital iterations                 ... OFF
Perturbative natural orbital generation    ... OFF
Printlevel                                 ... 2

Singles Fock matrix elements calculated using PNOs.

Memory handling:
----------------
Maximum memory for working arrays          ...   8000 MB
Data storage in matrix containers          ... UNCOMPRESSED
Data type for integral storage             ... DOUBLE
In-Core Storage of quantities:
   Amplitudes+Sigma Vector      ... NO
   J+K operators                ... NO
   DIIS vectors                 ... NO
   3-external integrals         ... NO
   4-external integrals         ... NO

Localization treatment:
-----------------------
Localization option                        ...    6
Localization threshhold                    ... -1.0e+00
Using relative localization threshhold     ... 1.0e-08
Neglect threshold for strong pairs         ... 1.000e-05 Eh
Prescreening threshold for very weak pairs ... 1.000e-07 Eh

Initializing the integral package          ... done
Localizing the valence orbitals
------------------------------------------------------------------------------
                           ORCA ORBITAL LOCALIZATION
------------------------------------------------------------------------------

Input orbitals are from                  ... 1_2_ethanediol_a_a_a.proc0.gbw
Output orbitals are to                   ... 1_2_ethanediol_a_a_a.proc0.loc
Max. number of iterations                ... 128
Localizations seeded randomly            ... off
Convergence tolerance                    ... 1.000e-06
Using relative localization threshhold   ... 1.000e-08
Treshold for strong local MOs            ... 9.500e-01
Treshold for bond MOs                    ... 8.500e-01
Operator                                 ... 0
Orbital range for localization           ... 4 to 16
Localization criterion                   ... FOSTER-BOYS (AUGMENTED HESSIAN)
Doing the dipole integrals     ... o.k.
Initial value of the localization sum :   103.227767
ITERATION   0 : L=  115.7833169138 DL=  1.26e+01 (AVERGE_DL)=    0.4012089138 
ITERATION   1 : L=  117.6644276365 DL=  1.88e+00 (AVERGE_DL)=    0.1552958600 
ITERATION   2 : L=  117.7494992218 DL=  8.51e-02 (AVERGE_DL)=    0.0330251624 
ITERATION   3 : L=  117.7510157350 DL=  1.52e-03 (AVERGE_DL)=    0.0044093623 
ITERATION   4 : L=  117.7510346435 DL=  1.89e-05 (AVERGE_DL)=    0.0004923592 
ITERATION   5 : L=  117.7510349840 DL=  3.40e-07 (AVERGE_DL)=    0.0000660680 
LOCALIZATION SUM CONVERGED

------------------------------------------------------
AUGMENTED HESSIAN OPTIMIZATION OF FOSTER-BOYS ORBITALS
------------------------------------------------------

Spin operator:           0
Orbital window:          4 to 16
Number of iterations:    128
Gradient tolerance:      1.000e-06
Number of pairs:         78
Davidson threshold:      2000
Diagonalization method:  LAPACK
Iter:    0   L: 117.7510349840   Grad. norm: 6.281315e-04
   *** Likely close to a maximum now. ***
       Augmented Hessian eigenvalues:  1.43e-08 -1.38e+00 -1.38e+00 -3.63e+00 ... 
Iter:    1   L: 117.7510349912   Grad. norm: 4.201550e-09
LOCALIZATION HAS CONVERGED.

Eigenvalues of the Hessian:
  0 -1.383e+00
  1 -1.383e+00
  2 -3.625e+00
  3 -3.625e+00
  4 -5.246e+00
  5 -5.246e+00
  6 -5.589e+00
  7 -5.589e+00
  8 -7.581e+00
  9 -7.581e+00
    ...


------------------------------------------------------------------------------- 
                    LOCALIZED MOLECULAR ORBITAL COMPOSITIONS                   
------------------------------------------------------------------------------- 

The Mulliken populations for each LMO on each atom are computed
The LMO`s will be ordered according to atom index and type
  (A) Strongly localized MO`s have populations of >=0.950 on one atom
  (B) Two center bond orbitals have populations of >=0.850 on two atoms
  (C) Other MO`s are considered to be `delocalized`

FOUND  -   4 strongly local MO`s
       -   9 two center bond MO`s
       -   0 significantly delocalized MO`s

Rather strongly localized orbitals:
MO   7:   3O  -   0.987471
MO   6:   3O  -   0.987467
MO   5:   1O  -   0.987471
MO   4:   1O  -   0.987469
Bond-like localized orbitals:
MO  16:   9H  -   0.415843  and   3O  -   0.584340
MO  15:   8H  -   0.415842  and   1O  -   0.584341
MO  14:   7H  -   0.506545  and   2C  -   0.511307
MO  13:   6H  -   0.506553  and   2C  -   0.511298
MO  12:   5H  -   0.506546  and   0C  -   0.511306
MO  11:   4H  -   0.506550  and   0C  -   0.511300
MO  10:   3O  -   0.662760  and   2C  -   0.349434
MO   9:   2C  -   0.522822  and   0C  -   0.522824
MO   8:   1O  -   0.662760  and   0C  -   0.349434
Localized MO's were stored in: 1_2_ethanediol_a_a_a.proc0.loc

Localizing the core orbitals
------------------------------------------------------------------------------
                           ORCA ORBITAL LOCALIZATION
------------------------------------------------------------------------------

Input orbitals are from                  ... 1_2_ethanediol_a_a_a.proc0.loc
Output orbitals are to                   ... 1_2_ethanediol_a_a_a.proc0.loc
Max. number of iterations                ... 128
Localizations seeded randomly            ... off
Convergence tolerance                    ... 1.000e-06
Using relative localization threshhold   ... 1.000e-08
Treshold for strong local MOs            ... 9.500e-01
Treshold for bond MOs                    ... 8.500e-01
Operator                                 ... 0
Orbital range for localization           ... 0 to 3
Localization criterion                   ... FOSTER-BOYS (AUGMENTED HESSIAN)
Doing the dipole integrals     ... o.k.
Initial value of the localization sum :    27.355383
ITERATION   0 : L=   27.3553837184 DL=  1.09e-06 (AVERGE_DL)=    0.0004263929 
ITERATION   1 : L=   27.3553837184 DL=  0.00e+00 (AVERGE_DL)=    0.0000000000 
LOCALIZATION SUM CONVERGED

------------------------------------------------------
AUGMENTED HESSIAN OPTIMIZATION OF FOSTER-BOYS ORBITALS
------------------------------------------------------

Spin operator:           0
Orbital window:          0 to 3
Number of iterations:    128
Gradient tolerance:      1.000e-06
Number of pairs:         6
Davidson threshold:      2000
Diagonalization method:  LAPACK
Iter:    0   L: 27.3553837184   Grad. norm: 7.918758e-07
   *** Likely close to a maximum now. ***
       Augmented Hessian eigenvalues:  8.22e-15 -2.91e+01 -2.91e+01 -3.30e+01 ... 
Iter:    1   L: 27.3553837184   Grad. norm: 7.475721e-21
LOCALIZATION HAS CONVERGED.

Eigenvalues of the Hessian:
  0 -2.912e+01
  1 -2.913e+01
  2 -3.303e+01
  3 -8.030e+01
  4 -8.030e+01
  5 -1.858e+02


------------------------------------------------------------------------------- 
                    LOCALIZED MOLECULAR ORBITAL COMPOSITIONS                   
------------------------------------------------------------------------------- 

The Mulliken populations for each LMO on each atom are computed
The LMO`s will be ordered according to atom index and type
  (A) Strongly localized MO`s have populations of >=0.950 on one atom
  (B) Two center bond orbitals have populations of >=0.850 on two atoms
  (C) Other MO`s are considered to be `delocalized`

FOUND  -   4 strongly local MO`s
       -   0 two center bond MO`s
       -   0 significantly delocalized MO`s

Rather strongly localized orbitals:
MO   3:   3O  -   0.999818
MO   2:   2C  -   0.999552
MO   1:   1O  -   0.999818
MO   0:   0C  -   0.999552
Localized MO's were stored in: 1_2_ethanediol_a_a_a.proc0.loc

Warning: internal orbitals are localized - no re-canonicalization of internal orbitals

--------------------------
CLOSED-SHELL FOCK OPERATOR
--------------------------

RI-JK section for the Fock operator:
  RHF full Fock operator         ... done
  RHF frozen core Fock operator  ... done
Time needed for Fock operator              ...            0.555 sec
Reference energy                           ...   -228.948084676

--------------
DLPNO SETTINGS (2015 fully linear scaling implementation)
--------------

TCutMKN:           1.000e-03
TCutPAO:           1.000e-03
TCutPNO:           1.000e-07
TCutPNOSingles:    3.000e-09
TCutEN:            9.700e-01
TCutPAOExt:        1.000e-01
TCutPairs:         1.000e-05
TCutPre:           1.000e-07
TCutOSV:           1.000e-06
TCutDOij:          1.000e-05
TCutDO:            5.000e-03
TCutC:             1.000e-04
TCutCPAO:          1.000e-03
TCutCMO:           1.000e-03
TScaleDOMP2PreScr: 2.000e+00
TScaleMKNMP2PreScr:1.000e+01
TScalePNOMP2PreScr:1.000e+00
PAO overlap thresh 1.000e-08
Using PNOs for Singles Fock computation
Use new domains
Use fully linear algorithm
TCutTNO:           1.000e-09
TCutMP2Pairs:      1.000e-06
TCutDOStrong:      2.000e-03
TCutMKNStrong:     1.000e-02
TCutMKNWeak:       1.000e-01
TCutDOWeak:        4.000e-03
NTCutTNO:          1

--------------------------
Calculating differential overlap integrals ... ok
--------------------------
ELECTRON PAIR PRESCREENING
--------------------------

Dipole-based pair screening          .... used

   TCutDOij = 1.000000e-05
   TCutPre  = 1.000000e-07
   .... Finished loop over pairs
Total time spent in the prescreening                  ...     0.000 sec
sum of pair energies estimated for screened out pairs ...       0.000000000000 Eh
Thresholds for map construction and integral transformation for crude MP2:
   TCutMKN                    ...     1.0e-02
   TCutDO                     ...     1.0e-02
   TCutPairs                  ...     1.0e-05
   TCutPNO_CrudeMP2           ...     1.0e-07
   TCutPNOSingles_CrudeMP2    ...     3.0e-09
--------------------------------
LOCAL RI TRANSFORMATION (IAVPAO)
--------------------------------

Orbital window:       4 to 16
Number of PAOs:      86
Basis functions:     86 (42 shells)
Aux. functions:     308 (108 shells)

Processing maps (0.0 sec)
Average map sizes:
   Aux shells -> MOs              13.0
   Aux shells -> PAOs             86.0
   MOs        -> AO shells        41.5
   PAOs       -> AO shells        42.0

Calculating integrals (0.2 sec, 2.631 MB)
Sorting integrals (0.0 sec, 2.627 MB)
Total time for the integral transformation: 0.2 sec
--------------------------------
INITIAL GUESS AND PNO GENERATION
--------------------------------

PNO truncation parameters                   .... 
    PAOOverlapThresh   =        1.000e-08

    TCutPairs          =        1.000e-05
    TCutPNO            =        1.000e-07
    TCutPNOSingles     =        3.000e-09
    TCutMP2Pairs       =        1.000e-06
    TCutMKN            =        1.000e-02
    TCutDO             =        1.000e-02

Pair selection                          .... not used
Type of local MP2 treatment                 .... semi-local MP2
Strategy for PNO selection                  .... occupation number selection
Pair density normalization                  .... MP2 norm
Spin component scaling                      .... not used

   .... Finished loop over pairs
Making pair pair interaction lists          ... done

                       ===========================
                         91 OF   91 PAIRS ARE KEPT CCSD PAIRS
                          0 OF   91 PAIRS ARE KEPT MP2 PAIRS FOR (T)
                          0 OF   91 PAIRS ARE SKIPPED
                       ===========================

Total time spent in the initial guess                 ...     0.086 sec
SL-MP2 correlation energy (all non-screened pairs)    ...      -0.635267658268 Eh

Initial PNO correlation energy                        ...      -0.635104777489 Eh
sum of pair energies prescreened and skipped MP2 pairs...       0.000000000000 Eh
sum of pair energies of crude MP2 skipped pairs only  ...       0.000000000000 Eh
sum of MP2 pair energies for pairs that were not kept ...       0.000000000000 Eh
sum of PNO error estimates for the kept pairs         ...      -0.000162880778 Eh
                                                          --------------------
sum of all corrections                                         -0.000162880778
Initial total correlation energy                               -0.635267658268
Thresholds for map construction and integral transformation for fine MP2 and CCSD(T) calculation:
   TCutMKN   ...     1.0e-03
   TCutDO    ...     5.0e-03
   TCutPairs ...     1.0e-05
   TCutCMO   ...     1.0e-03
   TCutCPAO  ...     1.0e-03

Thresholds for map construction and integral transformation for strong Triples:
   TCutMKN   ...     1.0e-02
   TCutDO    ...     1.0e-02
   TCutCMO   ...     1.0e-03
   TCutCPAO  ...     1.0e-03

Thresholds for map construction and integral transformation for weak Triples:
   TCutMKN   ...     1.0e-01
   TCutDO    ...     2.0e-02
   TCutCMO   ...     1.0e-03
   TCutCPAO  ...     1.0e-03

--------------------------------
LOCAL RI TRANSFORMATION (IAVPAO)
--------------------------------

Orbital window:       4 to 16
Number of PAOs:      86
Basis functions:     86 (42 shells)
Aux. functions:     308 (108 shells)

Processing maps (0.0 sec)
Average map sizes:
   Aux shells -> MOs              13.0
   Aux shells -> PAOs             86.0
   MOs        -> AO shells        41.5
   PAOs       -> AO shells        42.0

Calculating integrals (0.2 sec, 2.631 MB)
Sorting integrals (0.0 sec, 2.627 MB)
Total time for the integral transformation: 0.2 sec
--------------------------------
INITIAL GUESS AND PNO GENERATION
--------------------------------

PNO truncation parameters                   .... 
    ScaleTCutPNO       =        1.000e-02
    PAOOverlapThresh   =        1.000e-08

    TCutPairs          =        1.000e-05
    TCutPNO            =        1.000e-07
    TCutPNOSingles     =        3.000e-09
    TCutMP2Pairs       =        1.000e-06
    TCutMKN            =        1.000e-03
    TCutDO             =        5.000e-03

Pair selection                          .... not used
Type of local MP2 treatment                 .... full local PMP2
Strategy for PNO selection                  .... occupation number selection
Pair density normalization                  .... MP2 norm
Spin component scaling                      .... not used

PASS-1: Formation of initial guess LMP2 amplitudes
Initial amplitudes guess done. Entering LMP2 iteration loop:
   Max. no of iterations          ...  50
   Energy convergence tolerance   ...    1.0e-07
   Residual convergence tolerance ...    5.0e-07
   Fock matrix cutoff             ...    1.0e-05 Eh
   DIIS convergence acceleration parameters:
        Max # vectors in DIIS     ... 7
        Start iteration of DIIS   ... 0
        Levelshift                ... 2.000e-01
        Damping factor 1          ... 5.000e-01
        Damping factor 2          ... 1.000e+00
   L-MP2 PNO cut-off              ...   1.0e-09
   L-MP2 PNO cut-off (core)       ...   1.0e-11
                           *** Turning on DIIS ***
LMP2-Iter=   0:  ELMP2= -0.650239707154  DE=   1.5e-02 RMAX=   5.5e-03
LMP2-Iter=   1:  ELMP2= -0.657514311819  DE=   7.3e-03 RMAX=   3.3e-03
LMP2-Iter=   2:  ELMP2= -0.658589552542  DE=   1.1e-03 RMAX=   5.6e-04
LMP2-Iter=   3:  ELMP2= -0.658709256028  DE=   1.2e-04 RMAX=   1.9e-04
LMP2-Iter=   4:  ELMP2= -0.658717217395  DE=   8.0e-06 RMAX=   2.5e-05
LMP2-Iter=   5:  ELMP2= -0.658716697813  DE=   5.2e-07 RMAX=   8.3e-06
LMP2-Iter=   6:  ELMP2= -0.658716584847  DE=   1.1e-07 RMAX=   8.6e-07
LMP2-Iter=   7:  ELMP2= -0.658716566752  DE=   1.8e-08 RMAX=   2.4e-07
LMP2-Iter=   8:  ELMP2= -0.658716573835  DE=   7.1e-09 RMAX=   2.5e-08 => CONVERGED
PASS-2: Formation of Pair natural orbitals
   .... Finished loop over pairs

 PNO Occupation Number Statistics: 
  | Av. % of trace(Dij) retained        ...  99.603507530107
  | sigma^2 in % of trace(Dij) retained ...   6.41e-01
  | Av. % of trace(Di) retained         ...  99.999898487164
  | sigma^2 in % of trace(Di) retained  ...   7.50e-10
 Distributions of % trace(Dij) recovered:
  |       >= 99.9  ...    59 ( 64.8 % of all pairs)
  |   [90.0, 99.0) ...     9 (  9.9 % of all pairs)
  |   [99.0, 99.9) ...    23 ( 25.3 % of all pairs)
 Distributions of % trace(Di) recovered :
  |       >= 99.9  ...    13 (100.0 % of all I-pairs )

Making pair pair interaction lists          ... done

                       ===========================
                         91 OF   91 PAIRS ARE KEPT
                       ===========================

Total time spent in the initial guess                 ...     0.754 sec
L-MP2 correlation energy (all non-screened pairs)     ...      -0.658716573835 Eh
L-MP2 PNO error correction                            ...      -0.000001647711 Eh
                                                          --------------------
Initial total L-MP2 energy (non-screened pairs)       ...      -0.658718221545 Eh

Initial PNO correlation energy                        ...      -0.658566246419 Eh
sum of pair energies estimated for screened out pairs ...       0.000000000000 Eh
sum of MP2 pair energies for pairs that were not kept ...       0.000000000000 Eh
sum of PNO error estimates for the kept pairs         ...      -0.000151975127 Eh
                                                          --------------------
sum of all corrections                                         -0.000151975127
Initial total correlation energy                               -0.658718221545
Thresholds for map construction and integral transformation for fine MP2 and CCSD(T) calculation:
   TCutMKN   ...     1.0e-03
   TCutDO    ...     5.0e-03
   TCutPairs ...     1.0e-05
   TCutCMO   ...     1.0e-03
   TCutCPAO  ...     1.0e-03

Time for aux screen maps:            0.001
Time for maps after fine MP2:            0.002
-----------------------------
LOCAL RI TRANSFORMATION (IJV)
-----------------------------

Orbital window:       4 to 16
Basis functions:     86 (42 shells)
Aux. functions:     308 (108 shells)

Processing maps (0.0 sec)
Average map sizes:
   Aux shells -> MOs(i)           13.0
   Aux shells -> MOs(j)           13.0
   MOs        -> AO shells        41.5

Calculating integrals (0.2 sec, 0.401 MB)
Sorting integrals (0.0 sec, 0.397 MB)
Total time for the integral transformation: 0.2 sec
--------------------------------
LOCAL RI TRANSFORMATION (VABPAO)
--------------------------------

Number of PAOs:      86
Basis functions:     86 (42 shells)
Aux. functions:     308 (108 shells)

Processing maps (0.0 sec)
Average map sizes:
   Aux shells -> PAOs             86.0
   PAOs       -> AO shells        42.0

Calculating integrals (0.3 sec, 30.872 MB)
Finished


-------------------------------------
Pair Pair Term precalculation with     
RI-(ij|mn) and (im|jn) transformation  
ON THE FLY                             
-------------------------------------

   IBatch   1 (of   1)              ... done (    2.491 sec)
Total EXT                           ...           2.491 sec

---------------------
RI-PNO TRANSFORMATION
---------------------

Total Number of PNOs                   ...  2348
Average number of PNOs per pair        ...    25
Maximal number of PNOs per pair        ...    38
   #pairs with  1 -  5 PNOs   :    0
   #pairs with  6 - 10 PNOs   :    4
   #pairs with 11 - 15 PNOs   :    4
   #pairs with 16 - 20 PNOs   :   15
   #pairs with 21 - 25 PNOs   :   20
   #pairs with 26 - 30 PNOs   :   17
   #pairs with 31 - 35 PNOs   :   24
   #pairs with 36 - 40 PNOs   :    7
   #pairs with 41 - 45 PNOs   :    0
   #pairs with 46 - 50 PNOs   :    0

Generation of (ij|ab)[P] integrals            ... on
Generation of (ia|bc)[P],(ja|bc)[P] integrals ... on
Storage of 3 and 4 external integrals         ... on
Generation of ALL (ka|bc)[P] integrals        ... on
Keep RI integrals in memory                   ... off

Ibatch:  1 (of  1)
Starting 2-4 index PNO integral generation ... done

Timings:
Total PNO integral transformation time     ...          0.849 sec
Size of the 3-external file                ...        15 MB
Size of the 4-external file                ...        58 MB
Size of the IKJL file                      ...         0 MB
Size of the all 3-external file            ...        97 MB
Size of the 1-external file                ...         0 MB

Making pair/pair overlap matrices          ... done (    0.114 sec)
Size of the pair overlap file              ... 30 MB
Redoing the guess amplitudes               ... done (    0.001 sec)

-------------------------
FINAL STARTUP INFORMATION
-------------------------

E(0)                                       ...   -228.948084676
E(L-MP2)                                   ...     -0.658718222
E(L-MP2) including corrections             ...     -0.658718222
Initial E(tot)                             ...   -229.606802897
<T|T>                                      ...      0.171771405
Number of pairs included                   ... 91
Total number of pairs                      ... 91

------------------------------------------------
                  RHF COUPLED CLUSTER ITERATIONS
------------------------------------------------

Number of PNO amplitudes to be optimized   ...        65238
Number of non-PNO amplitudes               ...       433251
Untruncated number of regular amplitudes   ...       433251

Iter       E(tot)           E(Corr)          Delta-E          Residual     Time
  0   -229.583464436     -0.635227785      0.023490436      0.017071852    0.75
                           *** Turning on DIIS ***
  1   -229.622033015     -0.673796365     -0.038568579      0.008756899    0.75
  2   -229.642040008     -0.693803357     -0.020006992      0.002047541    0.74
  3   -229.645136270     -0.696899619     -0.003096262      0.001349121    0.75
  4   -229.645943226     -0.697706575     -0.000806956      0.000321365    0.74
  5   -229.646110778     -0.697874127     -0.000167552      0.000147203    0.75
  6   -229.646138655     -0.697902004     -0.000027877      0.000062273    0.76
  7   -229.646143722     -0.697907071     -0.000005067      0.000030037    0.77
  8   -229.646145294     -0.697908643     -0.000001572      0.000011188    0.76
  9   -229.646145155     -0.697908504      0.000000139      0.000003124    0.76
               --- The Coupled-Cluster iterations have converged ---

----------------------
COUPLED CLUSTER ENERGY
----------------------

E(0)                                       ...   -228.948084676
E(CORR)(strong-pairs)                      ...     -0.697908504
E(CORR)(weak-pairs)                        ...     -0.000151975
E(CORR)(corrected)                         ...     -0.698060479
E(TOT)                                     ...   -229.646145155
Singles Norm <S|S>**1/2                    ...      0.043474519  
T1 diagnostic                              ...      0.008526055  

------------------
LARGEST AMPLITUDES
------------------
   8-> 18   8-> 18       0.041093
  10-> 18  10-> 18       0.041091
  14-> 25  14-> 25       0.037852
  12-> 25  12-> 25       0.037848
  11-> 25  11-> 25       0.037844
  13-> 25  13-> 25       0.037841
  13-> 17  13-> 17       0.036598
  12-> 17  12-> 17       0.036597
  11-> 17  11-> 17       0.036597
  14-> 17  14-> 17       0.036596
   9-> 28   9-> 28       0.034263
  16-> 21  16-> 21       0.033396
  15-> 21  15-> 21       0.033396
  15-> 17  15-> 17       0.033027
  16-> 17  16-> 17       0.033026
  14-> 25  14-> 17       0.030194


-------------------------------------------
DLPNO BASED TRIPLES CORRECTION
-------------------------------------------

Singles multiplier          ...  1.000000
TCutTNO                     ... 1.000e-09
TCutMP2Pairs                ... 1.000e-06
TCutDOStrong                ... 1.000e-02
TCutMKNStrong               ... 1.000e-02
TCutDOWeak                  ... 2.000e-02
TCutMKNWeak                 ... 1.000e-01

Fragment selection                          .... not used
Number of Triples that are to be computed   ...       442

 . . . . . . . . .
10% done  
20% done  
30% done  
40% done  
50% done  
60% done  
70% done  
80% done  
90% done               (      4.274 sec)
Triples timings:
Total time for T0               ...     4.602 sec
Total time for Iterative (T)    ...     0.000 sec
Total time of overall (T)       ...     4.602 sec

Triples List generation         ...     0.000 sec
TNO generation                  ...     0.327 sec
Pair density generation         ...     0.001 sec
Look up tables                  ...     0.000 sec
Generating 3-index integrals    ...     1.689 sec
  Make 4-ind.int. from 3-ind.int...     1.031 sec
  Projecting amplitudes (D + S) ...     0.347 sec
  Downprojecting integrals      ...     0.000 sec
  Energy contr. (sum over a,b,c)...     0.379 sec
Fitting ET(->0)                 ...     0.000 sec

Everything after 3-index        ...     2.584 sec

Timing details:
 TNO integrals                  ...     2.553 sec
   Reading 3-index integrals    ...     0.006 sec
   Sorting integrals            ...     0.588 sec
       Sorting integrals 1      ...     0.000 sec
       Sorting integrals 2      ...     0.130 sec
       Sorting integrals 3      ...     0.036 sec
       Sorting integrals 4      ...     0.004 sec
       Sorting integrals 5      ...     0.010 sec
       Sorting integrals 6      ...     0.409 sec
   Calculating local VM**-1/2   ...     0.036 sec
   Orthogonal. integrals        ...     0.067 sec
   Multipl. 3-index integrals   ...     1.856 sec
   All concerning IRIab (w/TNO) ...     0.467 sec

 Calculate W0/W1                ...     0.824 sec
 W 3-ext contribution           ...     0.466 sec
 W 3-int contribution           ...     0.139 sec
 Sorting W                      ...     0.194 sec

 V exchange contribution        ...     0.158 sec

 Timings for Triples without generation
     of 3-index integrals       ...     2.583 sec
       0 weak pairs             ...     2.583 sec
       1 weak pair              ...     0.000 sec
       2 weak pairs             ...     0.000 sec
       3 weak pairs             ...     0.000 sec
  Extra time for extrapolation  ...     0.000 sec

Number of Triples   (0, 1, 2, 3 weak pairs; overall):    442       0       0       0  (   442)
Number of Atoms     (0, 1, 2, 3 weak pairs; overall):    9.9     0.0     0.0     0.0  (    10)
Number of PAOs      (0, 1, 2, 3 weak pairs; overall):   85.3     0.0     0.0     0.0  (    86)
Number of AuxFcns   (0, 1, 2, 3 weak pairs; overall):  182.1     0.0     0.0     0.0  (   308)
Number of TNOs      (0, 1, 2, 3 weak pairs         ):   51.0     0.0     0.0     0.0
Aver. Number of NTNO, Atoms, PAOs, AuxFcns / Triples:    442    51.0     9.9    85.3   182.1

Triples Correction (T)                     ...     -0.016031246
Final correlation energy                   ...     -0.714091726
E(CCSD)                                    ...   -229.646145155
E(CCSD(T))                                 ...   -229.662176401


Maximum memory used throughout the entire calculation: 930.5 MB


------------------------------------------------------------------------------- 
                                     TIMINGS                                   
------------------------------------------------------------------------------- 


Total execution time                   ...       18.899 sec

Localization of occupied MO's          ...        0.361 sec (  1.9%)
Fock Matrix Formation                  ...        0.555 sec (  2.9%)
Global overlap, Fock, MKN matrices     ...        0.108 sec (  0.6%)
Differential overlap integrals         ...        0.045 sec (  0.2%)
Organizing maps                        ...        0.007 sec (  0.0%)
RI 3-index integral generations        ...        1.012 sec (  5.4%)
RI-PNO integral transformation         ...        3.646 sec ( 19.3%)
Initial Guess                          ...        0.848 sec (  4.5%)
DIIS Solver                            ...        0.188 sec (  1.0%)
State Vector Update                    ...        0.006 sec (  0.0%)
Sigma-vector construction              ...        7.476 sec ( 39.6%)
  <D|H|D>(0-ext)                       ...        0.444 sec (  5.9% of sigma)
  <D|H|D>(2-ext Fock)                  ...        0.005 sec (  0.1% of sigma)
  <D|H|D>(2-ext)                       ...        0.853 sec ( 11.4% of sigma)
  <D|H|D>(4-ext)                       ...        0.728 sec (  9.7% of sigma)
  <D|H|D>(4-ext-corr)                  ...        3.038 sec ( 40.6% of sigma)
  CCSD doubles correction              ...        0.053 sec (  0.7% of sigma)
  <S|H|S>                              ...        0.057 sec (  0.8% of sigma)
  <S|H|D>(1-ext)                       ...        0.076 sec (  1.0% of sigma)
  <D|H|S>(1-ext)                       ...        0.004 sec (  0.0% of sigma)
  <S|H|D>(3-ext)                       ...        0.059 sec (  0.8% of sigma)
  Fock-dressing                        ...        1.189 sec ( 15.9% of sigma)
  Singles amplitudes                   ...        0.059 sec (  0.8% of sigma)
  (ik|jl)-dressing                     ...        0.312 sec (  4.2% of sigma)
  (ij|ab),(ia|jb)-dressing             ...        0.537 sec (  7.2% of sigma)
  Pair energies                        ...        0.002 sec (  0.0% of sigma)
Total Time for computing (T)           ...        4.617 sec ( 24.4% of ALL)


-------------------------   --------------------
FINAL SINGLE POINT ENERGY      -229.662176401363
-------------------------   --------------------


                            ***************************************
                            *     ORCA property calculations      *
                            ***************************************

                                    ---------------------
                                    Active property flags
                                    ---------------------
   (+) Dipole Moment


------------------------------------------------------------------------------
                       ORCA ELECTRIC PROPERTIES CALCULATION
------------------------------------------------------------------------------

Dipole Moment Calculation                       ... on
Quadrupole Moment Calculation                   ... off
Polarizability Calculation                      ... off
GBWName                                         ... 1_2_ethanediol_a_a_a.gbw
Electron density file                           ... 1_2_ethanediol_a_a_a.scfp.tmp
The origin for moment calculation is the CENTER OF MASS  = ( 0.000004, -0.000006 -0.000014)

-------------
DIPOLE MOMENT
-------------
                                X             Y             Z
Electronic contribution:      0.00004       0.00000      -0.00021
Nuclear contribution   :     -0.00005       0.00001       0.00062
                        -----------------------------------------
Total Dipole Moment    :     -0.00000       0.00001       0.00041
                        -----------------------------------------
Magnitude (a.u.)       :      0.00041
Magnitude (Debye)      :      0.00104



--------------------
Rotational spectrum 
--------------------
 
Rotational constants in cm-1:     1.013257     0.132578     0.122699 
Rotational constants in MHz : 30376.687862  3974.584438  3678.436014 

 Dipole components along the rotational axes: 
x,y,z [a.u.] :     0.000003     0.000011     0.000407 
x,y,z [Debye]:     0.000008     0.000029     0.001035 

 

Timings for individual modules:

Sum of individual times         ...       51.602 sec (=   0.860 min)
GTO integral calculation        ...        2.991 sec (=   0.050 min)   5.8 %
SCF iterations                  ...       29.590 sec (=   0.493 min)  57.3 %
MDCI module                     ...       19.021 sec (=   0.317 min)  36.9 %
                             ****ORCA TERMINATED NORMALLY****
TOTAL RUN TIME: 0 days 0 hours 0 minutes 51 seconds 831 msec
1_2_ethanediol_a_a_a.gbw -> /home1/pantazis/klk/VDZ/Oxygen_compounds/1_2_ethanediol_a_a_a.gbw
1_2_ethanediol_a_a_a.ges -> /home1/pantazis/klk/VDZ/Oxygen_compounds/1_2_ethanediol_a_a_a.ges
1_2_ethanediol_a_a_a.job -> /home1/pantazis/klk/VDZ/Oxygen_compounds/1_2_ethanediol_a_a_a.job
1_2_ethanediol_a_a_a.loc -> /home1/pantazis/klk/VDZ/Oxygen_compounds/1_2_ethanediol_a_a_a.loc
1_2_ethanediol_a_a_a.nodes -> /home1/pantazis/klk/VDZ/Oxygen_compounds/1_2_ethanediol_a_a_a.nodes
1_2_ethanediol_a_a_a.prop -> /home1/pantazis/klk/VDZ/Oxygen_compounds/1_2_ethanediol_a_a_a.prop
1_2_ethanediol_a_a_a_property.txt -> /home1/pantazis/klk/VDZ/Oxygen_compounds/1_2_ethanediol_a_a_a_property.txt
1_2_ethanediol_a_a_a.xyz -> /home1/pantazis/klk/VDZ/Oxygen_compounds/1_2_ethanediol_a_a_a.xyz
cp: cannot stat 1_2_ethanediol_a_a_a.asa.inp: No such file or directory
