! Job execution by suborca V 6.07 on ZEUS !
Job started from zeus1, running /scratch/pantazis/1_2_dichloroethane_a__gBbedQ/orca/orca copied from /opt/orca on zeussn151 in /scratch/pantazis/1_2_dichloroethane_a__gBbedQ
Job execution start: Sat Jun 29 11:10:04 CEST 2019
Shared library path: /scratch/pantazis/1_2_dichloroethane_a__gBbedQ/orca:/opt/openmpi_1.10.2/lib:/opt/intel/mkl/lib/intel64:/opt/intel/lib/intel64:
PBS Job ID is: 158769.icqc
izeussn151
izeussn151
izeussn151
izeussn151

                                 *****************
                                 * O   R   C   A *
                                 *****************

           --- An Ab Initio, DFT and Semiempirical electronic structure package ---

                  #######################################################
                  #                        -***-                        #
                  #          Department of theory and spectroscopy      #
                  #               Directorship: Frank Neese             #
                  #        Max Planck Institute fuer Kohlenforschung    #
                  #                Kaiser Wilhelm Platz 1               #
                  #                 D-45470 Muelheim/Ruhr               #
                  #                      Germany                        #
                  #                                                     #
                  #                  All rights reserved                #
                  #                        -***-                        #
                  #######################################################


                         Program Version 4.1.x  -  STABLE  -
                                (SVN: $Rev: 14094$)
                ($Date: 2019-06-14 15:01:15 +0200 (Fri, 14 Jun 2019) $)

                         (BUILD: $Sun Jun 23 06:18:31 CEST 2019$)


 With contributions from (in alphabetic order):
   Daniel Aravena         : Magnetic Properties
   Michael Atanasov       : Ab Initio Ligand Field Theory
   Alexander A. Auer      : GIAO ZORA
   Ute Becker             : Parallelization
   Giovanni Bistoni       : ED, Open-shell LED
   Martin Brehm           : Molecular dynamics
   Dmytro Bykov           : SCF Hessian
   Vijay G. Chilkuri      : MRCI spin determinant printing
   Dipayan Datta          : RHF DLPNO-CCSD density
   Achintya Kumar Dutta   : EOM-CC, STEOM-CC
   Dmitry Ganyushin       : Spin-Orbit,Spin-Spin,Magnetic field MRCI
   Miquel Garcia          : C-PCM Hessian
   Yang Guo               : DLPNO-NEVPT2, CIM, IAO-localization
   Andreas Hansen         : Spin unrestricted coupled pair/coupled cluster methods
   Benjamin Helmich-Paris : CASSCF linear response (MC-RPA)
   Lee Huntington         : MR-EOM, pCC
   Robert Izsak           : Overlap fitted RIJCOSX, COSX-SCS-MP3, EOM
   Christian Kollmar      : KDIIS, OOCD, Brueckner-CCSD(T), CCSD density
   Simone Kossmann        : Meta GGA functionals, TD-DFT gradient, OOMP2, MP2 Hessian
   Martin Krupicka        : AUTO-CI
   Lucas Lang             : DCDCAS
   Dagmar Lenk            : GEPOL surface, SMD
   Dimitrios Liakos       : Extrapolation schemes; parallel MDCI
   Dimitrios Manganas     : ROCIS; embedding schemes
   Dimitrios Pantazis     : SARC Basis sets
   Taras Petrenko         : DFT Hessian,TD-DFT gradient, ASA, ECA, R-Raman, ABS, FL, XAS/XES, NRVS
   Peter Pinski           : DLPNO-MP2, DLPNO-MP2 Gradient
   Christoph Reimann      : Effective Core Potentials
   Marius Retegan         : Local ZFS, SOC
   Christoph Riplinger    : Optimizer, TS searches, QM/MM, DLPNO-CCSD(T), (RO)-DLPNO pert. Triples
   Tobias Risthaus        : Range-separated hybrids, TD-DFT gradient, RPA, STAB
   Michael Roemelt        : Restricted open shell CIS
   Masaaki Saitow         : Open-shell DLPNO
   Barbara Sandhoefer     : DKH picture change effects
   Avijit Sen             : IP-ROCIS
   Kantharuban Sivalingam : CASSCF convergence, NEVPT2, FIC-MRCI
   Bernardo de Souza      : ESD, SOC TD-DFT
   Georgi Stoychev        : AutoAux, RI-MP2 NMR
   Willem Van den Heuvel  : Paramagnetic NMR
   Boris Wezisla          : Elementary symmetry handling
   Frank Wennmohs         : Technical directorship


 We gratefully acknowledge several colleagues who have allowed us to
 interface, adapt or use parts of their codes:
   Stefan Grimme, W. Hujo, H. Kruse,             : VdW corrections, initial TS optimization,
                  C. Bannwarth                     DFT functionals, gCP, sTDA/sTD-DF
   Ed Valeev                                     : LibInt (2-el integral package), F12 methods
   Garnet Chan, S. Sharma, J. Yang, R. Olivares  : DMRG
   Ulf Ekstrom                                   : XCFun DFT Library
   Mihaly Kallay                                 : mrcc  (arbitrary order and MRCC methods)
   Andreas Klamt, Michael Diedenhofen            : otool_cosmo (COSMO solvation model)
   Jiri Pittner, Ondrej Demel                    : Mk-CCSD
   Frank Weinhold                                : gennbo (NPA and NBO analysis)
   Christopher J. Cramer and Donald G. Truhlar   : smd solvation model
   Lars Goerigk                                  : TD-DFT with DH, B97 family of functionals
   V. Asgeirsson, H. Jonsson                     : NEB implementation
   FAccTs GmbH                                   : IRC, NEB, NEB-TS, Multilevel


 Your calculation uses the libint2 library for the computation of 2-el integrals
 For citations please refer to: http://libint.valeyev.net

 This ORCA versions uses:
   CBLAS   interface :  Fast vector & matrix operations
   LAPACKE interface :  Fast linear algebra routines
   SCALAPACK package :  Parallel linear algebra routines




***************************************
The coordinates will be read from file: 1_2_dichloroethane_a.xyz
***************************************


----- Orbital basis set information -----
Your calculation utilizes the basis: cc-pVDZ 
       H, B-Ne : Obtained from the ccRepo (grant-hill.group.shef.ac.uk/ccrepo) Feb. 2017
                 T. H. Dunning, Jr., J. Chem. Phys. 90, 1007 (1989)
            He : Obtained from the ccRepo (grant-hill.group.shef.ac.uk/ccrepo) Feb. 2017
                 D. E. Woon, T. H. Dunning, Jr., J. Chem. Phys. 100, 2975 (1994)
  Li-Be, Na-Mg : Obtained from the ccRepo (grant-hill.group.shef.ac.uk/ccrepo) Feb. 2017
                 B. P. Prascher, D. E. Woon, K. A. Peterson, T. H. Dunning, Jr., A. K. Wilson, Theor. Chem. Acc. 128, 69 (2011)
         Al-Ar : Obtained from the ccRepo (grant-hill.group.shef.ac.uk/ccrepo) Feb. 2017
                 D. E. Woon, T. H. Dunning, Jr., J. Chem. Phys. 98, 1358 (1993)
            Ca : Obtained from the Peterson Research Group Website (tyr0.chem.wsu.edu/~kipeters) Feb. 2017
                 J. Koput, K. A. Peterson, J. Phys. Chem. 106, 9595 (2002)
         Sc-Zn : Obtained from the ccRepo (grant-hill.group.shef.ac.uk/ccrepo) Feb. 2017
                 N. B. Balabanov, K. A. Peterson, J. Chem. Phys. 123, 064107 (2005)
                 N. B. Balabanov, K. A. Peterson, J. Chem. Phys. 125, 074110 (2006)
         Ga-Kr : Obtained from the ccRepo (grant-hill.group.shef.ac.uk/ccrepo) Feb. 2017
                 A. K. Wilson, D. E. Woon, K. A. Peterson, T. H. Dunning, Jr., J. Chem. Phys. 110, 7667 (1999)

----- AuxC basis set information -----
Your calculation utilizes the auxiliary basis: cc-pVDZ/C 
  H-He, B, Ne, Al-Ar, Ga-Br : Obtained from the EMSL Basis Set Exchange (bse.pnl.gov) Feb. 2017
                              F. Weigend, A. Kohn, C. Hattig, J. Chem. Phys. 116, 3175 (2002)
               Li-Be, Na-Mg : Obtained from the EMSL Basis Set Exchange (bse.pnl.gov) Feb. 2017
                              C. Haettig, Phys. Chem. Chem. Phys. 7, 59 (2005)
                        C-F : Obtained from the EMSL Basis Set Exchange (bse.pnl.gov) Feb. 2017
                              C. Haettig, Phys. Chem. Chem. Phys. 7, 59 (2005)
                              F. Weigend, A. Kohn, C. Hattig, J. Chem. Phys. 116, 3175 (2002)
                         Kr : Obtained from the TURBOMOLE 7.0 basis set library
                              F. Weigend, A. Kohn, C. Hattig, J. Chem. Phys. 116, 3175 (2002)
                              S function revised in Sep. 2009

----- AuxJK basis set information -----
Your calculation utilizes the auxiliary basis: cc-pVTZ/JK 
  H, B-F, Al-Cl, Ga-Br : Obtained from the TURBOMOLE 7.0 basis set library

================================================================================
                                        WARNINGS
                       Please study these warnings very carefully!
================================================================================


WARNING: MDCI localization with Augmented Hessian Foster-Boys
  ===> : Switching off randomization!

WARNING: Post HF methods need fully converged wavefunctions
  ===> : Setting SCFConvForced true
         You can overwrite this default with %scf ConvForced false 


INFO   : the flag for use of LIBINT has been found!

================================================================================
                                       INPUT FILE
================================================================================
NAME = 1_2_dichloroethane_a.inp
|  1> ! RHF DLPNO-CCSD(T) cc-pVDZ RIJK cc-pVTZ/JK cc-pVDZ/C
|  2> ! KDIIS SOSCF TightSCF TightPNO
|  3> 
|  4> %pal nprocs 4 end
|  5> 
|  6> %maxcore 8000
|  7> 
|  8> %scf maxiter 300
|  9>      shift shift 0.2 erroff 0.1 end
| 10> end
| 11> 
| 12> * xyzfile 0 1 1_2_dichloroethane_a.xyz 
| 13> 
| 14> 
| 15>                          ****END OF INPUT****
================================================================================

                       ****************************
                       * Single Point Calculation *
                       ****************************

---------------------------------
CARTESIAN COORDINATES (ANGSTROEM)
---------------------------------
  C     -0.490110   -0.579940    0.000020
  Cl    -2.185060    0.070500   -0.000010
  C      0.490100    0.579960    0.000020
  Cl     2.185060   -0.070510   -0.000010
  H     -0.381470   -1.197550   -0.891390
  H     -0.381510   -1.197530    0.891440
  H      0.381500    1.197570   -0.891380
  H      0.381480    1.197580    0.891430

----------------------------
CARTESIAN COORDINATES (A.U.)
----------------------------
  NO LB      ZA    FRAG     MASS         X           Y           Z
   0 C     6.0000    0    12.011   -0.926174   -1.095928    0.000038
   1 Cl   17.0000    0    35.453   -4.129165    0.133226   -0.000019
   2 C     6.0000    0    12.011    0.926155    1.095966    0.000038
   3 Cl   17.0000    0    35.453    4.129165   -0.133245   -0.000019
   4 H     1.0000    0     1.008   -0.720874   -2.263042   -1.684483
   5 H     1.0000    0     1.008   -0.720949   -2.263004    1.684577
   6 H     1.0000    0     1.008    0.720931    2.263079   -1.684464
   7 H     1.0000    0     1.008    0.720893    2.263098    1.684559

--------------------------------
INTERNAL COORDINATES (ANGSTROEM)
--------------------------------
 C      0   0   0     0.000000000000     0.00000000     0.00000000
 Cl     1   0   0     1.815469001939     0.00000000     0.00000000
 C      1   2   0     1.518611093763   109.20614151     0.00000000
 Cl     3   1   2     1.815489086555   109.20537065   180.00200518
 H      1   2   3     1.089888319875   107.22199725   238.90263927
 H      1   2   3     1.089881179074   107.22128531   121.09783466
 H      3   1   2     1.089876154478   111.62356311   298.38184725
 H      3   1   2     1.089891993227   111.62293495    61.61934559

---------------------------
INTERNAL COORDINATES (A.U.)
---------------------------
 C      0   0   0     0.000000000000     0.00000000     0.00000000
 Cl     1   0   0     3.430739218287     0.00000000     0.00000000
 C      1   2   0     2.869759071147   109.20614151     0.00000000
 Cl     3   1   2     3.430777172712   109.20537065   180.00200518
 H      1   2   3     2.059590441123   107.22199725   238.90263927
 H      1   2   3     2.059576946965   107.22128531   121.09783466
 H      3   1   2     2.059567451855   111.62356311   298.38184725
 H      3   1   2     2.059597382752   111.62293495    61.61934559

---------------------
BASIS SET INFORMATION
---------------------
There are 3 groups of distinct atoms

 Group   1 Type C   : 17s4p1d contracted to 3s2p1d pattern {881/31/1}
 Group   2 Type Cl  : 34s15p1d contracted to 4s3p1d pattern {1111111/771/1}
 Group   3 Type H   : 4s1p contracted to 2s1p pattern {31/1}

Atom   0C    basis set group =>   1
Atom   1Cl   basis set group =>   2
Atom   2C    basis set group =>   1
Atom   3Cl   basis set group =>   2
Atom   4H    basis set group =>   3
Atom   5H    basis set group =>   3
Atom   6H    basis set group =>   3
Atom   7H    basis set group =>   3
-------------------------------
AUXILIARY BASIS SET INFORMATION
-------------------------------
There are 3 groups of distinct atoms

 Group   1 Type C   : 7s5p4d2f contracted to 7s5p4d2f pattern {1111111/11111/1111/11}
 Group   2 Type Cl  : 9s7p5d3f contracted to 9s7p5d3f pattern {111111111/1111111/11111/111}
 Group   3 Type H   : 3s2p1d contracted to 3s2p1d pattern {111/11/1}

Atom   0C    basis set group =>   1
Atom   1Cl   basis set group =>   2
Atom   2C    basis set group =>   1
Atom   3Cl   basis set group =>   2
Atom   4H    basis set group =>   3
Atom   5H    basis set group =>   3
Atom   6H    basis set group =>   3
Atom   7H    basis set group =>   3
-------------------------------
AUXILIARY BASIS SET INFORMATION
-------------------------------
There are 3 groups of distinct atoms

 Group   1 Type C   : 10s7p5d2f1g contracted to 10s7p5d2f1g pattern {1111111111/1111111/11111/11/1}
 Group   2 Type Cl  : 13s11p9d3f1g contracted to 13s11p9d3f1g pattern {1111111111111/11111111111/111111111/111/1}
 Group   3 Type H   : 4s3p2d1f contracted to 4s3p2d1f pattern {1111/111/11/1}

Atom   0C    basis set group =>   1
Atom   1Cl   basis set group =>   2
Atom   2C    basis set group =>   1
Atom   3Cl   basis set group =>   2
Atom   4H    basis set group =>   3
Atom   5H    basis set group =>   3
Atom   6H    basis set group =>   3
Atom   7H    basis set group =>   3

Checking for AutoStart:
The File: 1_2_dichloroethane_a.gbw exists
Trying to determine its content:
     ... Fine, the file contains calculation information
     ... Fine, the calculation information was read
     ... Fine, the file contains a basis set
     ... Fine, the basis set was read
     ... Fine, the file contains a geometry
     ... Fine, the geometry was read
     ... Fine, the file contains a set of orbitals
     ... Fine, the orbitals can be read
     => possible old guess file was deleted
     => GBW file was renamed to GES file
     => GES file is set as startup file
     => Guess is set to MORead
     ... now leaving AutoStart



           ************************************************************
           *        Program running with 4 parallel MPI-processes     *
           *              working on a common directory               *
           ************************************************************
------------------------------------------------------------------------------
                           ORCA GTO INTEGRAL CALCULATION
                           -- RI-GTO INTEGRALS CHOSEN --
------------------------------------------------------------------------------

                         BASIS SET STATISTICS AND STARTUP INFO

Gaussian basis set:
 # of primitive gaussian shells          ...  164
 # of primitive gaussian functions       ...  264
 # of contracted shells                  ...   40
 # of contracted basis functions         ...   84
 Highest angular momentum                ...    2
 Maximum contraction depth               ...   11
Auxiliary gaussian basis set:
 # of primitive gaussian shells          ...  164
 # of primitive gaussian functions       ...  520
 # of contracted shells                  ...  164
 # of contracted aux-basis functions     ...  520
 Highest angular momentum                ...    4
 Maximum contraction depth               ...    1
Ratio of auxiliary to basis functions    ...  6.19
Integral package used                  ... LIBINT
 One Electron integrals                  ... done
 Ordering auxiliary basis shells         ... done
 Integral threshhold             Thresh  ...  2.500e-11
 Primitive cut-off               TCut    ...  2.500e-12
 Pre-screening matrix                    ... done
 Shell pair data                         ... 
 Ordering of the shell pairs             ... done (   0.000 sec) 815 of 820 pairs
 Determination of significant pairs      ... done (   0.000 sec)
 Creation of shell pair data             ... done (   0.001 sec)
 Storage of shell pair data              ... done (   0.004 sec)
 Shell pair data done in (   0.005 sec)
 Computing two index integrals           ... done
 Cholesky decomposition of the V-matrix  ... done


Timings:
 Total evaluation time                   ...  16.576 sec (  0.276 min)
 One electron matrix time                ...  15.978 sec (  0.266 min) = 96.4%
 Schwartz matrix evaluation time         ...   0.474 sec (  0.008 min) =  2.9%
 Two index repulsion integral time       ...   0.058 sec (  0.001 min) =  0.4%
 Cholesky decomposition of V             ...   0.035 sec (  0.001 min) =  0.2%
 Three index repulsion integral time     ...   0.000 sec (  0.000 min) =  0.0%



           ************************************************************
           *        Program running with 4 parallel MPI-processes     *
           *              working on a common directory               *
           ************************************************************
-------------------------------------------------------------------------------
                                 ORCA SCF
-------------------------------------------------------------------------------

------------
SCF SETTINGS
------------
Hamiltonian:
 Ab initio Hamiltonian  Method          .... Hartree-Fock(GTOs)
 RI-approximation to the Coulomb term is turned on
   Number of auxiliary basis functions  .... 520
   RI-JK (J+K treated both via RI)      .... on


General Settings:
 Integral files         IntName         .... 1_2_dichloroethane_a
 Hartree-Fock type      HFTyp           .... RHF
 Total Charge           Charge          ....    0
 Multiplicity           Mult            ....    1
 Number of Electrons    NEL             ....   50
 Basis Dimension        Dim             ....   84
 Nuclear Repulsion      ENuc            ....    192.8498407302 Eh

Convergence Acceleration:
 DIIS                   CNVDIIS         .... off
 Newton-Raphson         CNVNR           .... off
 SOSCF                  CNVSOSCF        .... on
   Start iteration      SOSCFMaxIt      ....   150
   Startup grad/error   SOSCFStart      ....  0.003300
 Level Shifting         CNVShift        .... on
   Level shift para.    LevelShift      ....    0.2000
   Turn off err/grad.   ShiftErr        ....    0.1000
 Zerner damping         CNVZerner       .... off
 Static damping         CNVDamp         .... off
 Fernandez-Rico         CNVRico         .... off

SCF Procedure:
 Maximum # iterations   MaxIter         ....   300
 SCF integral mode      SCFMode         .... Direct
   Integral package                     .... LIBINT
 Reset frequency        DirectResetFreq ....    20
 Integral Threshold     Thresh          ....  2.500e-11 Eh
 Primitive CutOff       TCut            ....  2.500e-12 Eh

Convergence Tolerance:
 Convergence Check Mode ConvCheckMode   .... Total+1el-Energy
 Convergence forced     ConvForced      .... 1
 Energy Change          TolE            ....  1.000e-08 Eh
 1-El. energy change                    ....  1.000e-05 Eh
 Orbital Gradient       TolG            ....  1.000e-05
 Orbital Rotation angle TolX            ....  1.000e-05


Diagonalization of the overlap matrix:
Smallest eigenvalue                        ... 6.333e-03
Time for diagonalization                   ...    0.004 sec
Threshold for overlap eigenvalues          ... 1.000e-08
Number of eigenvalues below threshold      ... 0
Time for construction of square roots      ...    0.004 sec
Total time needed                          ...    0.008 sec

---------------------
INITIAL GUESS: MOREAD
---------------------
Guess MOs are being read from file: 1_2_dichloroethane_a.ges
Input Geometry matches current geometry (good)
Atom 0: N(Shells)= 6 and 10 - projection required
Input basis set needs projection
NBasis(read)= 184
NBasis(calc)= 84
Basis set overlap was calculated
Using GuessMode=FMatrix for the initial guess
C*T matrix was formed
Effective Fockian was calculated
Effective Fockian was diagonalized
Initial density was built
                      ------------------
                      INITIAL GUESS DONE (   0.0 sec)
                      ------------------
--------------
SCF ITERATIONS
--------------
ITER       Energy         Delta-E        Max-DP      RMS-DP      [F,P]   Gradient Norm
                             ****Turning on KDIIS(Cayley)****
  0   -997.0787499448   0.000000000000 0.00060279  0.00005280  0.0070269   0.004668869
  1   -997.0788513123  -0.000101367554 0.00140830  0.00011348  0.0063916   0.004263259
  2   -997.0790378117  -0.000186499389 0.00231423  0.00018621  0.0051042   0.003426628
                      *** Initiating the SOSCF procedure ***
                           *** Shutting down KDIIS ***
                      *** Re-Reading the Fockian *** 
                      *** Removing any level shift *** 
ITER      Energy       Delta-E        Grad      Rot      Max-DP    RMS-DP
  3   -997.07925837  -0.0002205579  0.003055  0.003055  0.003488  0.000280
  4   -997.07938323  -0.0001248558  0.000024  0.000021  0.000033  0.000002
  5   -997.07938323  -0.0000000094  0.000017  0.000017  0.000021  0.000001
  6   -997.07938324  -0.0000000028  0.000004  0.000007  0.000008  0.000000
                 **** Energy Check signals convergence ****
              ***Rediagonalizing the Fockian in SOSCF/NRSCF***

               *****************************************************
               *                     SUCCESS                       *
               *           SCF CONVERGED AFTER   7 CYCLES          *
               *****************************************************


----------------
TOTAL SCF ENERGY
----------------

Total Energy       :         -997.07938324 Eh          -27131.90938 eV

Components:
Nuclear Repulsion  :          192.84984073 Eh            5247.71095 eV
Electronic Energy  :        -1189.92922397 Eh          -32379.62033 eV
One Electron Energy:        -1758.92073443 Eh          -47862.66647 eV
Two Electron Energy:          568.99151046 Eh           15483.04614 eV

Virial components:
Potential Energy   :        -1994.12401277 Eh          -54262.87306 eV
Kinetic Energy     :          997.04462953 Eh           27130.96368 eV
Virial Ratio       :            2.00003486


---------------
SCF CONVERGENCE
---------------

  Last Energy change         ...   -2.5580e-10  Tolerance :   1.0000e-08
  Last MAX-Density change    ...    1.5106e-06  Tolerance :   1.0000e-07
  Last RMS-Density change    ...    6.7593e-08  Tolerance :   5.0000e-09
  Last Orbital Gradient      ...    5.9599e-07  Tolerance :   1.0000e-05
  Last Orbital Rotation      ...    1.0821e-06  Tolerance :   1.0000e-05

             **** THE GBW FILE WAS UPDATED (1_2_dichloroethane_a.gbw) ****
             **** DENSITY FILE WAS UPDATED (1_2_dichloroethane_a.scfp.tmp) ****
             **** ENERGY FILE WAS UPDATED (1_2_dichloroethane_a.en.tmp) ****
----------------
ORBITAL ENERGIES
----------------

  NO   OCC          E(Eh)            E(eV) 
   0   2.0000    -104.831394     -2852.6072 
   1   2.0000    -104.831393     -2852.6072 
   2   2.0000     -11.322068      -308.0891 
   3   2.0000     -11.321443      -308.0721 
   4   2.0000     -10.558003      -287.2979 
   5   2.0000     -10.557991      -287.2976 
   6   2.0000      -8.025459      -218.3838 
   7   2.0000      -8.025458      -218.3838 
   8   2.0000      -8.022199      -218.2951 
   9   2.0000      -8.022198      -218.2951 
  10   2.0000      -8.022095      -218.2923 
  11   2.0000      -8.022093      -218.2923 
  12   2.0000      -1.170997       -31.8645 
  13   2.0000      -1.116402       -30.3788 
  14   2.0000      -0.978070       -26.6146 
  15   2.0000      -0.856566       -23.3083 
  16   2.0000      -0.687398       -18.7050 
  17   2.0000      -0.608983       -16.5713 
  18   2.0000      -0.598187       -16.2775 
  19   2.0000      -0.577585       -15.7169 
  20   2.0000      -0.518595       -14.1117 
  21   2.0000      -0.459302       -12.4983 
  22   2.0000      -0.448961       -12.2168 
  23   2.0000      -0.445625       -12.1261 
  24   2.0000      -0.440395       -11.9838 
  25   0.0000       0.162869         4.4319 
  26   0.0000       0.166860         4.5405 
  27   0.0000       0.212697         5.7878 
  28   0.0000       0.214800         5.8450 
  29   0.0000       0.238724         6.4960 
  30   0.0000       0.255411         6.9501 
  31   0.0000       0.332470         9.0470 
  32   0.0000       0.559999        15.2383 
  33   0.0000       0.567947        15.4546 
  34   0.0000       0.605914        16.4877 
  35   0.0000       0.622757        16.9461 
  36   0.0000       0.673753        18.3338 
  37   0.0000       0.681465        18.5436 
  38   0.0000       0.732454        19.9311 
  39   0.0000       0.759764        20.6742 
  40   0.0000       0.773707        21.0536 
  41   0.0000       0.778726        21.1902 
  42   0.0000       0.783310        21.3150 
  43   0.0000       0.787313        21.4239 
  44   0.0000       0.824582        22.4380 
  45   0.0000       0.843222        22.9452 
  46   0.0000       0.852298        23.1922 
  47   0.0000       0.879726        23.9386 
  48   0.0000       0.908925        24.7331 
  49   0.0000       0.915597        24.9147 
  50   0.0000       0.921719        25.0812 
  51   0.0000       0.988291        26.8928 
  52   0.0000       0.988764        26.9056 
  53   0.0000       0.995414        27.0866 
  54   0.0000       1.004053        27.3217 
  55   0.0000       1.072627        29.1877 
  56   0.0000       1.127881        30.6912 
  57   0.0000       1.198052        32.6007 
  58   0.0000       1.267105        34.4797 
  59   0.0000       1.337792        36.4032 
  60   0.0000       1.382848        37.6292 
  61   0.0000       1.404943        38.2304 
  62   0.0000       1.413177        38.4545 
  63   0.0000       1.484154        40.3859 
  64   0.0000       1.641565        44.6693 
  65   0.0000       1.710714        46.5509 
  66   0.0000       1.840972        50.0954 
  67   0.0000       1.869693        50.8769 
  68   0.0000       1.878421        51.1144 
  69   0.0000       1.885555        51.3086 
  70   0.0000       1.887080        51.3500 
  71   0.0000       1.909332        51.9556 
  72   0.0000       1.996988        54.3408 
  73   0.0000       2.120368        57.6981 
  74   0.0000       2.132409        58.0258 
  75   0.0000       2.137443        58.1628 
  76   0.0000       2.215125        60.2766 
  77   0.0000       2.399129        65.2836 
  78   0.0000       2.413803        65.6829 
  79   0.0000       2.493836        67.8607 
  80   0.0000       2.723313        74.1051 
  81   0.0000       2.790136        75.9235 
  82   0.0000       2.801268        76.2264 
  83   0.0000       2.873515        78.1923 

                    ********************************
                    * MULLIKEN POPULATION ANALYSIS *
                    ********************************

-----------------------
MULLIKEN ATOMIC CHARGES
-----------------------
   0 C :   -0.030415
   1 Cl:   -0.173737
   2 C :   -0.030417
   3 Cl:   -0.173743
   4 H :    0.102079
   5 H :    0.102078
   6 H :    0.102076
   7 H :    0.102078
Sum of atomic charges:   -0.0000000

--------------------------------
MULLIKEN REDUCED ORBITAL CHARGES
--------------------------------
  0 C s       :     3.156308  s :     3.156308
      pz      :     1.076276  p :     2.782480
      px      :     0.719187
      py      :     0.987017
      dz2     :     0.015785  d :     0.091627
      dxz     :     0.009826
      dyz     :     0.022362
      dx2y2   :     0.018569
      dxy     :     0.025084
  1 Cls       :     5.938528  s :     5.938528
      pz      :     3.977415  p :    11.200801
      px      :     3.348476
      py      :     3.874909
      dz2     :     0.006207  d :     0.034408
      dxz     :     0.004079
      dyz     :     0.001008
      dx2y2   :     0.012378
      dxy     :     0.010736
  2 C s       :     3.156312  s :     3.156312
      pz      :     1.076279  p :     2.782478
      px      :     0.719185
      py      :     0.987014
      dz2     :     0.015785  d :     0.091626
      dxz     :     0.009825
      dyz     :     0.022363
      dx2y2   :     0.018569
      dxy     :     0.025084
  3 Cls       :     5.938530  s :     5.938530
      pz      :     3.977416  p :    11.200807
      px      :     3.348488
      py      :     3.874903
      dz2     :     0.006206  d :     0.034406
      dxz     :     0.004078
      dyz     :     0.001008
      dx2y2   :     0.012377
      dxy     :     0.010736
  4 H s       :     0.867824  s :     0.867824
      pz      :     0.017157  p :     0.030097
      px      :     0.002761
      py      :     0.010179
  5 H s       :     0.867825  s :     0.867825
      pz      :     0.017157  p :     0.030097
      px      :     0.002761
      py      :     0.010179
  6 H s       :     0.867826  s :     0.867826
      pz      :     0.017157  p :     0.030097
      px      :     0.002761
      py      :     0.010180
  7 H s       :     0.867825  s :     0.867825
      pz      :     0.017157  p :     0.030097
      px      :     0.002761
      py      :     0.010180


                     *******************************
                     * LOEWDIN POPULATION ANALYSIS *
                     *******************************

----------------------
LOEWDIN ATOMIC CHARGES
----------------------
   0 C :   -0.073734
   1 Cl:    0.007312
   2 C :   -0.073724
   3 Cl:    0.007298
   4 H :    0.033213
   5 H :    0.033211
   6 H :    0.033210
   7 H :    0.033214

-------------------------------
LOEWDIN REDUCED ORBITAL CHARGES
-------------------------------
  0 C s       :     2.859678  s :     2.859678
      pz      :     1.096389  p :     2.998245
      px      :     0.869069
      py      :     1.032786
      dz2     :     0.037179  d :     0.215812
      dxz     :     0.021102
      dyz     :     0.057126
      dx2y2   :     0.042946
      dxy     :     0.057458
  1 Cls       :     5.758336  s :     5.758336
      pz      :     3.955628  p :    11.195668
      px      :     3.379324
      py      :     3.860716
      dz2     :     0.006704  d :     0.038685
      dxz     :     0.004583
      dyz     :     0.001140
      dx2y2   :     0.014144
      dxy     :     0.012113
  2 C s       :     2.859680  s :     2.859680
      pz      :     1.096392  p :     2.998237
      px      :     0.869061
      py      :     1.032783
      dz2     :     0.037177  d :     0.215807
      dxz     :     0.021100
      dyz     :     0.057128
      dx2y2   :     0.042945
      dxy     :     0.057457
  3 Cls       :     5.758345  s :     5.758345
      pz      :     3.955631  p :    11.195674
      px      :     3.379332
      py      :     3.860711
      dz2     :     0.006704  d :     0.038682
      dxz     :     0.004583
      dyz     :     0.001140
      dx2y2   :     0.014143
      dxy     :     0.012113
  4 H s       :     0.883346  s :     0.883346
      pz      :     0.041950  p :     0.083442
      px      :     0.012612
      py      :     0.028880
  5 H s       :     0.883346  s :     0.883346
      pz      :     0.041952  p :     0.083443
      px      :     0.012612
      py      :     0.028879
  6 H s       :     0.883346  s :     0.883346
      pz      :     0.041952  p :     0.083444
      px      :     0.012612
      py      :     0.028881
  7 H s       :     0.883345  s :     0.883345
      pz      :     0.041950  p :     0.083441
      px      :     0.012611
      py      :     0.028880


                      *****************************
                      * MAYER POPULATION ANALYSIS *
                      *****************************

  NA   - Mulliken gross atomic population
  ZA   - Total nuclear charge
  QA   - Mulliken gross atomic charge
  VA   - Mayer's total valence
  BVA  - Mayer's bonded valence
  FA   - Mayer's free valence

  ATOM       NA         ZA         QA         VA         BVA        FA
  0 C      6.0304     6.0000    -0.0304     3.9110     3.9110    -0.0000
  1 Cl    17.1737    17.0000    -0.1737     0.9894     0.9894    -0.0000
  2 C      6.0304     6.0000    -0.0304     3.9110     3.9110    -0.0000
  3 Cl    17.1737    17.0000    -0.1737     0.9894     0.9894    -0.0000
  4 H      0.8979     1.0000     0.1021     0.9603     0.9603     0.0000
  5 H      0.8979     1.0000     0.1021     0.9603     0.9603    -0.0000
  6 H      0.8979     1.0000     0.1021     0.9603     0.9603    -0.0000
  7 H      0.8979     1.0000     0.1021     0.9603     0.9603    -0.0000

  Mayer bond orders larger than 0.1
B(  0-C ,  1-Cl) :   0.9859 B(  0-C ,  2-C ) :   1.0097 B(  0-C ,  4-H ) :   0.9660 
B(  0-C ,  5-H ) :   0.9660 B(  2-C ,  3-Cl) :   0.9859 B(  2-C ,  6-H ) :   0.9660 
B(  2-C ,  7-H ) :   0.9660 

-------
TIMINGS
-------

Total SCF time: 0 days 0 hours 0 min 2 sec 

Total time                  ....       2.705 sec
Sum of individual times     ....       2.558 sec  ( 94.6%)

Fock matrix formation       ....       2.492 sec  ( 92.1%)
Diagonalization             ....       0.024 sec  (  0.9%)
Density matrix formation    ....       0.001 sec  (  0.0%)
Population analysis         ....       0.003 sec  (  0.1%)
Initial guess               ....       0.021 sec  (  0.8%)
Orbital Transformation      ....       0.000 sec  (  0.0%)
Orbital Orthonormalization  ....       0.000 sec  (  0.0%)
DIIS solution               ....       0.000 sec  (  0.0%)
SOSCF solution              ....       0.018 sec  (  0.7%)


           ************************************************************
           *        Program running with 4 parallel MPI-processes     *
           *              working on a common directory               *
           ************************************************************


------------------------------------------------------------------------------- 
                              ORCA-MATRIX DRIVEN CI                            
------------------------------------------------------------------------------- 


Wavefunction type
-----------------
Correlation treatment                      ...      CCSD     
Single excitations                         ... ON
Orbital optimization                       ... OFF
Calculation of Z vector                    ... OFF
Calculation of Brueckner orbitals          ... OFF
Perturbative triple excitations            ... ON
Calculation of F12 correction              ... OFF
Frozen core treatment                      ... chemical core (24 el)
Reference Wavefunction                     ... RHF
  Internal Orbitals:    12 ...   24 ( 13 MO's/ 26 electrons)
  Virtual  Orbitals:    25 ...   83 ( 59 MO's              )
Number of AO's                             ...     84
Number of electrons                        ...     50
Number of correlated electrons             ...     26

Algorithmic settings
--------------------
Integral transformation                    ... All integrals via the RI transformation
K(C) Formation                             ... RI-DLPNO
   PNO-Integral Storage                    ... ON DISK
   PNO occupation number cut-off           ... 1.000e-07
   Singles PNO occupation number cut-off   ... 3.000e-09
   PNO Mulliken prescreening cut-off       ... 1.000e-03
   Domain cut-off (Mulliken population)    ... 1.000e-03
   PNO Normalization                       ...    1
Maximum number of iterations               ...        50
Convergence tolerance (max. residuum)      ... 1.000e-05
Level shift for amplitude update           ... 2.000e-01
Maximum number of DIIS vectors             ...         7
DIIS turned on at iteration                ...         0
Damping before turning on DIIS             ...     0.500
Damping after turning on DIIS              ...     0.000
Pair specific amplitude update             ... OFF
Natural orbital iterations                 ... OFF
Perturbative natural orbital generation    ... OFF
Printlevel                                 ... 2

Singles Fock matrix elements calculated using PNOs.

Memory handling:
----------------
Maximum memory for working arrays          ...   8000 MB
Data storage in matrix containers          ... UNCOMPRESSED
Data type for integral storage             ... DOUBLE
In-Core Storage of quantities:
   Amplitudes+Sigma Vector      ... NO
   J+K operators                ... NO
   DIIS vectors                 ... NO
   3-external integrals         ... NO
   4-external integrals         ... NO

Localization treatment:
-----------------------
Localization option                        ...    6
Localization threshhold                    ... -1.0e+00
Using relative localization threshhold     ... 1.0e-08
Neglect threshold for strong pairs         ... 1.000e-05 Eh
Prescreening threshold for very weak pairs ... 1.000e-07 Eh

Initializing the integral package          ... done
Localizing the valence orbitals
------------------------------------------------------------------------------
                           ORCA ORBITAL LOCALIZATION
------------------------------------------------------------------------------

Input orbitals are from                  ... 1_2_dichloroethane_a.proc0.gbw
Output orbitals are to                   ... 1_2_dichloroethane_a.proc0.loc
Max. number of iterations                ... 128
Localizations seeded randomly            ... off
Convergence tolerance                    ... 1.000e-06
Using relative localization threshhold   ... 1.000e-08
Treshold for strong local MOs            ... 9.500e-01
Treshold for bond MOs                    ... 8.500e-01
Operator                                 ... 0
Orbital range for localization           ... 12 to 24
Localization criterion                   ... FOSTER-BOYS (AUGMENTED HESSIAN)
Doing the dipole integrals     ... o.k.
Initial value of the localization sum :   135.706700
ITERATION   0 : L=  150.3577806692 DL=  1.47e+01 (AVERGE_DL)=    0.4333986212 
ITERATION   1 : L=  151.1888537835 DL=  8.31e-01 (AVERGE_DL)=    0.1032220108 
ITERATION   2 : L=  151.2038769410 DL=  1.50e-02 (AVERGE_DL)=    0.0138782053 
ITERATION   3 : L=  151.2054063660 DL=  1.53e-03 (AVERGE_DL)=    0.0044280936 
ITERATION   4 : L=  151.2065274154 DL=  1.12e-03 (AVERGE_DL)=    0.0037910985 
ITERATION   5 : L=  151.2075632829 DL=  1.04e-03 (AVERGE_DL)=    0.0036442217 
ITERATION   6 : L=  151.2085768926 DL=  1.01e-03 (AVERGE_DL)=    0.0036048574 
ITERATION   7 : L=  151.2095655444 DL=  9.89e-04 (AVERGE_DL)=    0.0035601998 
ITERATION   8 : L=  151.2105265501 DL=  9.61e-04 (AVERGE_DL)=    0.0035100692 
ITERATION   9 : L=  151.2114571085 DL=  9.31e-04 (AVERGE_DL)=    0.0034540174 
ITERATION  10 : L=  151.2123549444 DL=  8.98e-04 (AVERGE_DL)=    0.0033927445 
ITERATION  11 : L=  151.2132182027 DL=  8.63e-04 (AVERGE_DL)=    0.0033267725 
ITERATION  12 : L=  151.2140454506 DL=  8.27e-04 (AVERGE_DL)=    0.0032566458 
ITERATION  13 : L=  151.2148356541 DL=  7.90e-04 (AVERGE_DL)=    0.0031828940 
ITERATION  14 : L=  151.2155881716 DL=  7.53e-04 (AVERGE_DL)=    0.0031060682 
ITERATION  15 : L=  151.2163027132 DL=  7.15e-04 (AVERGE_DL)=    0.0030266796 
ITERATION  16 : L=  151.2169793224 DL=  6.77e-04 (AVERGE_DL)=    0.0029452466 
ITERATION  17 : L=  151.2176183337 DL=  6.39e-04 (AVERGE_DL)=    0.0028622461 
ITERATION  18 : L=  151.2182203424 DL=  6.02e-04 (AVERGE_DL)=    0.0027781396 
ITERATION  19 : L=  151.2187861705 DL=  5.66e-04 (AVERGE_DL)=    0.0026933635 
ITERATION  20 : L=  151.2193168215 DL=  5.31e-04 (AVERGE_DL)=    0.0026082979 
ITERATION  21 : L=  151.2198134592 DL=  4.97e-04 (AVERGE_DL)=    0.0025233212 
ITERATION  22 : L=  151.2202773633 DL=  4.64e-04 (AVERGE_DL)=    0.0024387474 
ITERATION  23 : L=  151.2207099127 DL=  4.33e-04 (AVERGE_DL)=    0.0023548897 
ITERATION  24 : L=  151.2211125451 DL=  4.03e-04 (AVERGE_DL)=    0.0022719932 
ITERATION  25 : L=  151.2214867404 DL=  3.74e-04 (AVERGE_DL)=    0.0021902913 
ITERATION  26 : L=  151.2218339994 DL=  3.47e-04 (AVERGE_DL)=    0.0021099853 
ITERATION  27 : L=  151.2221558238 DL=  3.22e-04 (AVERGE_DL)=    0.0020312445 
ITERATION  28 : L=  151.2224537015 DL=  2.98e-04 (AVERGE_DL)=    0.0019542120 
ITERATION  29 : L=  151.2227290956 DL=  2.75e-04 (AVERGE_DL)=    0.0018790140 
ITERATION  30 : L=  151.2229834212 DL=  2.54e-04 (AVERGE_DL)=    0.0018057090 
ITERATION  31 : L=  151.2232180539 DL=  2.35e-04 (AVERGE_DL)=    0.0017343908 
ITERATION  32 : L=  151.2234343246 DL=  2.16e-04 (AVERGE_DL)=    0.0016651432 
ITERATION  33 : L=  151.2236334927 DL=  1.99e-04 (AVERGE_DL)=    0.0015979475 
ITERATION  34 : L=  151.2238167733 DL=  1.83e-04 (AVERGE_DL)=    0.0015328900 
ITERATION  35 : L=  151.2239853087 DL=  1.69e-04 (AVERGE_DL)=    0.0014699354 
ITERATION  36 : L=  151.2241401852 DL=  1.55e-04 (AVERGE_DL)=    0.0014091121 
ITERATION  37 : L=  151.2242824210 DL=  1.42e-04 (AVERGE_DL)=    0.0013503832 
ITERATION  38 : L=  151.2244129704 DL=  1.31e-04 (AVERGE_DL)=    0.0012937197 
ITERATION  39 : L=  151.2245327325 DL=  1.20e-04 (AVERGE_DL)=    0.0012391175 
ITERATION  40 : L=  151.2246425469 DL=  1.10e-04 (AVERGE_DL)=    0.0011865396 
ITERATION  41 : L=  151.2247431954 DL=  1.01e-04 (AVERGE_DL)=    0.0011359427 
ITERATION  42 : L=  151.2248354053 DL=  9.22e-05 (AVERGE_DL)=    0.0010872800 
ITERATION  43 : L=  151.2249198540 DL=  8.44e-05 (AVERGE_DL)=    0.0010405172 
ITERATION  44 : L=  151.2249971675 DL=  7.73e-05 (AVERGE_DL)=    0.0009955898 
ITERATION  45 : L=  151.2250679273 DL=  7.08e-05 (AVERGE_DL)=    0.0009524580 
ITERATION  46 : L=  151.2251326694 DL=  6.47e-05 (AVERGE_DL)=    0.0009110581 
ITERATION  47 : L=  151.2251918893 DL=  5.92e-05 (AVERGE_DL)=    0.0008713378 
ITERATION  48 : L=  151.2252460479 DL=  5.42e-05 (AVERGE_DL)=    0.0008332712 
ITERATION  49 : L=  151.2252955640 DL=  4.95e-05 (AVERGE_DL)=    0.0007967571 
ITERATION  50 : L=  151.2253408274 DL=  4.53e-05 (AVERGE_DL)=    0.0007617744 
ITERATION  51 : L=  151.2253821965 DL=  4.14e-05 (AVERGE_DL)=    0.0007282671 
ITERATION  52 : L=  151.2254199990 DL=  3.78e-05 (AVERGE_DL)=    0.0006961665 
ITERATION  53 : L=  151.2254545394 DL=  3.45e-05 (AVERGE_DL)=    0.0006654517 
ITERATION  54 : L=  151.2254860911 DL=  3.16e-05 (AVERGE_DL)=    0.0006360101 
ITERATION  55 : L=  151.2255149094 DL=  2.88e-05 (AVERGE_DL)=    0.0006078362 
ITERATION  56 : L=  151.2255412274 DL=  2.63e-05 (AVERGE_DL)=    0.0005808707 
ITERATION  57 : L=  151.2255652615 DL=  2.40e-05 (AVERGE_DL)=    0.0005550939 
ITERATION  58 : L=  151.2255872068 DL=  2.19e-05 (AVERGE_DL)=    0.0005304242 
ITERATION  59 : L=  151.2256072426 DL=  2.00e-05 (AVERGE_DL)=    0.0005068232 
ITERATION  60 : L=  151.2256255347 DL=  1.83e-05 (AVERGE_DL)=    0.0004842663 
ITERATION  61 : L=  151.2256422320 DL=  1.67e-05 (AVERGE_DL)=    0.0004626747 
ITERATION  62 : L=  151.2256574733 DL=  1.52e-05 (AVERGE_DL)=    0.0004420425 
ITERATION  63 : L=  151.2256713847 DL=  1.39e-05 (AVERGE_DL)=    0.0004223167 
ITERATION  64 : L=  151.2256840817 DL=  1.27e-05 (AVERGE_DL)=    0.0004034620 
ITERATION  65 : L=  151.2256956682 DL=  1.16e-05 (AVERGE_DL)=    0.0003854153 
ITERATION  66 : L=  151.2257062424 DL=  1.06e-05 (AVERGE_DL)=    0.0003681941 
ITERATION  67 : L=  151.2257158938 DL=  9.65e-06 (AVERGE_DL)=    0.0003517609 
ITERATION  68 : L=  151.2257246978 DL=  8.80e-06 (AVERGE_DL)=    0.0003359641 
ITERATION  69 : L=  151.2257327313 DL=  8.03e-06 (AVERGE_DL)=    0.0003209263 
ITERATION  70 : L=  151.2257400637 DL=  7.33e-06 (AVERGE_DL)=    0.0003066024 
ITERATION  71 : L=  151.2257467506 DL=  6.69e-06 (AVERGE_DL)=    0.0002927948 
ITERATION  72 : L=  151.2257528532 DL=  6.10e-06 (AVERGE_DL)=    0.0002797111 
ITERATION  73 : L=  151.2257584216 DL=  5.57e-06 (AVERGE_DL)=    0.0002671886 
ITERATION  74 : L=  151.2257635027 DL=  5.08e-06 (AVERGE_DL)=    0.0002552317 
ITERATION  75 : L=  151.2257681362 DL=  4.63e-06 (AVERGE_DL)=    0.0002437294 
ITERATION  76 : L=  151.2257723629 DL=  4.23e-06 (AVERGE_DL)=    0.0002327838 
ITERATION  77 : L=  151.2257762215 DL=  3.86e-06 (AVERGE_DL)=    0.0002224151 
ITERATION  78 : L=  151.2257797380 DL=  3.52e-06 (AVERGE_DL)=    0.0002123296 
ITERATION  79 : L=  151.2257829486 DL=  3.21e-06 (AVERGE_DL)=    0.0002028836 
ITERATION  80 : L=  151.2257858757 DL=  2.93e-06 (AVERGE_DL)=    0.0001937164 
ITERATION  81 : L=  151.2257885479 DL=  2.67e-06 (AVERGE_DL)=    0.0001850929 
ITERATION  82 : L=  151.2257909826 DL=  2.43e-06 (AVERGE_DL)=    0.0001766759 
ITERATION  83 : L=  151.2257932050 DL=  2.22e-06 (AVERGE_DL)=    0.0001687955 
ITERATION  84 : L=  151.2257952320 DL=  2.03e-06 (AVERGE_DL)=    0.0001612050 
ITERATION  85 : L=  151.2257970805 DL=  1.85e-06 (AVERGE_DL)=    0.0001539468 
ITERATION  86 : L=  151.2257987669 DL=  1.69e-06 (AVERGE_DL)=    0.0001470369 
ITERATION  87 : L=  151.2258003063 DL=  1.54e-06 (AVERGE_DL)=    0.0001404857 
ITERATION  88 : L=  151.2258017091 DL=  1.40e-06 (AVERGE_DL)=    0.0001341070 
ITERATION  89 : L=  151.2258029895 DL=  1.28e-06 (AVERGE_DL)=    0.0001281197 
ITERATION  90 : L=  151.2258041566 DL=  1.17e-06 (AVERGE_DL)=    0.0001223259 
ITERATION  91 : L=  151.2258052219 DL=  1.07e-06 (AVERGE_DL)=    0.0001168632 
ITERATION  92 : L=  151.2258061934 DL=  9.72e-07 (AVERGE_DL)=    0.0001116027 
LOCALIZATION SUM CONVERGED

------------------------------------------------------
AUGMENTED HESSIAN OPTIMIZATION OF FOSTER-BOYS ORBITALS
------------------------------------------------------

Spin operator:           0
Orbital window:          12 to 24
Number of iterations:    128
Gradient tolerance:      1.000e-06
Number of pairs:         78
Davidson threshold:      2000
Diagonalization method:  LAPACK
Iter:    0   L: 151.2258061934   Grad. norm: 2.112012e-03
   *** Likely close to a maximum now. ***
       Augmented Hessian eigenvalues:  2.02e-05 -1.06e-01 -1.06e-01 -5.85e+00 ... 
Iter:    1   L: 151.2258162826   Grad. norm: 4.845999e-05
Iter:    2   L: 151.2258162826   Grad. norm: 8.197797e-12
LOCALIZATION HAS CONVERGED.

Eigenvalues of the Hessian:
  0 -1.060e-01
  1 -1.060e-01
  2 -5.849e+00
  3 -5.849e+00
  4 -5.981e+00
  5 -5.981e+00
  6 -1.134e+01
  7 -1.134e+01
  8 -1.148e+01
  9 -1.148e+01
    ...


------------------------------------------------------------------------------- 
                    LOCALIZED MOLECULAR ORBITAL COMPOSITIONS                   
------------------------------------------------------------------------------- 

The Mulliken populations for each LMO on each atom are computed
The LMO`s will be ordered according to atom index and type
  (A) Strongly localized MO`s have populations of >=0.950 on one atom
  (B) Two center bond orbitals have populations of >=0.850 on two atoms
  (C) Other MO`s are considered to be `delocalized`

FOUND  -   6 strongly local MO`s
       -   7 two center bond MO`s
       -   0 significantly delocalized MO`s

Rather strongly localized orbitals:
MO  17:   3Cl -   0.997296
MO  16:   3Cl -   1.001944
MO  15:   3Cl -   1.001943
MO  14:   1Cl -   0.997296
MO  13:   1Cl -   1.001944
MO  12:   1Cl -   1.001944
Bond-like localized orbitals:
MO  24:   7H  -   0.465633  and   2C  -   0.550160
MO  23:   6H  -   0.465634  and   2C  -   0.550158
MO  22:   5H  -   0.465634  and   0C  -   0.550159
MO  21:   4H  -   0.465633  and   0C  -   0.550160
MO  20:   3Cl -   0.610336  and   2C  -   0.414710
MO  19:   2C  -   0.520252  and   0C  -   0.520248
MO  18:   1Cl -   0.610334  and   0C  -   0.414713
Localized MO's were stored in: 1_2_dichloroethane_a.proc0.loc

Localizing the core orbitals
------------------------------------------------------------------------------
                           ORCA ORBITAL LOCALIZATION
------------------------------------------------------------------------------

Input orbitals are from                  ... 1_2_dichloroethane_a.proc0.loc
Output orbitals are to                   ... 1_2_dichloroethane_a.proc0.loc
Max. number of iterations                ... 128
Localizations seeded randomly            ... off
Convergence tolerance                    ... 1.000e-06
Using relative localization threshhold   ... 1.000e-08
Treshold for strong local MOs            ... 9.500e-01
Treshold for bond MOs                    ... 8.500e-01
Operator                                 ... 0
Orbital range for localization           ... 0 to 11
Localization criterion                   ... FOSTER-BOYS (AUGMENTED HESSIAN)
Doing the dipole integrals     ... o.k.
Initial value of the localization sum :   174.789585
ITERATION   0 : L=  175.1308896428 DL=  3.41e-01 (AVERGE_DL)=    0.0719115897 
ITERATION   1 : L=  175.1414270862 DL=  1.05e-02 (AVERGE_DL)=    0.0126355939 
ITERATION   2 : L=  175.1420998573 DL=  6.73e-04 (AVERGE_DL)=    0.0031927265 
ITERATION   3 : L=  175.1421413561 DL=  4.15e-05 (AVERGE_DL)=    0.0007929498 
ITERATION   4 : L=  175.1421439674 DL=  2.61e-06 (AVERGE_DL)=    0.0001989107 
ITERATION   5 : L=  175.1421441305 DL=  1.63e-07 (AVERGE_DL)=    0.0000497085 
LOCALIZATION SUM CONVERGED

------------------------------------------------------
AUGMENTED HESSIAN OPTIMIZATION OF FOSTER-BOYS ORBITALS
------------------------------------------------------

Spin operator:           0
Orbital window:          0 to 11
Number of iterations:    128
Gradient tolerance:      1.000e-06
Number of pairs:         66
Davidson threshold:      2000
Diagonalization method:  LAPACK
Iter:    0   L: 175.1421441305   Grad. norm: 8.181996e-04
   *** Detected a saddle point. ***
       Augmented Hessian eigenvalues:  2.70e-05  2.69e-05  1.29e-05  1.12e-05 ... 
Iter:    1   L: 175.1421449790   Grad. norm: 8.069664e-04
Iter:    2   L: 175.1421468411   Grad. norm: 7.600642e-04
Iter:    3   L: 175.1421493990   Grad. norm: 6.793552e-04
Iter:    4   L: 175.1421522257   Grad. norm: 5.688884e-04
Iter:    5   L: 175.1421548742   Grad. norm: 4.343321e-04
Iter:    6   L: 175.1421569545   Grad. norm: 2.822798e-04
Iter:    7   L: 175.1421581870   Grad. norm: 1.205457e-04
Iter:    8   L: 175.1421584697   Grad. norm: 4.238090e-06
   *** Likely close to a maximum now. ***
       Augmented Hessian eigenvalues:  6.07e-10 -4.20e-06 -4.20e-06 -2.09e-05 ... 
Iter:    9   L: 175.1421584700   Grad. norm: 3.767896e-09
LOCALIZATION HAS CONVERGED.

Eigenvalues of the Hessian:
  0 -4.199e-06
  1 -4.199e-06
  2 -2.088e-05
  3 -2.089e-05
  4 -2.612e-05
  5 -2.612e-05
  6 -1.174e-01
  7 -1.174e-01
  8 -1.174e-01
  9 -1.174e-01
    ...


------------------------------------------------------------------------------- 
                    LOCALIZED MOLECULAR ORBITAL COMPOSITIONS                   
------------------------------------------------------------------------------- 

The Mulliken populations for each LMO on each atom are computed
The LMO`s will be ordered according to atom index and type
  (A) Strongly localized MO`s have populations of >=0.950 on one atom
  (B) Two center bond orbitals have populations of >=0.850 on two atoms
  (C) Other MO`s are considered to be `delocalized`

FOUND  -  12 strongly local MO`s
       -   0 two center bond MO`s
       -   0 significantly delocalized MO`s

Rather strongly localized orbitals:
MO  11:   3Cl -   0.999899
MO  10:   3Cl -   0.999875
MO   9:   3Cl -   0.999899
MO   8:   3Cl -   0.999999
MO   7:   3Cl -   0.999745
MO   6:   2C  -   0.999334
MO   5:   1Cl -   0.999899
MO   4:   1Cl -   0.999875
MO   3:   1Cl -   0.999899
MO   2:   1Cl -   0.999999
MO   1:   1Cl -   0.999745
MO   0:   0C  -   0.999334
Localized MO's were stored in: 1_2_dichloroethane_a.proc0.loc

Warning: internal orbitals are localized - no re-canonicalization of internal orbitals

--------------------------
CLOSED-SHELL FOCK OPERATOR
--------------------------

RI-JK section for the Fock operator:
  RHF full Fock operator         ... done
  RHF frozen core Fock operator  ... done
Time needed for Fock operator              ...            0.785 sec
Reference energy                           ...   -997.079383238

--------------
DLPNO SETTINGS (2015 fully linear scaling implementation)
--------------

TCutMKN:           1.000e-03
TCutPAO:           1.000e-03
TCutPNO:           1.000e-07
TCutPNOSingles:    3.000e-09
TCutEN:            9.700e-01
TCutPAOExt:        1.000e-01
TCutPairs:         1.000e-05
TCutPre:           1.000e-07
TCutOSV:           1.000e-06
TCutDOij:          1.000e-05
TCutDO:            5.000e-03
TCutC:             1.000e-04
TCutCPAO:          1.000e-03
TCutCMO:           1.000e-03
TScaleDOMP2PreScr: 2.000e+00
TScaleMKNMP2PreScr:1.000e+01
TScalePNOMP2PreScr:1.000e+00
PAO overlap thresh 1.000e-08
Using PNOs for Singles Fock computation
Use new domains
Use fully linear algorithm
TCutTNO:           1.000e-09
TCutMP2Pairs:      1.000e-06
TCutDOStrong:      2.000e-03
TCutMKNStrong:     1.000e-02
TCutMKNWeak:       1.000e-01
TCutDOWeak:        4.000e-03
NTCutTNO:          1

--------------------------
Calculating differential overlap integrals ... ok
--------------------------
ELECTRON PAIR PRESCREENING
--------------------------

Dipole-based pair screening          .... used

   TCutDOij = 1.000000e-05
   TCutPre  = 1.000000e-07
   .... Finished loop over pairs
Total time spent in the prescreening                  ...     0.000 sec
sum of pair energies estimated for screened out pairs ...       0.000000000000 Eh
Thresholds for map construction and integral transformation for crude MP2:
   TCutMKN                    ...     1.0e-02
   TCutDO                     ...     1.0e-02
   TCutPairs                  ...     1.0e-05
   TCutPNO_CrudeMP2           ...     1.0e-07
   TCutPNOSingles_CrudeMP2    ...     3.0e-09
--------------------------------
LOCAL RI TRANSFORMATION (IAVPAO)
--------------------------------

Orbital window:      12 to 24
Number of PAOs:      84
Basis functions:     84 (40 shells)
Aux. functions:     320 (108 shells)

Processing maps (0.0 sec)
Average map sizes:
   Aux shells -> MOs              13.0
   Aux shells -> PAOs             84.0
   MOs        -> AO shells        40.0
   PAOs       -> AO shells        40.0

Calculating integrals (0.6 sec, 2.670 MB)
Sorting integrals (0.0 sec, 2.666 MB)
Total time for the integral transformation: 0.6 sec
--------------------------------
INITIAL GUESS AND PNO GENERATION
--------------------------------

PNO truncation parameters                   .... 
    PAOOverlapThresh   =        1.000e-08

    TCutPairs          =        1.000e-05
    TCutPNO            =        1.000e-07
    TCutPNOSingles     =        3.000e-09
    TCutMP2Pairs       =        1.000e-06
    TCutMKN            =        1.000e-02
    TCutDO             =        1.000e-02

Pair selection                          .... not used
Type of local MP2 treatment                 .... semi-local MP2
Strategy for PNO selection                  .... occupation number selection
Pair density normalization                  .... MP2 norm
Spin component scaling                      .... not used

   .... Finished loop over pairs
Making pair pair interaction lists          ... done

                       ===========================
                         91 OF   91 PAIRS ARE KEPT CCSD PAIRS
                          0 OF   91 PAIRS ARE KEPT MP2 PAIRS FOR (T)
                          0 OF   91 PAIRS ARE SKIPPED
                       ===========================

Total time spent in the initial guess                 ...     0.087 sec
SL-MP2 correlation energy (all non-screened pairs)    ...      -0.531764861607 Eh

Initial PNO correlation energy                        ...      -0.531638038203 Eh
sum of pair energies prescreened and skipped MP2 pairs...       0.000000000000 Eh
sum of pair energies of crude MP2 skipped pairs only  ...       0.000000000000 Eh
sum of MP2 pair energies for pairs that were not kept ...       0.000000000000 Eh
sum of PNO error estimates for the kept pairs         ...      -0.000126823403 Eh
                                                          --------------------
sum of all corrections                                         -0.000126823403
Initial total correlation energy                               -0.531764861607
Thresholds for map construction and integral transformation for fine MP2 and CCSD(T) calculation:
   TCutMKN   ...     1.0e-03
   TCutDO    ...     5.0e-03
   TCutPairs ...     1.0e-05
   TCutCMO   ...     1.0e-03
   TCutCPAO  ...     1.0e-03

Thresholds for map construction and integral transformation for strong Triples:
   TCutMKN   ...     1.0e-02
   TCutDO    ...     1.0e-02
   TCutCMO   ...     1.0e-03
   TCutCPAO  ...     1.0e-03

Thresholds for map construction and integral transformation for weak Triples:
   TCutMKN   ...     1.0e-01
   TCutDO    ...     2.0e-02
   TCutCMO   ...     1.0e-03
   TCutCPAO  ...     1.0e-03

--------------------------------
LOCAL RI TRANSFORMATION (IAVPAO)
--------------------------------

Orbital window:      12 to 24
Number of PAOs:      84
Basis functions:     84 (40 shells)
Aux. functions:     320 (108 shells)

Processing maps (0.0 sec)
Average map sizes:
   Aux shells -> MOs              13.0
   Aux shells -> PAOs             84.0
   MOs        -> AO shells        40.0
   PAOs       -> AO shells        40.0

Calculating integrals (0.6 sec, 2.670 MB)
Sorting integrals (0.0 sec, 2.666 MB)
Total time for the integral transformation: 0.6 sec
--------------------------------
INITIAL GUESS AND PNO GENERATION
--------------------------------

PNO truncation parameters                   .... 
    ScaleTCutPNO       =        1.000e-02
    PAOOverlapThresh   =        1.000e-08

    TCutPairs          =        1.000e-05
    TCutPNO            =        1.000e-07
    TCutPNOSingles     =        3.000e-09
    TCutMP2Pairs       =        1.000e-06
    TCutMKN            =        1.000e-03
    TCutDO             =        5.000e-03

Pair selection                          .... not used
Type of local MP2 treatment                 .... full local PMP2
Strategy for PNO selection                  .... occupation number selection
Pair density normalization                  .... MP2 norm
Spin component scaling                      .... not used

PASS-1: Formation of initial guess LMP2 amplitudes
Initial amplitudes guess done. Entering LMP2 iteration loop:
   Max. no of iterations          ...  50
   Energy convergence tolerance   ...    1.0e-07
   Residual convergence tolerance ...    5.0e-07
   Fock matrix cutoff             ...    1.0e-05 Eh
   DIIS convergence acceleration parameters:
        Max # vectors in DIIS     ... 7
        Start iteration of DIIS   ... 0
        Levelshift                ... 2.000e-01
        Damping factor 1          ... 5.000e-01
        Damping factor 2          ... 1.000e+00
   L-MP2 PNO cut-off              ...   1.0e-09
   L-MP2 PNO cut-off (core)       ...   1.0e-11
                           *** Turning on DIIS ***
LMP2-Iter=   0:  ELMP2= -0.546491594248  DE=   1.4e-02 RMAX=   7.1e-03
LMP2-Iter=   1:  ELMP2= -0.553817234812  DE=   7.3e-03 RMAX=   4.0e-03
LMP2-Iter=   2:  ELMP2= -0.555102784591  DE=   1.3e-03 RMAX=   7.7e-04
LMP2-Iter=   3:  ELMP2= -0.555218577513  DE=   1.2e-04 RMAX=   2.7e-04
LMP2-Iter=   4:  ELMP2= -0.555225342067  DE=   6.8e-06 RMAX=   3.4e-05
LMP2-Iter=   5:  ELMP2= -0.555224173967  DE=   1.2e-06 RMAX=   1.0e-05
LMP2-Iter=   6:  ELMP2= -0.555224000086  DE=   1.7e-07 RMAX=   1.2e-06
LMP2-Iter=   7:  ELMP2= -0.555223983062  DE=   1.7e-08 RMAX=   2.7e-07
LMP2-Iter=   8:  ELMP2= -0.555223987939  DE=   4.9e-09 RMAX=   4.1e-08 => CONVERGED
PASS-2: Formation of Pair natural orbitals
   .... Finished loop over pairs

 PNO Occupation Number Statistics: 
  | Av. % of trace(Dij) retained        ...  99.782397653926
  | sigma^2 in % of trace(Dij) retained ...   2.19e-01
  | Av. % of trace(Di) retained         ...  99.999925810677
  | sigma^2 in % of trace(Di) retained  ...   3.43e-10
 Distributions of % trace(Dij) recovered:
  |       >= 99.9  ...    64 ( 70.3 % of all pairs)
  |   [90.0, 99.0) ...     4 (  4.4 % of all pairs)
  |   [99.0, 99.9) ...    23 ( 25.3 % of all pairs)
 Distributions of % trace(Di) recovered :
  |       >= 99.9  ...    13 (100.0 % of all I-pairs )

Making pair pair interaction lists          ... done

                       ===========================
                         91 OF   91 PAIRS ARE KEPT
                       ===========================

Total time spent in the initial guess                 ...     0.859 sec
L-MP2 correlation energy (all non-screened pairs)     ...      -0.555223987939 Eh
L-MP2 PNO error correction                            ...      -0.000001044229 Eh
                                                          --------------------
Initial total L-MP2 energy (non-screened pairs)       ...      -0.555225032168 Eh

Initial PNO correlation energy                        ...      -0.555112962004 Eh
sum of pair energies estimated for screened out pairs ...       0.000000000000 Eh
sum of MP2 pair energies for pairs that were not kept ...       0.000000000000 Eh
sum of PNO error estimates for the kept pairs         ...      -0.000112070164 Eh
                                                          --------------------
sum of all corrections                                         -0.000112070164
Initial total correlation energy                               -0.555225032168
Thresholds for map construction and integral transformation for fine MP2 and CCSD(T) calculation:
   TCutMKN   ...     1.0e-03
   TCutDO    ...     5.0e-03
   TCutPairs ...     1.0e-05
   TCutCMO   ...     1.0e-03
   TCutCPAO  ...     1.0e-03

Time for aux screen maps:            0.001
Time for maps after fine MP2:            0.002
-----------------------------
LOCAL RI TRANSFORMATION (IJV)
-----------------------------

Orbital window:      12 to 24
Basis functions:     84 (40 shells)
Aux. functions:     320 (108 shells)

Processing maps (0.0 sec)
Average map sizes:
   Aux shells -> MOs(i)           13.0
   Aux shells -> MOs(j)           13.0
   MOs        -> AO shells        40.0

Calculating integrals (0.7 sec, 0.416 MB)
Sorting integrals (0.0 sec, 0.413 MB)
Total time for the integral transformation: 0.7 sec
--------------------------------
LOCAL RI TRANSFORMATION (VABPAO)
--------------------------------

Number of PAOs:      84
Basis functions:     84 (40 shells)
Aux. functions:     320 (108 shells)

Processing maps (0.0 sec)
Average map sizes:
   Aux shells -> PAOs             84.0
   PAOs       -> AO shells        40.0

Calculating integrals (0.7 sec, 30.530 MB)
Finished


-------------------------------------
Pair Pair Term precalculation with     
RI-(ij|mn) and (im|jn) transformation  
ON THE FLY                             
-------------------------------------

   IBatch   1 (of   1)              ... done (    4.131 sec)
Total EXT                           ...           4.189 sec

---------------------
RI-PNO TRANSFORMATION
---------------------

Total Number of PNOs                   ...  2349
Average number of PNOs per pair        ...    25
Maximal number of PNOs per pair        ...    37
   #pairs with  1 -  5 PNOs   :    0
   #pairs with  6 - 10 PNOs   :    2
   #pairs with 11 - 15 PNOs   :    2
   #pairs with 16 - 20 PNOs   :   18
   #pairs with 21 - 25 PNOs   :   15
   #pairs with 26 - 30 PNOs   :   30
   #pairs with 31 - 35 PNOs   :   18
   #pairs with 36 - 40 PNOs   :    6
   #pairs with 41 - 45 PNOs   :    0
   #pairs with 46 - 50 PNOs   :    0

Generation of (ij|ab)[P] integrals            ... on
Generation of (ia|bc)[P],(ja|bc)[P] integrals ... on
Storage of 3 and 4 external integrals         ... on
Generation of ALL (ka|bc)[P] integrals        ... on
Keep RI integrals in memory                   ... off

Ibatch:  1 (of  1)
Starting 2-4 index PNO integral generation ... done

Timings:
Total PNO integral transformation time     ...          1.179 sec
Size of the 3-external file                ...        14 MB
Size of the 4-external file                ...        57 MB
Size of the IKJL file                      ...         0 MB
Size of the all 3-external file            ...        96 MB
Size of the 1-external file                ...         0 MB

Making pair/pair overlap matrices          ... done (    0.143 sec)
Size of the pair overlap file              ... 30 MB
Redoing the guess amplitudes               ... done (    0.002 sec)

-------------------------
FINAL STARTUP INFORMATION
-------------------------

E(0)                                       ...   -997.079383238
E(L-MP2)                                   ...     -0.555225032
E(L-MP2) including corrections             ...     -0.555225032
Initial E(tot)                             ...   -997.634608270
<T|T>                                      ...      0.181488965
Number of pairs included                   ... 91
Total number of pairs                      ... 91

------------------------------------------------
                  RHF COUPLED CLUSTER ITERATIONS
------------------------------------------------

Number of PNO amplitudes to be optimized   ...        64809
Number of non-PNO amplitudes               ...       316771
Untruncated number of regular amplitudes   ...       316771

Iter       E(tot)           E(Corr)          Delta-E          Residual     Time
  0   -997.611308866     -0.531813558      0.023411474      0.013249626    1.68
                           *** Turning on DIIS ***
  1   -997.659413294     -0.579917986     -0.048104427      0.010687847    9.41
  2   -997.680346559     -0.600851251     -0.020933266      0.003412391    1.73
  3   -997.682846234     -0.603350926     -0.002499674      0.001779132    1.73
  4   -997.683385380     -0.603890072     -0.000539147      0.000547912    1.74
  5   -997.683518327     -0.604023019     -0.000132947      0.000148721    1.74
  6   -997.683547221     -0.604051913     -0.000028894      0.000051853    1.75
  7   -997.683552670     -0.604057362     -0.000005449      0.000020811    1.78
  8   -997.683553021     -0.604057713     -0.000000351      0.000007357    1.78
               --- The Coupled-Cluster iterations have converged ---

----------------------
COUPLED CLUSTER ENERGY
----------------------

E(0)                                       ...   -997.079383238
E(CORR)(strong-pairs)                      ...     -0.604057713
E(CORR)(weak-pairs)                        ...     -0.000112070
E(CORR)(corrected)                         ...     -0.604169783
E(TOT)                                     ...   -997.683553021
Singles Norm <S|S>**1/2                    ...      0.041895203  
T1 diagnostic                              ...      0.008216325  

------------------
LARGEST AMPLITUDES
------------------
  20-> 25  20-> 25       0.061845
  18-> 25  18-> 25       0.061842
  24-> 34  24-> 34       0.029691
  21-> 34  21-> 34       0.029691
  22-> 34  22-> 34       0.029691
  23-> 34  23-> 34       0.029691
  13-> 34  13-> 34       0.028109
  12-> 34  12-> 34       0.028109
  16-> 34  16-> 34       0.028109
  15-> 34  15-> 34       0.028109
  24-> 26  24-> 26       0.027165
  23-> 26  23-> 26       0.027165
  21-> 26  21-> 26       0.027163
  22-> 26  22-> 26       0.027163
  17-> 30  17-> 30       0.025639
  14-> 30  14-> 30       0.025638


-------------------------------------------
DLPNO BASED TRIPLES CORRECTION
-------------------------------------------

Singles multiplier          ...  1.000000
TCutTNO                     ... 1.000e-09
TCutMP2Pairs                ... 1.000e-06
TCutDOStrong                ... 1.000e-02
TCutMKNStrong               ... 1.000e-02
TCutDOWeak                  ... 2.000e-02
TCutMKNWeak                 ... 1.000e-01

Fragment selection                          .... not used
Number of Triples that are to be computed   ...       442

 . . . . . . . . .
10% done  
20% done  
30% done  
40% done  
50% done  
60% done  
70% done  
80% done  
90% done               (      5.657 sec)
Triples timings:
Total time for T0               ...     5.930 sec
Total time for Iterative (T)    ...     0.000 sec
Total time of overall (T)       ...     5.931 sec

Triples List generation         ...     0.000 sec
TNO generation                  ...     0.271 sec
Pair density generation         ...     0.001 sec
Look up tables                  ...     0.000 sec
Generating 3-index integrals    ...     1.865 sec
  Make 4-ind.int. from 3-ind.int...     1.816 sec
  Projecting amplitudes (D + S) ...     0.392 sec
  Downprojecting integrals      ...     0.001 sec
  Energy contr. (sum over a,b,c)...     0.383 sec
Fitting ET(->0)                 ...     0.000 sec

Everything after 3-index        ...     3.792 sec

Timing details:
 TNO integrals                  ...     3.359 sec
   Reading 3-index integrals    ...     0.010 sec
   Sorting integrals            ...     1.084 sec
       Sorting integrals 1      ...     0.000 sec
       Sorting integrals 2      ...     0.131 sec
       Sorting integrals 3      ...     0.087 sec
       Sorting integrals 4      ...     0.009 sec
       Sorting integrals 5      ...     0.010 sec
       Sorting integrals 6      ...     0.846 sec
   Calculating local VM**-1/2   ...     0.062 sec
   Orthogonal. integrals        ...     0.091 sec
   Multipl. 3-index integrals   ...     2.112 sec
   All concerning IRIab (w/TNO) ...     0.712 sec

 Calculate W0/W1                ...     1.195 sec
 W 3-ext contribution           ...     0.590 sec
 W 3-int contribution           ...     0.182 sec
 Sorting W                      ...     0.356 sec

 V exchange contribution        ...     0.130 sec

 Timings for Triples without generation
     of 3-index integrals       ...     3.790 sec
       0 weak pairs             ...     3.790 sec
       1 weak pair              ...     0.000 sec
       2 weak pairs             ...     0.000 sec
       3 weak pairs             ...     0.000 sec
  Extra time for extrapolation  ...     0.000 sec

Number of Triples   (0, 1, 2, 3 weak pairs; overall):    442       0       0       0  (   442)
Number of Atoms     (0, 1, 2, 3 weak pairs; overall):    8.0     0.0     0.0     0.0  (     8)
Number of PAOs      (0, 1, 2, 3 weak pairs; overall):   84.0     0.0     0.0     0.0  (    84)
Number of AuxFcns   (0, 1, 2, 3 weak pairs; overall):  193.4     0.0     0.0     0.0  (   320)
Number of TNOs      (0, 1, 2, 3 weak pairs         ):   48.1     0.0     0.0     0.0
Aver. Number of NTNO, Atoms, PAOs, AuxFcns / Triples:    442    48.1     8.0    84.0   193.4

Triples Correction (T)                     ...     -0.015486588
Final correlation energy                   ...     -0.619656371
E(CCSD)                                    ...   -997.683553021
E(CCSD(T))                                 ...   -997.699039609


Maximum memory used throughout the entire calculation: 979.4 MB


------------------------------------------------------------------------------- 
                                     TIMINGS                                   
------------------------------------------------------------------------------- 


Total execution time                   ...       40.236 sec

Localization of occupied MO's          ...        0.501 sec (  1.2%)
Fock Matrix Formation                  ...        0.785 sec (  2.0%)
Global overlap, Fock, MKN matrices     ...        0.166 sec (  0.4%)
Differential overlap integrals         ...        0.048 sec (  0.1%)
Organizing maps                        ...        0.008 sec (  0.0%)
RI 3-index integral generations        ...        2.593 sec (  6.4%)
RI-PNO integral transformation         ...        5.667 sec ( 14.1%)
Initial Guess                          ...        0.956 sec (  2.4%)
DIIS Solver                            ...        0.250 sec (  0.6%)
State Vector Update                    ...        0.007 sec (  0.0%)
Sigma-vector construction              ...       23.272 sec ( 57.8%)
  <D|H|D>(0-ext)                       ...        0.518 sec (  2.2% of sigma)
  <D|H|D>(2-ext Fock)                  ...        0.008 sec (  0.0% of sigma)
  <D|H|D>(2-ext)                       ...        0.865 sec (  3.7% of sigma)
  <D|H|D>(4-ext)                       ...        2.049 sec (  8.8% of sigma)
  <D|H|D>(4-ext-corr)                  ...        9.617 sec ( 41.3% of sigma)
  CCSD doubles correction              ...        0.085 sec (  0.4% of sigma)
  <S|H|S>                              ...        0.039 sec (  0.2% of sigma)
  <S|H|D>(1-ext)                       ...        0.070 sec (  0.3% of sigma)
  <D|H|S>(1-ext)                       ...        0.005 sec (  0.0% of sigma)
  <S|H|D>(3-ext)                       ...        0.079 sec (  0.3% of sigma)
  Fock-dressing                        ...        1.271 sec (  5.5% of sigma)
  Singles amplitudes                   ...        0.058 sec (  0.2% of sigma)
  (ik|jl)-dressing                     ...        8.004 sec ( 34.4% of sigma)
  (ij|ab),(ia|jb)-dressing             ...        0.552 sec (  2.4% of sigma)
  Pair energies                        ...        0.003 sec (  0.0% of sigma)
Total Time for computing (T)           ...        5.961 sec ( 14.8% of ALL)


-------------------------   --------------------
FINAL SINGLE POINT ENERGY      -997.699039609012
-------------------------   --------------------


                            ***************************************
                            *     ORCA property calculations      *
                            ***************************************

                                    ---------------------
                                    Active property flags
                                    ---------------------
   (+) Dipole Moment


------------------------------------------------------------------------------
                       ORCA ELECTRIC PROPERTIES CALCULATION
------------------------------------------------------------------------------

Dipole Moment Calculation                       ... on
Quadrupole Moment Calculation                   ... off
Polarizability Calculation                      ... off
GBWName                                         ... 1_2_dichloroethane_a.gbw
Electron density file                           ... 1_2_dichloroethane_a.scfp.tmp
The origin for moment calculation is the CENTER OF MASS  = (-0.000002, -0.000001 -0.000002)

-------------
DIPOLE MOMENT
-------------
                                X             Y             Z
Electronic contribution:     -0.00003      -0.00006      -0.00010
Nuclear contribution   :      0.00000       0.00008       0.00012
                        -----------------------------------------
Total Dipole Moment    :     -0.00002       0.00002       0.00002
                        -----------------------------------------
Magnitude (a.u.)       :      0.00004
Magnitude (Debye)      :      0.00010



--------------------
Rotational spectrum 
--------------------
 
Rotational constants in cm-1:     0.968660     0.048425     0.046943 
Rotational constants in MHz : 29039.685351  1451.756080  1407.306033 

 Dipole components along the rotational axes: 
x,y,z [a.u.] :     0.000024     0.000020     0.000023 
x,y,z [Debye]:     0.000061     0.000051     0.000058 

 

Timings for individual modules:

Sum of individual times         ...       59.964 sec (=   0.999 min)
GTO integral calculation        ...       16.713 sec (=   0.279 min)  27.9 %
SCF iterations                  ...        2.815 sec (=   0.047 min)   4.7 %
MDCI module                     ...       40.436 sec (=   0.674 min)  67.4 %
                             ****ORCA TERMINATED NORMALLY****
TOTAL RUN TIME: 0 days 0 hours 1 minutes 0 seconds 230 msec
1_2_dichloroethane_a.gbw -> /home1/pantazis/klk/VDZ/Haloalkanes/1_2_dichloroethane_a.gbw
1_2_dichloroethane_a.ges -> /home1/pantazis/klk/VDZ/Haloalkanes/1_2_dichloroethane_a.ges
1_2_dichloroethane_a.job -> /home1/pantazis/klk/VDZ/Haloalkanes/1_2_dichloroethane_a.job
1_2_dichloroethane_a.loc -> /home1/pantazis/klk/VDZ/Haloalkanes/1_2_dichloroethane_a.loc
1_2_dichloroethane_a.nodes -> /home1/pantazis/klk/VDZ/Haloalkanes/1_2_dichloroethane_a.nodes
1_2_dichloroethane_a.prop -> /home1/pantazis/klk/VDZ/Haloalkanes/1_2_dichloroethane_a.prop
1_2_dichloroethane_a_property.txt -> /home1/pantazis/klk/VDZ/Haloalkanes/1_2_dichloroethane_a_property.txt
1_2_dichloroethane_a.xyz -> /home1/pantazis/klk/VDZ/Haloalkanes/1_2_dichloroethane_a.xyz
cp: cannot stat 1_2_dichloroethane_a.asa.inp: No such file or directory
