! Job execution by suborca V 6.07 on ZEUS !
Job started from zeus1, running /scratch/pantazis/1_2_difluoroethane_g__ss0cd9/orca/orca copied from /opt/orca on zeussn149 in /scratch/pantazis/1_2_difluoroethane_g__ss0cd9
Job execution start: Sat Jun 29 11:10:04 CEST 2019
Shared library path: /scratch/pantazis/1_2_difluoroethane_g__ss0cd9/orca:/opt/openmpi_1.10.2/lib:/opt/intel/mkl/lib/intel64:/opt/intel/lib/intel64:
PBS Job ID is: 158772.icqc
izeussn149
izeussn149
izeussn149
izeussn149

                                 *****************
                                 * O   R   C   A *
                                 *****************

           --- An Ab Initio, DFT and Semiempirical electronic structure package ---

                  #######################################################
                  #                        -***-                        #
                  #          Department of theory and spectroscopy      #
                  #               Directorship: Frank Neese             #
                  #        Max Planck Institute fuer Kohlenforschung    #
                  #                Kaiser Wilhelm Platz 1               #
                  #                 D-45470 Muelheim/Ruhr               #
                  #                      Germany                        #
                  #                                                     #
                  #                  All rights reserved                #
                  #                        -***-                        #
                  #######################################################


                         Program Version 4.1.x  -  STABLE  -
                                (SVN: $Rev: 14094$)
                ($Date: 2019-06-14 15:01:15 +0200 (Fri, 14 Jun 2019) $)

                         (BUILD: $Sun Jun 23 06:18:31 CEST 2019$)


 With contributions from (in alphabetic order):
   Daniel Aravena         : Magnetic Properties
   Michael Atanasov       : Ab Initio Ligand Field Theory
   Alexander A. Auer      : GIAO ZORA
   Ute Becker             : Parallelization
   Giovanni Bistoni       : ED, Open-shell LED
   Martin Brehm           : Molecular dynamics
   Dmytro Bykov           : SCF Hessian
   Vijay G. Chilkuri      : MRCI spin determinant printing
   Dipayan Datta          : RHF DLPNO-CCSD density
   Achintya Kumar Dutta   : EOM-CC, STEOM-CC
   Dmitry Ganyushin       : Spin-Orbit,Spin-Spin,Magnetic field MRCI
   Miquel Garcia          : C-PCM Hessian
   Yang Guo               : DLPNO-NEVPT2, CIM, IAO-localization
   Andreas Hansen         : Spin unrestricted coupled pair/coupled cluster methods
   Benjamin Helmich-Paris : CASSCF linear response (MC-RPA)
   Lee Huntington         : MR-EOM, pCC
   Robert Izsak           : Overlap fitted RIJCOSX, COSX-SCS-MP3, EOM
   Christian Kollmar      : KDIIS, OOCD, Brueckner-CCSD(T), CCSD density
   Simone Kossmann        : Meta GGA functionals, TD-DFT gradient, OOMP2, MP2 Hessian
   Martin Krupicka        : AUTO-CI
   Lucas Lang             : DCDCAS
   Dagmar Lenk            : GEPOL surface, SMD
   Dimitrios Liakos       : Extrapolation schemes; parallel MDCI
   Dimitrios Manganas     : ROCIS; embedding schemes
   Dimitrios Pantazis     : SARC Basis sets
   Taras Petrenko         : DFT Hessian,TD-DFT gradient, ASA, ECA, R-Raman, ABS, FL, XAS/XES, NRVS
   Peter Pinski           : DLPNO-MP2, DLPNO-MP2 Gradient
   Christoph Reimann      : Effective Core Potentials
   Marius Retegan         : Local ZFS, SOC
   Christoph Riplinger    : Optimizer, TS searches, QM/MM, DLPNO-CCSD(T), (RO)-DLPNO pert. Triples
   Tobias Risthaus        : Range-separated hybrids, TD-DFT gradient, RPA, STAB
   Michael Roemelt        : Restricted open shell CIS
   Masaaki Saitow         : Open-shell DLPNO
   Barbara Sandhoefer     : DKH picture change effects
   Avijit Sen             : IP-ROCIS
   Kantharuban Sivalingam : CASSCF convergence, NEVPT2, FIC-MRCI
   Bernardo de Souza      : ESD, SOC TD-DFT
   Georgi Stoychev        : AutoAux, RI-MP2 NMR
   Willem Van den Heuvel  : Paramagnetic NMR
   Boris Wezisla          : Elementary symmetry handling
   Frank Wennmohs         : Technical directorship


 We gratefully acknowledge several colleagues who have allowed us to
 interface, adapt or use parts of their codes:
   Stefan Grimme, W. Hujo, H. Kruse,             : VdW corrections, initial TS optimization,
                  C. Bannwarth                     DFT functionals, gCP, sTDA/sTD-DF
   Ed Valeev                                     : LibInt (2-el integral package), F12 methods
   Garnet Chan, S. Sharma, J. Yang, R. Olivares  : DMRG
   Ulf Ekstrom                                   : XCFun DFT Library
   Mihaly Kallay                                 : mrcc  (arbitrary order and MRCC methods)
   Andreas Klamt, Michael Diedenhofen            : otool_cosmo (COSMO solvation model)
   Jiri Pittner, Ondrej Demel                    : Mk-CCSD
   Frank Weinhold                                : gennbo (NPA and NBO analysis)
   Christopher J. Cramer and Donald G. Truhlar   : smd solvation model
   Lars Goerigk                                  : TD-DFT with DH, B97 family of functionals
   V. Asgeirsson, H. Jonsson                     : NEB implementation
   FAccTs GmbH                                   : IRC, NEB, NEB-TS, Multilevel


 Your calculation uses the libint2 library for the computation of 2-el integrals
 For citations please refer to: http://libint.valeyev.net

 This ORCA versions uses:
   CBLAS   interface :  Fast vector & matrix operations
   LAPACKE interface :  Fast linear algebra routines
   SCALAPACK package :  Parallel linear algebra routines




***************************************
The coordinates will be read from file: 1_2_difluoroethane_g.xyz
***************************************


----- Orbital basis set information -----
Your calculation utilizes the basis: cc-pVDZ 
       H, B-Ne : Obtained from the ccRepo (grant-hill.group.shef.ac.uk/ccrepo) Feb. 2017
                 T. H. Dunning, Jr., J. Chem. Phys. 90, 1007 (1989)
            He : Obtained from the ccRepo (grant-hill.group.shef.ac.uk/ccrepo) Feb. 2017
                 D. E. Woon, T. H. Dunning, Jr., J. Chem. Phys. 100, 2975 (1994)
  Li-Be, Na-Mg : Obtained from the ccRepo (grant-hill.group.shef.ac.uk/ccrepo) Feb. 2017
                 B. P. Prascher, D. E. Woon, K. A. Peterson, T. H. Dunning, Jr., A. K. Wilson, Theor. Chem. Acc. 128, 69 (2011)
         Al-Ar : Obtained from the ccRepo (grant-hill.group.shef.ac.uk/ccrepo) Feb. 2017
                 D. E. Woon, T. H. Dunning, Jr., J. Chem. Phys. 98, 1358 (1993)
            Ca : Obtained from the Peterson Research Group Website (tyr0.chem.wsu.edu/~kipeters) Feb. 2017
                 J. Koput, K. A. Peterson, J. Phys. Chem. 106, 9595 (2002)
         Sc-Zn : Obtained from the ccRepo (grant-hill.group.shef.ac.uk/ccrepo) Feb. 2017
                 N. B. Balabanov, K. A. Peterson, J. Chem. Phys. 123, 064107 (2005)
                 N. B. Balabanov, K. A. Peterson, J. Chem. Phys. 125, 074110 (2006)
         Ga-Kr : Obtained from the ccRepo (grant-hill.group.shef.ac.uk/ccrepo) Feb. 2017
                 A. K. Wilson, D. E. Woon, K. A. Peterson, T. H. Dunning, Jr., J. Chem. Phys. 110, 7667 (1999)

----- AuxC basis set information -----
Your calculation utilizes the auxiliary basis: cc-pVDZ/C 
  H-He, B, Ne, Al-Ar, Ga-Br : Obtained from the EMSL Basis Set Exchange (bse.pnl.gov) Feb. 2017
                              F. Weigend, A. Kohn, C. Hattig, J. Chem. Phys. 116, 3175 (2002)
               Li-Be, Na-Mg : Obtained from the EMSL Basis Set Exchange (bse.pnl.gov) Feb. 2017
                              C. Haettig, Phys. Chem. Chem. Phys. 7, 59 (2005)
                        C-F : Obtained from the EMSL Basis Set Exchange (bse.pnl.gov) Feb. 2017
                              C. Haettig, Phys. Chem. Chem. Phys. 7, 59 (2005)
                              F. Weigend, A. Kohn, C. Hattig, J. Chem. Phys. 116, 3175 (2002)
                         Kr : Obtained from the TURBOMOLE 7.0 basis set library
                              F. Weigend, A. Kohn, C. Hattig, J. Chem. Phys. 116, 3175 (2002)
                              S function revised in Sep. 2009

----- AuxJK basis set information -----
Your calculation utilizes the auxiliary basis: cc-pVTZ/JK 
  H, B-F, Al-Cl, Ga-Br : Obtained from the TURBOMOLE 7.0 basis set library

================================================================================
                                        WARNINGS
                       Please study these warnings very carefully!
================================================================================


WARNING: MDCI localization with Augmented Hessian Foster-Boys
  ===> : Switching off randomization!

WARNING: Post HF methods need fully converged wavefunctions
  ===> : Setting SCFConvForced true
         You can overwrite this default with %scf ConvForced false 


INFO   : the flag for use of LIBINT has been found!

================================================================================
                                       INPUT FILE
================================================================================
NAME = 1_2_difluoroethane_g.inp
|  1> ! RHF DLPNO-CCSD(T) cc-pVDZ RIJK cc-pVTZ/JK cc-pVDZ/C
|  2> ! KDIIS SOSCF TightSCF TightPNO
|  3> 
|  4> %pal nprocs 4 end
|  5> 
|  6> %maxcore 8000
|  7> 
|  8> %scf maxiter 300
|  9>      shift shift 0.2 erroff 0.1 end
| 10> end
| 11> 
| 12> * xyzfile 0 1 1_2_difluoroethane_g.xyz 
| 13> 
| 14> 
| 15>                          ****END OF INPUT****
================================================================================

                       ****************************
                       * Single Point Calculation *
                       ****************************

---------------------------------
CARTESIAN COORDINATES (ANGSTROEM)
---------------------------------
  C      0.682310    0.510750   -0.319990
  F      1.460080   -0.544510    0.172190
  C     -0.682300    0.510750    0.319990
  F     -1.460090   -0.544510   -0.172190
  H      0.606950    0.390070   -1.405270
  H      1.203390    1.446010   -0.082970
  H     -0.606940    0.390100    1.405270
  H     -1.203380    1.446010    0.082970

----------------------------
CARTESIAN COORDINATES (A.U.)
----------------------------
  NO LB      ZA    FRAG     MASS         X           Y           Z
   0 C     6.0000    0    12.011    1.289379    0.965178   -0.604693
   1 F     9.0000    0    18.998    2.759151   -1.028975    0.325392
   2 C     6.0000    0    12.011   -1.289360    0.965178    0.604693
   3 F     9.0000    0    18.998   -2.759170   -1.028975   -0.325392
   4 H     1.0000    0     1.008    1.146969    0.737125   -2.655575
   5 H     1.0000    0     1.008    2.274078    2.732563   -0.156791
   6 H     1.0000    0     1.008   -1.146950    0.737182    2.655575
   7 H     1.0000    0     1.008   -2.274059    2.732563    0.156791

--------------------------------
INTERNAL COORDINATES (ANGSTROEM)
--------------------------------
 C      0   0   0     0.000000000000     0.00000000     0.00000000
 F      1   0   0     1.400264615314     0.00000000     0.00000000
 C      1   2   0     1.507227538396   110.71023204     0.00000000
 F      3   1   2     1.400275724313   110.71085229   287.35104097
 H      1   2   3     1.094566338967   107.67767073   238.46975900
 H      1   2   3     1.096546448811   107.62858607   119.98724700
 H      3   1   2     1.094563031762   111.01863773    46.89416368
 H      3   1   2     1.096546448811   109.78288678   168.66198787

---------------------------
INTERNAL COORDINATES (A.U.)
---------------------------
 C      0   0   0     0.000000000000     0.00000000     0.00000000
 F      1   0   0     2.646116637964     0.00000000     0.00000000
 C      1   2   0     2.848247269073   110.71023204     0.00000000
 F      3   1   2     2.646137630930   110.71085229   287.35104097
 H      1   2   3     2.068430616057   107.67767073   238.46975900
 H      1   2   3     2.072172481377   107.62858607   119.98724700
 H      3   1   2     2.068424366345   111.01863773    46.89416368
 H      3   1   2     2.072172481377   109.78288678   168.66198787

---------------------
BASIS SET INFORMATION
---------------------
There are 3 groups of distinct atoms

 Group   1 Type C   : 17s4p1d contracted to 3s2p1d pattern {881/31/1}
 Group   2 Type F   : 17s4p1d contracted to 3s2p1d pattern {881/31/1}
 Group   3 Type H   : 4s1p contracted to 2s1p pattern {31/1}

Atom   0C    basis set group =>   1
Atom   1F    basis set group =>   2
Atom   2C    basis set group =>   1
Atom   3F    basis set group =>   2
Atom   4H    basis set group =>   3
Atom   5H    basis set group =>   3
Atom   6H    basis set group =>   3
Atom   7H    basis set group =>   3
-------------------------------
AUXILIARY BASIS SET INFORMATION
-------------------------------
There are 3 groups of distinct atoms

 Group   1 Type C   : 7s5p4d2f contracted to 7s5p4d2f pattern {1111111/11111/1111/11}
 Group   2 Type F   : 7s5p4d2f contracted to 7s5p4d2f pattern {1111111/11111/1111/11}
 Group   3 Type H   : 3s2p1d contracted to 3s2p1d pattern {111/11/1}

Atom   0C    basis set group =>   1
Atom   1F    basis set group =>   2
Atom   2C    basis set group =>   1
Atom   3F    basis set group =>   2
Atom   4H    basis set group =>   3
Atom   5H    basis set group =>   3
Atom   6H    basis set group =>   3
Atom   7H    basis set group =>   3
-------------------------------
AUXILIARY BASIS SET INFORMATION
-------------------------------
There are 3 groups of distinct atoms

 Group   1 Type C   : 10s7p5d2f1g contracted to 10s7p5d2f1g pattern {1111111111/1111111/11111/11/1}
 Group   2 Type F   : 10s7p5d2f1g contracted to 10s7p5d2f1g pattern {1111111111/1111111/11111/11/1}
 Group   3 Type H   : 4s3p2d1f contracted to 4s3p2d1f pattern {1111/111/11/1}

Atom   0C    basis set group =>   1
Atom   1F    basis set group =>   2
Atom   2C    basis set group =>   1
Atom   3F    basis set group =>   2
Atom   4H    basis set group =>   3
Atom   5H    basis set group =>   3
Atom   6H    basis set group =>   3
Atom   7H    basis set group =>   3

Checking for AutoStart:
The File: 1_2_difluoroethane_g.gbw exists
Trying to determine its content:
     ... Fine, the file contains calculation information
     ... Fine, the calculation information was read
     ... Fine, the file contains a basis set
     ... Fine, the basis set was read
     ... Fine, the file contains a geometry
     ... Fine, the geometry was read
     ... Fine, the file contains a set of orbitals
     ... Fine, the orbitals can be read
     => possible old guess file was deleted
     => GBW file was renamed to GES file
     => GES file is set as startup file
     => Guess is set to MORead
     ... now leaving AutoStart



           ************************************************************
           *        Program running with 4 parallel MPI-processes     *
           *              working on a common directory               *
           ************************************************************
------------------------------------------------------------------------------
                           ORCA GTO INTEGRAL CALCULATION
                           -- RI-GTO INTEGRALS CHOSEN --
------------------------------------------------------------------------------

                         BASIS SET STATISTICS AND STARTUP INFO

Gaussian basis set:
 # of primitive gaussian shells          ...  108
 # of primitive gaussian functions       ...  164
 # of contracted shells                  ...   36
 # of contracted basis functions         ...   76
 Highest angular momentum                ...    2
 Maximum contraction depth               ...    8
Auxiliary gaussian basis set:
 # of primitive gaussian shells          ...  140
 # of primitive gaussian functions       ...  436
 # of contracted shells                  ...  140
 # of contracted aux-basis functions     ...  436
 Highest angular momentum                ...    4
 Maximum contraction depth               ...    1
Ratio of auxiliary to basis functions    ...  5.74
Integral package used                  ... LIBINT
 One Electron integrals                  ... done
 Ordering auxiliary basis shells         ... done
 Integral threshhold             Thresh  ...  2.500e-11
 Primitive cut-off               TCut    ...  2.500e-12
 Pre-screening matrix                    ... done
 Shell pair data                         ... 
 Ordering of the shell pairs             ... done (   0.000 sec) 665 of 666 pairs
 Determination of significant pairs      ... done (   0.000 sec)
 Creation of shell pair data             ... done (   0.000 sec)
 Storage of shell pair data              ... done (   0.001 sec)
 Shell pair data done in (   0.001 sec)
 Computing two index integrals           ... done
 Cholesky decomposition of the V-matrix  ... done


Timings:
 Total evaluation time                   ...  25.801 sec (  0.430 min)
 One electron matrix time                ...  25.518 sec (  0.425 min) = 98.9%
 Schwartz matrix evaluation time         ...   0.146 sec (  0.002 min) =  0.6%
 Two index repulsion integral time       ...   0.047 sec (  0.001 min) =  0.2%
 Cholesky decomposition of V             ...   0.063 sec (  0.001 min) =  0.2%
 Three index repulsion integral time     ...   0.000 sec (  0.000 min) =  0.0%



           ************************************************************
           *        Program running with 4 parallel MPI-processes     *
           *              working on a common directory               *
           ************************************************************
-------------------------------------------------------------------------------
                                 ORCA SCF
-------------------------------------------------------------------------------

------------
SCF SETTINGS
------------
Hamiltonian:
 Ab initio Hamiltonian  Method          .... Hartree-Fock(GTOs)
 RI-approximation to the Coulomb term is turned on
   Number of auxiliary basis functions  .... 436
   RI-JK (J+K treated both via RI)      .... on


General Settings:
 Integral files         IntName         .... 1_2_difluoroethane_g
 Hartree-Fock type      HFTyp           .... RHF
 Total Charge           Charge          ....    0
 Multiplicity           Mult            ....    1
 Number of Electrons    NEL             ....   34
 Basis Dimension        Dim             ....   76
 Nuclear Repulsion      ENuc            ....    126.7802444953 Eh

Convergence Acceleration:
 DIIS                   CNVDIIS         .... off
 Newton-Raphson         CNVNR           .... off
 SOSCF                  CNVSOSCF        .... on
   Start iteration      SOSCFMaxIt      ....   150
   Startup grad/error   SOSCFStart      ....  0.003300
 Level Shifting         CNVShift        .... on
   Level shift para.    LevelShift      ....    0.2000
   Turn off err/grad.   ShiftErr        ....    0.1000
 Zerner damping         CNVZerner       .... off
 Static damping         CNVDamp         .... off
 Fernandez-Rico         CNVRico         .... off

SCF Procedure:
 Maximum # iterations   MaxIter         ....   300
 SCF integral mode      SCFMode         .... Direct
   Integral package                     .... LIBINT
 Reset frequency        DirectResetFreq ....    20
 Integral Threshold     Thresh          ....  2.500e-11 Eh
 Primitive CutOff       TCut            ....  2.500e-12 Eh

Convergence Tolerance:
 Convergence Check Mode ConvCheckMode   .... Total+1el-Energy
 Convergence forced     ConvForced      .... 1
 Energy Change          TolE            ....  1.000e-08 Eh
 1-El. energy change                    ....  1.000e-05 Eh
 Orbital Gradient       TolG            ....  1.000e-05
 Orbital Rotation angle TolX            ....  1.000e-05


Diagonalization of the overlap matrix:
Smallest eigenvalue                        ... 6.140e-03
Time for diagonalization                   ...    0.003 sec
Threshold for overlap eigenvalues          ... 1.000e-08
Number of eigenvalues below threshold      ... 0
Time for construction of square roots      ...    0.004 sec
Total time needed                          ...    0.007 sec

---------------------
INITIAL GUESS: MOREAD
---------------------
Guess MOs are being read from file: 1_2_difluoroethane_g.ges
Input Geometry matches current geometry (good)
Atom 0: N(Shells)= 6 and 10 - projection required
Input basis set needs projection
NBasis(read)= 176
NBasis(calc)= 76
Basis set overlap was calculated
Using GuessMode=FMatrix for the initial guess
C*T matrix was formed
Effective Fockian was calculated
Effective Fockian was diagonalized
Initial density was built
                      ------------------
                      INITIAL GUESS DONE (   0.0 sec)
                      ------------------
--------------
SCF ITERATIONS
--------------
ITER       Energy         Delta-E        Max-DP      RMS-DP      [F,P]   Gradient Norm
                             ****Turning on KDIIS(Cayley)****
  0   -276.9380167938   0.000000000000 0.00117482  0.00007944  0.0062015   0.006301012
  1   -276.9381290219  -0.000112228116 0.00227441  0.00014656  0.0056386   0.005569922
  2   -276.9382763375  -0.000147315517 0.00401725  0.00025791  0.0045334   0.004562165
                      *** Initiating the SOSCF procedure ***
                           *** Shutting down KDIIS ***
                      *** Re-Reading the Fockian *** 
                      *** Removing any level shift *** 
ITER      Energy       Delta-E        Grad      Rot      Max-DP    RMS-DP
  3   -276.93847331  -0.0001969682  0.002713  0.002713  0.006111  0.000392
  4   -276.93858808  -0.0001147740  0.000028  0.000023  0.000051  0.000004
  5   -276.93858811  -0.0000000316  0.000012  0.000021  0.000034  0.000002
  6   -276.93858812  -0.0000000071  0.000003  0.000003  0.000007  0.000000
                  ***Gradient check signals convergence***
              ***Rediagonalizing the Fockian in SOSCF/NRSCF***

               *****************************************************
               *                     SUCCESS                       *
               *           SCF CONVERGED AFTER   7 CYCLES          *
               *****************************************************


----------------
TOTAL SCF ENERGY
----------------

Total Energy       :         -276.93858812 Eh           -7535.88210 eV

Components:
Nuclear Repulsion  :          126.78024450 Eh            3449.86584 eV
Electronic Energy  :         -403.71883261 Eh          -10985.74794 eV
One Electron Energy:         -635.50060400 Eh          -17292.85059 eV
Two Electron Energy:          231.78177139 Eh            6307.10265 eV

Virial components:
Potential Energy   :         -553.71308989 Eh          -15067.29918 eV
Kinetic Energy     :          276.77450177 Eh            7531.41708 eV
Virial Ratio       :            2.00059285


---------------
SCF CONVERGENCE
---------------

  Last Energy change         ...   -1.6229e-10  Tolerance :   1.0000e-08
  Last MAX-Density change    ...    1.8205e-06  Tolerance :   1.0000e-07
  Last RMS-Density change    ...    1.4212e-07  Tolerance :   5.0000e-09
  Last Orbital Gradient      ...    8.8411e-07  Tolerance :   1.0000e-05
  Last Orbital Rotation      ...    7.9433e-07  Tolerance :   1.0000e-05

             **** THE GBW FILE WAS UPDATED (1_2_difluoroethane_g.gbw) ****
             **** DENSITY FILE WAS UPDATED (1_2_difluoroethane_g.scfp.tmp) ****
             **** ENERGY FILE WAS UPDATED (1_2_difluoroethane_g.en.tmp) ****
----------------
ORBITAL ENERGIES
----------------

  NO   OCC          E(Eh)            E(eV) 
   0   2.0000     -26.279689      -715.1067 
   1   2.0000     -26.279687      -715.1066 
   2   2.0000     -11.328395      -308.2613 
   3   2.0000     -11.327721      -308.2430 
   4   2.0000      -1.591396       -43.3041 
   5   2.0000      -1.581160       -43.0256 
   6   2.0000      -1.048039       -28.5186 
   7   2.0000      -0.877468       -23.8771 
   8   2.0000      -0.723975       -19.7004 
   9   2.0000      -0.722636       -19.6639 
  10   2.0000      -0.693701       -18.8766 
  11   2.0000      -0.663773       -18.0622 
  12   2.0000      -0.658394       -17.9158 
  13   2.0000      -0.612813       -16.6755 
  14   2.0000      -0.540411       -14.7053 
  15   2.0000      -0.529414       -14.4061 
  16   2.0000      -0.509847       -13.8736 
  17   0.0000       0.178973         4.8701 
  18   0.0000       0.215110         5.8534 
  19   0.0000       0.240551         6.5457 
  20   0.0000       0.245340         6.6761 
  21   0.0000       0.283661         7.7188 
  22   0.0000       0.315640         8.5890 
  23   0.0000       0.381236        10.3740 
  24   0.0000       0.614133        16.7114 
  25   0.0000       0.693476        18.8704 
  26   0.0000       0.711009        19.3475 
  27   0.0000       0.726550        19.7704 
  28   0.0000       0.747134        20.3306 
  29   0.0000       0.758333        20.6353 
  30   0.0000       0.823009        22.3952 
  31   0.0000       0.838519        22.8173 
  32   0.0000       0.851085        23.1592 
  33   0.0000       0.875677        23.8284 
  34   0.0000       1.086645        29.5691 
  35   0.0000       1.125419        30.6242 
  36   0.0000       1.155020        31.4297 
  37   0.0000       1.289792        35.0970 
  38   0.0000       1.400122        38.0993 
  39   0.0000       1.492395        40.6101 
  40   0.0000       1.506770        41.0013 
  41   0.0000       1.566588        42.6290 
  42   0.0000       1.579286        42.9746 
  43   0.0000       1.611989        43.8645 
  44   0.0000       1.634734        44.4834 
  45   0.0000       1.644233        44.7419 
  46   0.0000       1.845954        50.2310 
  47   0.0000       1.854379        50.4602 
  48   0.0000       1.875086        51.0237 
  49   0.0000       1.893608        51.5277 
  50   0.0000       1.912408        52.0393 
  51   0.0000       1.947678        52.9990 
  52   0.0000       1.975776        53.7636 
  53   0.0000       1.985305        54.0229 
  54   0.0000       2.115305        57.5604 
  55   0.0000       2.133061        58.0435 
  56   0.0000       2.179706        59.3128 
  57   0.0000       2.308207        62.8095 
  58   0.0000       2.407070        65.4997 
  59   0.0000       2.408155        65.5292 
  60   0.0000       2.637659        71.7743 
  61   0.0000       2.700919        73.4957 
  62   0.0000       2.748821        74.7992 
  63   0.0000       2.752111        74.8887 
  64   0.0000       2.843154        77.3662 
  65   0.0000       2.867700        78.0341 
  66   0.0000       4.016673       109.2992 
  67   0.0000       4.020278       109.3973 
  68   0.0000       4.027342       109.5895 
  69   0.0000       4.048082       110.1539 
  70   0.0000       4.205376       114.4341 
  71   0.0000       4.252954       115.7288 
  72   0.0000       4.269344       116.1748 
  73   0.0000       4.288074       116.6844 
  74   0.0000       4.475483       121.7841 
  75   0.0000       4.491102       122.2091 

                    ********************************
                    * MULLIKEN POPULATION ANALYSIS *
                    ********************************

-----------------------
MULLIKEN ATOMIC CHARGES
-----------------------
   0 C :    0.271711
   1 F :   -0.358537
   2 C :    0.271712
   3 F :   -0.358543
   4 H :    0.052292
   5 H :    0.034537
   6 H :    0.052292
   7 H :    0.034536
Sum of atomic charges:   -0.0000000

--------------------------------
MULLIKEN REDUCED ORBITAL CHARGES
--------------------------------
  0 C s       :     3.039307  s :     3.039307
      pz      :     0.962891  p :     2.558846
      px      :     0.845556
      py      :     0.750399
      dz2     :     0.029609  d :     0.130136
      dxz     :     0.020222
      dyz     :     0.016571
      dx2y2   :     0.030391
      dxy     :     0.033342
  1 F s       :     3.927237  s :     3.927237
      pz      :     1.898069  p :     5.425892
      px      :     1.819356
      py      :     1.708467
      dz2     :     0.000690  d :     0.005408
      dxz     :     0.000654
      dyz     :     0.001094
      dx2y2   :     0.000975
      dxy     :     0.001995
  2 C s       :     3.039307  s :     3.039307
      pz      :     0.962893  p :     2.558847
      px      :     0.845555
      py      :     0.750398
      dz2     :     0.029609  d :     0.130134
      dxz     :     0.020222
      dyz     :     0.016570
      dx2y2   :     0.030391
      dxy     :     0.033342
  3 F s       :     3.927239  s :     3.927239
      pz      :     1.898070  p :     5.425895
      px      :     1.819351
      py      :     1.708474
      dz2     :     0.000690  d :     0.005408
      dxz     :     0.000654
      dyz     :     0.001094
      dx2y2   :     0.000975
      dxy     :     0.001995
  4 H s       :     0.917430  s :     0.917430
      pz      :     0.022399  p :     0.030277
      px      :     0.004057
      py      :     0.003822
  5 H s       :     0.935355  s :     0.935355
      pz      :     0.005533  p :     0.030108
      px      :     0.008137
      py      :     0.016437
  6 H s       :     0.917430  s :     0.917430
      pz      :     0.022399  p :     0.030278
      px      :     0.004057
      py      :     0.003822
  7 H s       :     0.935356  s :     0.935356
      pz      :     0.005534  p :     0.030108
      px      :     0.008137
      py      :     0.016437


                     *******************************
                     * LOEWDIN POPULATION ANALYSIS *
                     *******************************

----------------------
LOEWDIN ATOMIC CHARGES
----------------------
   0 C :    0.063729
   1 F :   -0.114274
   2 C :    0.063735
   3 F :   -0.114283
   4 H :    0.026652
   5 H :    0.023895
   6 H :    0.026651
   7 H :    0.023895

-------------------------------
LOEWDIN REDUCED ORBITAL CHARGES
-------------------------------
  0 C s       :     2.823635  s :     2.823635
      pz      :     1.013576  p :     2.796856
      px      :     0.937950
      py      :     0.845330
      dz2     :     0.076843  d :     0.315780
      dxz     :     0.046422
      dyz     :     0.037483
      dx2y2   :     0.074115
      dxy     :     0.080917
  1 F s       :     3.717782  s :     3.717782
      pz      :     1.880884  p :     5.389775
      px      :     1.801924
      py      :     1.706967
      dz2     :     0.000863  d :     0.006716
      dxz     :     0.000806
      dyz     :     0.001383
      dx2y2   :     0.001226
      dxy     :     0.002439
  2 C s       :     2.823635  s :     2.823635
      pz      :     1.013579  p :     2.796856
      px      :     0.937950
      py      :     0.845326
      dz2     :     0.076843  d :     0.315775
      dxz     :     0.046421
      dyz     :     0.037481
      dx2y2   :     0.074113
      dxy     :     0.080916
  3 F s       :     3.717789  s :     3.717789
      pz      :     1.880886  p :     5.389778
      px      :     1.801920
      py      :     1.706972
      dz2     :     0.000863  d :     0.006716
      dxz     :     0.000806
      dyz     :     0.001382
      dx2y2   :     0.001226
      dxy     :     0.002439
  4 H s       :     0.896159  s :     0.896159
      pz      :     0.053051  p :     0.077190
      px      :     0.013350
      py      :     0.010789
  5 H s       :     0.900012  s :     0.900012
      pz      :     0.015765  p :     0.076093
      px      :     0.021014
      py      :     0.039314
  6 H s       :     0.896158  s :     0.896158
      pz      :     0.053052  p :     0.077191
      px      :     0.013350
      py      :     0.010789
  7 H s       :     0.900012  s :     0.900012
      pz      :     0.015765  p :     0.076093
      px      :     0.021014
      py      :     0.039314


                      *****************************
                      * MAYER POPULATION ANALYSIS *
                      *****************************

  NA   - Mulliken gross atomic population
  ZA   - Total nuclear charge
  QA   - Mulliken gross atomic charge
  VA   - Mayer's total valence
  BVA  - Mayer's bonded valence
  FA   - Mayer's free valence

  ATOM       NA         ZA         QA         VA         BVA        FA
  0 C      5.7283     6.0000     0.2717     3.9147     3.9147    -0.0000
  1 F      9.3585     9.0000    -0.3585     0.9331     0.9331     0.0000
  2 C      5.7283     6.0000     0.2717     3.9147     3.9147    -0.0000
  3 F      9.3585     9.0000    -0.3585     0.9331     0.9331    -0.0000
  4 H      0.9477     1.0000     0.0523     0.9769     0.9769    -0.0000
  5 H      0.9655     1.0000     0.0345     0.9708     0.9708    -0.0000
  6 H      0.9477     1.0000     0.0523     0.9769     0.9769    -0.0000
  7 H      0.9655     1.0000     0.0345     0.9708     0.9708    -0.0000

  Mayer bond orders larger than 0.1
B(  0-C ,  1-F ) :   0.9056 B(  0-C ,  2-C ) :   1.0604 B(  0-C ,  4-H ) :   0.9673 
B(  0-C ,  5-H ) :   0.9676 B(  2-C ,  3-F ) :   0.9055 B(  2-C ,  6-H ) :   0.9673 
B(  2-C ,  7-H ) :   0.9676 

-------
TIMINGS
-------

Total SCF time: 0 days 0 hours 0 min 1 sec 

Total time                  ....       1.722 sec
Sum of individual times     ....       1.576 sec  ( 91.5%)

Fock matrix formation       ....       1.519 sec  ( 88.2%)
Diagonalization             ....       0.021 sec  (  1.2%)
Density matrix formation    ....       0.001 sec  (  0.0%)
Population analysis         ....       0.003 sec  (  0.2%)
Initial guess               ....       0.013 sec  (  0.7%)
Orbital Transformation      ....       0.000 sec  (  0.0%)
Orbital Orthonormalization  ....       0.000 sec  (  0.0%)
DIIS solution               ....       0.000 sec  (  0.0%)
SOSCF solution              ....       0.020 sec  (  1.1%)


           ************************************************************
           *        Program running with 4 parallel MPI-processes     *
           *              working on a common directory               *
           ************************************************************


------------------------------------------------------------------------------- 
                              ORCA-MATRIX DRIVEN CI                            
------------------------------------------------------------------------------- 


Wavefunction type
-----------------
Correlation treatment                      ...      CCSD     
Single excitations                         ... ON
Orbital optimization                       ... OFF
Calculation of Z vector                    ... OFF
Calculation of Brueckner orbitals          ... OFF
Perturbative triple excitations            ... ON
Calculation of F12 correction              ... OFF
Frozen core treatment                      ... chemical core (8 el)
Reference Wavefunction                     ... RHF
  Internal Orbitals:     4 ...   16 ( 13 MO's/ 26 electrons)
  Virtual  Orbitals:    17 ...   75 ( 59 MO's              )
Number of AO's                             ...     76
Number of electrons                        ...     34
Number of correlated electrons             ...     26

Algorithmic settings
--------------------
Integral transformation                    ... All integrals via the RI transformation
K(C) Formation                             ... RI-DLPNO
   PNO-Integral Storage                    ... ON DISK
   PNO occupation number cut-off           ... 1.000e-07
   Singles PNO occupation number cut-off   ... 3.000e-09
   PNO Mulliken prescreening cut-off       ... 1.000e-03
   Domain cut-off (Mulliken population)    ... 1.000e-03
   PNO Normalization                       ...    1
Maximum number of iterations               ...        50
Convergence tolerance (max. residuum)      ... 1.000e-05
Level shift for amplitude update           ... 2.000e-01
Maximum number of DIIS vectors             ...         7
DIIS turned on at iteration                ...         0
Damping before turning on DIIS             ...     0.500
Damping after turning on DIIS              ...     0.000
Pair specific amplitude update             ... OFF
Natural orbital iterations                 ... OFF
Perturbative natural orbital generation    ... OFF
Printlevel                                 ... 2

Singles Fock matrix elements calculated using PNOs.

Memory handling:
----------------
Maximum memory for working arrays          ...   8000 MB
Data storage in matrix containers          ... UNCOMPRESSED
Data type for integral storage             ... DOUBLE
In-Core Storage of quantities:
   Amplitudes+Sigma Vector      ... NO
   J+K operators                ... NO
   DIIS vectors                 ... NO
   3-external integrals         ... NO
   4-external integrals         ... NO

Localization treatment:
-----------------------
Localization option                        ...    6
Localization threshhold                    ... -1.0e+00
Using relative localization threshhold     ... 1.0e-08
Neglect threshold for strong pairs         ... 1.000e-05 Eh
Prescreening threshold for very weak pairs ... 1.000e-07 Eh

Initializing the integral package          ... done
Localizing the valence orbitals
------------------------------------------------------------------------------
                           ORCA ORBITAL LOCALIZATION
------------------------------------------------------------------------------

Input orbitals are from                  ... 1_2_difluoroethane_g.proc0.gbw
Output orbitals are to                   ... 1_2_difluoroethane_g.proc0.loc
Max. number of iterations                ... 128
Localizations seeded randomly            ... off
Convergence tolerance                    ... 1.000e-06
Using relative localization threshhold   ... 1.000e-08
Treshold for strong local MOs            ... 9.500e-01
Treshold for bond MOs                    ... 8.500e-01
Operator                                 ... 0
Orbital range for localization           ... 4 to 16
Localization criterion                   ... FOSTER-BOYS (AUGMENTED HESSIAN)
Doing the dipole integrals     ... o.k.
Initial value of the localization sum :    93.234329
ITERATION   0 : L=   97.5088668365 DL=  4.27e+00 (AVERGE_DL)=    0.2340977843 
ITERATION   1 : L=   98.2217866098 DL=  7.13e-01 (AVERGE_DL)=    0.0956033320 
ITERATION   2 : L=   98.2398699219 DL=  1.81e-02 (AVERGE_DL)=    0.0152262055 
ITERATION   3 : L=   98.2419088110 DL=  2.04e-03 (AVERGE_DL)=    0.0051126905 
ITERATION   4 : L=   98.2421161196 DL=  2.07e-04 (AVERGE_DL)=    0.0016302767 
ITERATION   5 : L=   98.2421767220 DL=  6.06e-05 (AVERGE_DL)=    0.0008814498 
ITERATION   6 : L=   98.2422238577 DL=  4.71e-05 (AVERGE_DL)=    0.0007773703 
ITERATION   7 : L=   98.2422680589 DL=  4.42e-05 (AVERGE_DL)=    0.0007527830 
ITERATION   8 : L=   98.2423118114 DL=  4.38e-05 (AVERGE_DL)=    0.0007489521 
ITERATION   9 : L=   98.2423555348 DL=  4.37e-05 (AVERGE_DL)=    0.0007487031 
ITERATION  10 : L=   98.2423993648 DL=  4.38e-05 (AVERGE_DL)=    0.0007496153 
ITERATION  11 : L=   98.2424433219 DL=  4.40e-05 (AVERGE_DL)=    0.0007507013 
ITERATION  12 : L=   98.2424873944 DL=  4.41e-05 (AVERGE_DL)=    0.0007516858 
ITERATION  13 : L=   98.2425315632 DL=  4.42e-05 (AVERGE_DL)=    0.0007525073 
ITERATION  14 : L=   98.2425758031 DL=  4.42e-05 (AVERGE_DL)=    0.0007531125 
ITERATION  15 : L=   98.2426200942 DL=  4.43e-05 (AVERGE_DL)=    0.0007535474 
DETECTED SLOW CONVERGENCE - QUITTING

------------------------------------------------------
AUGMENTED HESSIAN OPTIMIZATION OF FOSTER-BOYS ORBITALS
------------------------------------------------------

Spin operator:           0
Orbital window:          4 to 16
Number of iterations:    128
Gradient tolerance:      1.000e-06
Number of pairs:         78
Davidson threshold:      2000
Diagonalization method:  LAPACK
Iter:    0   L: 98.2426200942   Grad. norm: 8.434993e-03
   *** Detected a saddle point. ***
       Augmented Hessian eigenvalues:  5.93e-03  2.03e-04 -5.71e-03 -1.47e+00 ... 
Iter:    1   L: 98.2437526933   Grad. norm: 9.610434e-03
Iter:    2   L: 98.2446933648   Grad. norm: 1.178899e-02
Iter:    3   L: 98.2452762728   Grad. norm: 1.129017e-02
Iter:    4   L: 98.2454141827   Grad. norm: 3.709547e-03
   *** Likely close to a maximum now. ***
       Augmented Hessian eigenvalues:  3.30e-07 -1.24e-02 -1.24e-02 -1.48e+00 ... 
Iter:    5   L: 98.2454143478   Grad. norm: 2.447038e-07
LOCALIZATION HAS CONVERGED.

Eigenvalues of the Hessian:
  0 -1.235e-02
  1 -1.235e-02
  2 -1.478e+00
  3 -1.478e+00
  4 -1.510e+00
  5 -1.510e+00
  6 -3.629e+00
  7 -3.629e+00
  8 -3.656e+00
  9 -3.656e+00
    ...


------------------------------------------------------------------------------- 
                    LOCALIZED MOLECULAR ORBITAL COMPOSITIONS                   
------------------------------------------------------------------------------- 

The Mulliken populations for each LMO on each atom are computed
The LMO`s will be ordered according to atom index and type
  (A) Strongly localized MO`s have populations of >=0.950 on one atom
  (B) Two center bond orbitals have populations of >=0.850 on two atoms
  (C) Other MO`s are considered to be `delocalized`

FOUND  -   6 strongly local MO`s
       -   7 two center bond MO`s
       -   0 significantly delocalized MO`s

Rather strongly localized orbitals:
MO   9:   3F  -   0.991479
MO   8:   3F  -   0.990374
MO   7:   3F  -   0.985834
MO   6:   1F  -   0.991479
MO   5:   1F  -   0.990374
MO   4:   1F  -   0.985834
Bond-like localized orbitals:
MO  16:   7H  -   0.501095  and   2C  -   0.511513
MO  15:   6H  -   0.488117  and   2C  -   0.524035
MO  14:   5H  -   0.501094  and   0C  -   0.511513
MO  13:   4H  -   0.488117  and   0C  -   0.524036
MO  12:   3F  -   0.729338  and   2C  -   0.273586
MO  11:   2C  -   0.521898  and   0C  -   0.521896
MO  10:   1F  -   0.729337  and   0C  -   0.273587
Localized MO's were stored in: 1_2_difluoroethane_g.proc0.loc

Localizing the core orbitals
------------------------------------------------------------------------------
                           ORCA ORBITAL LOCALIZATION
------------------------------------------------------------------------------

Input orbitals are from                  ... 1_2_difluoroethane_g.proc0.loc
Output orbitals are to                   ... 1_2_difluoroethane_g.proc0.loc
Max. number of iterations                ... 128
Localizations seeded randomly            ... off
Convergence tolerance                    ... 1.000e-06
Using relative localization threshhold   ... 1.000e-08
Treshold for strong local MOs            ... 9.500e-01
Treshold for bond MOs                    ... 8.500e-01
Operator                                 ... 0
Orbital range for localization           ... 0 to 3
Localization criterion                   ... FOSTER-BOYS (AUGMENTED HESSIAN)
Doing the dipole integrals     ... o.k.
Initial value of the localization sum :    23.473304
ITERATION   0 : L=   23.4733052936 DL=  1.17e-06 (AVERGE_DL)=    0.0004408441 
ITERATION   1 : L=   23.4733052936 DL=  0.00e+00 (AVERGE_DL)=    0.0000000000 
LOCALIZATION SUM CONVERGED

------------------------------------------------------
AUGMENTED HESSIAN OPTIMIZATION OF FOSTER-BOYS ORBITALS
------------------------------------------------------

Spin operator:           0
Orbital window:          0 to 3
Number of iterations:    128
Gradient tolerance:      1.000e-06
Number of pairs:         6
Davidson threshold:      2000
Diagonalization method:  LAPACK
Iter:    0   L: 23.4733052936   Grad. norm: 2.611496e-07
   *** Likely close to a maximum now. ***
       Augmented Hessian eigenvalues:  1.32e-15 -2.80e+01 -2.80e+01 -3.25e+01 ... 
Iter:    1   L: 23.4733052936   Grad. norm: 7.586494e-21
LOCALIZATION HAS CONVERGED.

Eigenvalues of the Hessian:
  0 -2.800e+01
  1 -2.800e+01
  2 -3.245e+01
  3 -8.178e+01
  4 -8.178e+01
  5 -1.235e+02


------------------------------------------------------------------------------- 
                    LOCALIZED MOLECULAR ORBITAL COMPOSITIONS                   
------------------------------------------------------------------------------- 

The Mulliken populations for each LMO on each atom are computed
The LMO`s will be ordered according to atom index and type
  (A) Strongly localized MO`s have populations of >=0.950 on one atom
  (B) Two center bond orbitals have populations of >=0.850 on two atoms
  (C) Other MO`s are considered to be `delocalized`

FOUND  -   4 strongly local MO`s
       -   0 two center bond MO`s
       -   0 significantly delocalized MO`s

Rather strongly localized orbitals:
MO   3:   3F  -   0.999817
MO   2:   2C  -   0.999519
MO   1:   1F  -   0.999817
MO   0:   0C  -   0.999519
Localized MO's were stored in: 1_2_difluoroethane_g.proc0.loc

Warning: internal orbitals are localized - no re-canonicalization of internal orbitals

--------------------------
CLOSED-SHELL FOCK OPERATOR
--------------------------

RI-JK section for the Fock operator:
  RHF full Fock operator         ... done
  RHF frozen core Fock operator  ... done
Time needed for Fock operator              ...            0.485 sec
Reference energy                           ...   -276.938588119

--------------
DLPNO SETTINGS (2015 fully linear scaling implementation)
--------------

TCutMKN:           1.000e-03
TCutPAO:           1.000e-03
TCutPNO:           1.000e-07
TCutPNOSingles:    3.000e-09
TCutEN:            9.700e-01
TCutPAOExt:        1.000e-01
TCutPairs:         1.000e-05
TCutPre:           1.000e-07
TCutOSV:           1.000e-06
TCutDOij:          1.000e-05
TCutDO:            5.000e-03
TCutC:             1.000e-04
TCutCPAO:          1.000e-03
TCutCMO:           1.000e-03
TScaleDOMP2PreScr: 2.000e+00
TScaleMKNMP2PreScr:1.000e+01
TScalePNOMP2PreScr:1.000e+00
PAO overlap thresh 1.000e-08
Using PNOs for Singles Fock computation
Use new domains
Use fully linear algorithm
TCutTNO:           1.000e-09
TCutMP2Pairs:      1.000e-06
TCutDOStrong:      2.000e-03
TCutMKNStrong:     1.000e-02
TCutMKNWeak:       1.000e-01
TCutDOWeak:        4.000e-03
NTCutTNO:          1

--------------------------
Calculating differential overlap integrals ... ok
--------------------------
ELECTRON PAIR PRESCREENING
--------------------------

Dipole-based pair screening          .... used

   TCutDOij = 1.000000e-05
   TCutPre  = 1.000000e-07
   .... Finished loop over pairs
Total time spent in the prescreening                  ...     0.000 sec
sum of pair energies estimated for screened out pairs ...       0.000000000000 Eh
Thresholds for map construction and integral transformation for crude MP2:
   TCutMKN                    ...     1.0e-02
   TCutDO                     ...     1.0e-02
   TCutPairs                  ...     1.0e-05
   TCutPNO_CrudeMP2           ...     1.0e-07
   TCutPNOSingles_CrudeMP2    ...     3.0e-09
--------------------------------
LOCAL RI TRANSFORMATION (IAVPAO)
--------------------------------

Orbital window:       4 to 16
Number of PAOs:      76
Basis functions:     76 (36 shells)
Aux. functions:     280 (96 shells)

Processing maps (0.0 sec)
Average map sizes:
   Aux shells -> MOs              13.0
   Aux shells -> PAOs             76.0
   MOs        -> AO shells        36.0
   PAOs       -> AO shells        36.0

Calculating integrals (0.2 sec, 2.114 MB)
Sorting integrals (0.0 sec, 2.111 MB)
Total time for the integral transformation: 0.2 sec
--------------------------------
INITIAL GUESS AND PNO GENERATION
--------------------------------

PNO truncation parameters                   .... 
    PAOOverlapThresh   =        1.000e-08

    TCutPairs          =        1.000e-05
    TCutPNO            =        1.000e-07
    TCutPNOSingles     =        3.000e-09
    TCutMP2Pairs       =        1.000e-06
    TCutMKN            =        1.000e-02
    TCutDO             =        1.000e-02

Pair selection                          .... not used
Type of local MP2 treatment                 .... semi-local MP2
Strategy for PNO selection                  .... occupation number selection
Pair density normalization                  .... MP2 norm
Spin component scaling                      .... not used

   .... Finished loop over pairs
Making pair pair interaction lists          ... done

                       ===========================
                         91 OF   91 PAIRS ARE KEPT CCSD PAIRS
                          0 OF   91 PAIRS ARE KEPT MP2 PAIRS FOR (T)
                          0 OF   91 PAIRS ARE SKIPPED
                       ===========================

Total time spent in the initial guess                 ...     0.070 sec
SL-MP2 correlation energy (all non-screened pairs)    ...      -0.625597695075 Eh

Initial PNO correlation energy                        ...      -0.625456080502 Eh
sum of pair energies prescreened and skipped MP2 pairs...       0.000000000000 Eh
sum of pair energies of crude MP2 skipped pairs only  ...       0.000000000000 Eh
sum of MP2 pair energies for pairs that were not kept ...       0.000000000000 Eh
sum of PNO error estimates for the kept pairs         ...      -0.000141614574 Eh
                                                          --------------------
sum of all corrections                                         -0.000141614574
Initial total correlation energy                               -0.625597695075
Thresholds for map construction and integral transformation for fine MP2 and CCSD(T) calculation:
   TCutMKN   ...     1.0e-03
   TCutDO    ...     5.0e-03
   TCutPairs ...     1.0e-05
   TCutCMO   ...     1.0e-03
   TCutCPAO  ...     1.0e-03

Thresholds for map construction and integral transformation for strong Triples:
   TCutMKN   ...     1.0e-02
   TCutDO    ...     1.0e-02
   TCutCMO   ...     1.0e-03
   TCutCPAO  ...     1.0e-03

Thresholds for map construction and integral transformation for weak Triples:
   TCutMKN   ...     1.0e-01
   TCutDO    ...     2.0e-02
   TCutCMO   ...     1.0e-03
   TCutCPAO  ...     1.0e-03

--------------------------------
LOCAL RI TRANSFORMATION (IAVPAO)
--------------------------------

Orbital window:       4 to 16
Number of PAOs:      76
Basis functions:     76 (36 shells)
Aux. functions:     280 (96 shells)

Processing maps (0.0 sec)
Average map sizes:
   Aux shells -> MOs              13.0
   Aux shells -> PAOs             76.0
   MOs        -> AO shells        36.0
   PAOs       -> AO shells        36.0

Calculating integrals (0.2 sec, 2.114 MB)
Sorting integrals (0.0 sec, 2.111 MB)
Total time for the integral transformation: 0.3 sec
--------------------------------
INITIAL GUESS AND PNO GENERATION
--------------------------------

PNO truncation parameters                   .... 
    ScaleTCutPNO       =        1.000e-02
    PAOOverlapThresh   =        1.000e-08

    TCutPairs          =        1.000e-05
    TCutPNO            =        1.000e-07
    TCutPNOSingles     =        3.000e-09
    TCutMP2Pairs       =        1.000e-06
    TCutMKN            =        1.000e-03
    TCutDO             =        5.000e-03

Pair selection                          .... not used
Type of local MP2 treatment                 .... full local PMP2
Strategy for PNO selection                  .... occupation number selection
Pair density normalization                  .... MP2 norm
Spin component scaling                      .... not used

PASS-1: Formation of initial guess LMP2 amplitudes
Initial amplitudes guess done. Entering LMP2 iteration loop:
   Max. no of iterations          ...  50
   Energy convergence tolerance   ...    1.0e-07
   Residual convergence tolerance ...    5.0e-07
   Fock matrix cutoff             ...    1.0e-05 Eh
   DIIS convergence acceleration parameters:
        Max # vectors in DIIS     ... 7
        Start iteration of DIIS   ... 0
        Levelshift                ... 2.000e-01
        Damping factor 1          ... 5.000e-01
        Damping factor 2          ... 1.000e+00
   L-MP2 PNO cut-off              ...   1.0e-09
   L-MP2 PNO cut-off (core)       ...   1.0e-11
                           *** Turning on DIIS ***
LMP2-Iter=   0:  ELMP2= -0.641972991351  DE=   1.6e-02 RMAX=   1.0e-02
LMP2-Iter=   1:  ELMP2= -0.649151729903  DE=   7.2e-03 RMAX=   5.9e-03
LMP2-Iter=   2:  ELMP2= -0.650207014913  DE=   1.1e-03 RMAX=   1.2e-03
LMP2-Iter=   3:  ELMP2= -0.650357155244  DE=   1.5e-04 RMAX=   4.5e-04
LMP2-Iter=   4:  ELMP2= -0.650369108743  DE=   1.2e-05 RMAX=   4.1e-05
LMP2-Iter=   5:  ELMP2= -0.650368697350  DE=   4.1e-07 RMAX=   1.6e-05
LMP2-Iter=   6:  ELMP2= -0.650368561087  DE=   1.4e-07 RMAX=   9.7e-07
LMP2-Iter=   7:  ELMP2= -0.650368527714  DE=   3.3e-08 RMAX=   2.3e-07
LMP2-Iter=   8:  ELMP2= -0.650368534895  DE=   7.2e-09 RMAX=   3.9e-08 => CONVERGED
PASS-2: Formation of Pair natural orbitals
   .... Finished loop over pairs

 PNO Occupation Number Statistics: 
  | Av. % of trace(Dij) retained        ...  99.452480014284
  | sigma^2 in % of trace(Dij) retained ...   1.31e+00
  | Av. % of trace(Di) retained         ...  99.999887013258
  | sigma^2 in % of trace(Di) retained  ...   1.89e-09
 Distributions of % trace(Dij) recovered:
  |       >= 99.9  ...    57 ( 62.6 % of all pairs)
  |   [90.0, 99.0) ...    13 ( 14.3 % of all pairs)
  |   [99.0, 99.9) ...    21 ( 23.1 % of all pairs)
 Distributions of % trace(Di) recovered :
  |       >= 99.9  ...    13 (100.0 % of all I-pairs )

Making pair pair interaction lists          ... done

                       ===========================
                         91 OF   91 PAIRS ARE KEPT
                       ===========================

Total time spent in the initial guess                 ...     0.596 sec
L-MP2 correlation energy (all non-screened pairs)     ...      -0.650368534895 Eh
L-MP2 PNO error correction                            ...      -0.000001529331 Eh
                                                          --------------------
Initial total L-MP2 energy (non-screened pairs)       ...      -0.650370064226 Eh

Initial PNO correlation energy                        ...      -0.650240052376 Eh
sum of pair energies estimated for screened out pairs ...       0.000000000000 Eh
sum of MP2 pair energies for pairs that were not kept ...       0.000000000000 Eh
sum of PNO error estimates for the kept pairs         ...      -0.000130011850 Eh
                                                          --------------------
sum of all corrections                                         -0.000130011850
Initial total correlation energy                               -0.650370064226
Thresholds for map construction and integral transformation for fine MP2 and CCSD(T) calculation:
   TCutMKN   ...     1.0e-03
   TCutDO    ...     5.0e-03
   TCutPairs ...     1.0e-05
   TCutCMO   ...     1.0e-03
   TCutCPAO  ...     1.0e-03

Time for aux screen maps:            0.000
Time for maps after fine MP2:            0.002
-----------------------------
LOCAL RI TRANSFORMATION (IJV)
-----------------------------

Orbital window:       4 to 16
Basis functions:     76 (36 shells)
Aux. functions:     280 (96 shells)

Processing maps (0.0 sec)
Average map sizes:
   Aux shells -> MOs(i)           13.0
   Aux shells -> MOs(j)           13.0
   MOs        -> AO shells        36.0

Calculating integrals (0.2 sec, 0.364 MB)
Sorting integrals (0.0 sec, 0.361 MB)
Total time for the integral transformation: 0.2 sec
--------------------------------
LOCAL RI TRANSFORMATION (VABPAO)
--------------------------------

Number of PAOs:      76
Basis functions:     76 (36 shells)
Aux. functions:     280 (96 shells)

Processing maps (0.0 sec)
Average map sizes:
   Aux shells -> PAOs             76.0
   PAOs       -> AO shells        36.0

Calculating integrals (0.3 sec, 21.863 MB)
Finished


-------------------------------------
Pair Pair Term precalculation with     
RI-(ij|mn) and (im|jn) transformation  
ON THE FLY                             
-------------------------------------

   IBatch   1 (of   1)              ... done (    1.693 sec)
Total EXT                           ...           1.729 sec

---------------------
RI-PNO TRANSFORMATION
---------------------

Total Number of PNOs                   ...  2063
Average number of PNOs per pair        ...    22
Maximal number of PNOs per pair        ...    35
   #pairs with  1 -  5 PNOs   :    0
   #pairs with  6 - 10 PNOs   :   11
   #pairs with 11 - 15 PNOs   :    6
   #pairs with 16 - 20 PNOs   :   17
   #pairs with 21 - 25 PNOs   :   18
   #pairs with 26 - 30 PNOs   :   25
   #pairs with 31 - 35 PNOs   :   14
   #pairs with 36 - 40 PNOs   :    0
   #pairs with 41 - 45 PNOs   :    0
   #pairs with 46 - 50 PNOs   :    0

Generation of (ij|ab)[P] integrals            ... on
Generation of (ia|bc)[P],(ja|bc)[P] integrals ... on
Storage of 3 and 4 external integrals         ... on
Generation of ALL (ka|bc)[P] integrals        ... on
Keep RI integrals in memory                   ... off

Ibatch:  1 (of  1)
Starting 2-4 index PNO integral generation ... done

Timings:
Total PNO integral transformation time     ...          0.602 sec
Size of the 3-external file                ...        11 MB
Size of the 4-external file                ...        40 MB
Size of the IKJL file                      ...         0 MB
Size of the all 3-external file            ...        71 MB
Size of the 1-external file                ...         0 MB

Making pair/pair overlap matrices          ... done (    0.090 sec)
Size of the pair overlap file              ... 23 MB
Redoing the guess amplitudes               ... done (    0.001 sec)

-------------------------
FINAL STARTUP INFORMATION
-------------------------

E(0)                                       ...   -276.938588119
E(L-MP2)                                   ...     -0.650370064
E(L-MP2) including corrections             ...     -0.650370064
Initial E(tot)                             ...   -277.588958183
<T|T>                                      ...      0.148859316
Number of pairs included                   ... 91
Total number of pairs                      ... 91

------------------------------------------------
                  RHF COUPLED CLUSTER ITERATIONS
------------------------------------------------

Number of PNO amplitudes to be optimized   ...        52035
Number of non-PNO amplitudes               ...       316771
Untruncated number of regular amplitudes   ...       316771

Iter       E(tot)           E(Corr)          Delta-E          Residual     Time
  0   -277.564434797     -0.625716667      0.024653398      0.016931548    0.57
                           *** Turning on DIIS ***
  1   -277.599593540     -0.660875409     -0.035158743      0.011373648    0.57
  2   -277.617832293     -0.679114163     -0.018238753      0.003849186    0.57
  3   -277.621043775     -0.682325645     -0.003211482      0.002235026    0.58
  4   -277.622012030     -0.683293899     -0.000968254      0.000679134    0.57
  5   -277.622250247     -0.683532116     -0.000238217      0.000225283    0.58
  6   -277.622277287     -0.683559157     -0.000027040      0.000098315    0.58
  7   -277.622282437     -0.683564307     -0.000005150      0.000031643    0.59
  8   -277.622283865     -0.683565735     -0.000001428      0.000009090    0.58
               --- The Coupled-Cluster iterations have converged ---

----------------------
COUPLED CLUSTER ENERGY
----------------------

E(0)                                       ...   -276.938588119
E(CORR)(strong-pairs)                      ...     -0.683565735
E(CORR)(weak-pairs)                        ...     -0.000130012
E(CORR)(corrected)                         ...     -0.683695747
E(TOT)                                     ...   -277.622283865
Singles Norm <S|S>**1/2                    ...      0.050935190  
T1 diagnostic                              ...      0.009989213  

------------------
LARGEST AMPLITUDES
------------------
  12-> 17  12-> 17       0.042655
  10-> 17  10-> 17       0.042652
  16-> 17  16-> 17       0.037041
  14-> 17  14-> 17       0.037041
  13-> 17  13-> 17       0.035479
  15-> 17  15-> 17       0.035479
  14-> 24  14-> 24       0.035112
  16-> 24  16-> 24       0.035107
  12-> 21  12-> 17       0.027058
  12-> 17  12-> 21       0.027058
  10-> 21  10-> 17       0.027057
  10-> 17  10-> 21       0.027057
  13-> 25  13-> 25       0.026668
  15-> 25  15-> 25       0.026664
  16-> 25  16-> 17       0.024715
  16-> 17  16-> 25       0.024715


-------------------------------------------
DLPNO BASED TRIPLES CORRECTION
-------------------------------------------

Singles multiplier          ...  1.000000
TCutTNO                     ... 1.000e-09
TCutMP2Pairs                ... 1.000e-06
TCutDOStrong                ... 1.000e-02
TCutMKNStrong               ... 1.000e-02
TCutDOWeak                  ... 2.000e-02
TCutMKNWeak                 ... 1.000e-01

Fragment selection                          .... not used
Number of Triples that are to be computed   ...       442

 . . . . . . . . .
10% done  
20% done  
30% done  
40% done  
50% done  
60% done  
70% done  
80% done  
90% done               (      2.803 sec)
Triples timings:
Total time for T0               ...     3.048 sec
Total time for Iterative (T)    ...     0.000 sec
Total time of overall (T)       ...     3.048 sec

Triples List generation         ...     0.000 sec
TNO generation                  ...     0.243 sec
Pair density generation         ...     0.001 sec
Look up tables                  ...     0.000 sec
Generating 3-index integrals    ...     1.146 sec
  Make 4-ind.int. from 3-ind.int...     0.669 sec
  Projecting amplitudes (D + S) ...     0.249 sec
  Downprojecting integrals      ...     0.000 sec
  Energy contr. (sum over a,b,c)...     0.243 sec
Fitting ET(->0)                 ...     0.000 sec

Everything after 3-index        ...     1.657 sec

Timing details:
 TNO integrals                  ...     1.695 sec
   Reading 3-index integrals    ...     0.006 sec
   Sorting integrals            ...     0.371 sec
       Sorting integrals 1      ...     0.000 sec
       Sorting integrals 2      ...     0.093 sec
       Sorting integrals 3      ...     0.030 sec
       Sorting integrals 4      ...     0.006 sec
       Sorting integrals 5      ...     0.008 sec
       Sorting integrals 6      ...     0.234 sec
   Calculating local VM**-1/2   ...     0.032 sec
   Orthogonal. integrals        ...     0.053 sec
   Multipl. 3-index integrals   ...     1.233 sec
   All concerning IRIab (w/TNO) ...     0.312 sec

 Calculate W0/W1                ...     0.493 sec
 W 3-ext contribution           ...     0.267 sec
 W 3-int contribution           ...     0.087 sec
 Sorting W                      ...     0.119 sec

 V exchange contribution        ...     0.101 sec

 Timings for Triples without generation
     of 3-index integrals       ...     1.656 sec
       0 weak pairs             ...     1.656 sec
       1 weak pair              ...     0.000 sec
       2 weak pairs             ...     0.000 sec
       3 weak pairs             ...     0.000 sec
  Extra time for extrapolation  ...     0.000 sec

Number of Triples   (0, 1, 2, 3 weak pairs; overall):    442       0       0       0  (   442)
Number of Atoms     (0, 1, 2, 3 weak pairs; overall):    8.0     0.0     0.0     0.0  (     8)
Number of PAOs      (0, 1, 2, 3 weak pairs; overall):   75.6     0.0     0.0     0.0  (    76)
Number of AuxFcns   (0, 1, 2, 3 weak pairs; overall):  167.5     0.0     0.0     0.0  (   280)
Number of TNOs      (0, 1, 2, 3 weak pairs         ):   44.6     0.0     0.0     0.0
Aver. Number of NTNO, Atoms, PAOs, AuxFcns / Triples:    442    44.6     8.0    75.6   167.5

Triples Correction (T)                     ...     -0.013582207
Final correlation energy                   ...     -0.697277953
E(CCSD)                                    ...   -277.622283865
E(CCSD(T))                                 ...   -277.635866072


Maximum memory used throughout the entire calculation: 681.8 MB


------------------------------------------------------------------------------- 
                                     TIMINGS                                   
------------------------------------------------------------------------------- 


Total execution time                   ...       13.652 sec

Localization of occupied MO's          ...        0.367 sec (  2.7%)
Fock Matrix Formation                  ...        0.485 sec (  3.6%)
Global overlap, Fock, MKN matrices     ...        0.116 sec (  0.9%)
Differential overlap integrals         ...        0.038 sec (  0.3%)
Organizing maps                        ...        0.007 sec (  0.1%)
RI 3-index integral generations        ...        0.991 sec (  7.3%)
RI-PNO integral transformation         ...        2.583 sec ( 18.9%)
Initial Guess                          ...        0.674 sec (  4.9%)
DIIS Solver                            ...        0.152 sec (  1.1%)
State Vector Update                    ...        0.005 sec (  0.0%)
Sigma-vector construction              ...        5.134 sec ( 37.6%)
  <D|H|D>(0-ext)                       ...        0.336 sec (  6.5% of sigma)
  <D|H|D>(2-ext Fock)                  ...        0.005 sec (  0.1% of sigma)
  <D|H|D>(2-ext)                       ...        0.605 sec ( 11.8% of sigma)
  <D|H|D>(4-ext)                       ...        0.471 sec (  9.2% of sigma)
  <D|H|D>(4-ext-corr)                  ...        1.955 sec ( 38.1% of sigma)
  CCSD doubles correction              ...        0.044 sec (  0.9% of sigma)
  <S|H|S>                              ...        0.036 sec (  0.7% of sigma)
  <S|H|D>(1-ext)                       ...        0.064 sec (  1.3% of sigma)
  <D|H|S>(1-ext)                       ...        0.003 sec (  0.1% of sigma)
  <S|H|D>(3-ext)                       ...        0.041 sec (  0.8% of sigma)
  Fock-dressing                        ...        0.864 sec ( 16.8% of sigma)
  Singles amplitudes                   ...        0.048 sec (  0.9% of sigma)
  (ik|jl)-dressing                     ...        0.237 sec (  4.6% of sigma)
  (ij|ab),(ia|jb)-dressing             ...        0.377 sec (  7.3% of sigma)
  Pair energies                        ...        0.002 sec (  0.0% of sigma)
Total Time for computing (T)           ...        3.060 sec ( 22.4% of ALL)


-------------------------   --------------------
FINAL SINGLE POINT ENERGY      -277.635866072008
-------------------------   --------------------


                            ***************************************
                            *     ORCA property calculations      *
                            ***************************************

                                    ---------------------
                                    Active property flags
                                    ---------------------
   (+) Dipole Moment


------------------------------------------------------------------------------
                       ORCA ELECTRIC PROPERTIES CALCULATION
------------------------------------------------------------------------------

Dipole Moment Calculation                       ... on
Quadrupole Moment Calculation                   ... off
Polarizability Calculation                      ... off
GBWName                                         ... 1_2_difluoroethane_g.gbw
Electron density file                           ... 1_2_difluoroethane_g.scfp.tmp
The origin for moment calculation is the CENTER OF MASS  = (-0.000001, -0.134996 -0.000000)

-------------
DIPOLE MOMENT
-------------
                                X             Y             Z
Electronic contribution:     -0.00001      -3.35812       0.00001
Nuclear contribution   :      0.00003       4.58988       0.00000
                        -----------------------------------------
Total Dipole Moment    :      0.00002       1.23176       0.00001
                        -----------------------------------------
Magnitude (a.u.)       :      1.23176
Magnitude (Debye)      :      3.13089



--------------------
Rotational spectrum 
--------------------
 
Rotational constants in cm-1:     0.576649     0.162989     0.143313 
Rotational constants in MHz : 17287.492313  4886.278108  4296.401278 

 Dipole components along the rotational axes: 
x,y,z [a.u.] :     0.000025    -1.231762     0.000002 
x,y,z [Debye]:     0.000063    -3.130889     0.000005 

 

Timings for individual modules:

Sum of individual times         ...       72.754 sec (=   1.213 min)
GTO integral calculation        ...       57.120 sec (=   0.952 min)  78.5 %
SCF iterations                  ...        1.826 sec (=   0.030 min)   2.5 %
MDCI module                     ...       13.808 sec (=   0.230 min)  19.0 %
                             ****ORCA TERMINATED NORMALLY****
TOTAL RUN TIME: 0 days 0 hours 1 minutes 12 seconds 985 msec
1_2_difluoroethane_g.gbw -> /home1/pantazis/klk/VDZ/Haloalkanes/1_2_difluoroethane_g.gbw
1_2_difluoroethane_g.ges -> /home1/pantazis/klk/VDZ/Haloalkanes/1_2_difluoroethane_g.ges
1_2_difluoroethane_g.job -> /home1/pantazis/klk/VDZ/Haloalkanes/1_2_difluoroethane_g.job
1_2_difluoroethane_g.loc -> /home1/pantazis/klk/VDZ/Haloalkanes/1_2_difluoroethane_g.loc
1_2_difluoroethane_g.nodes -> /home1/pantazis/klk/VDZ/Haloalkanes/1_2_difluoroethane_g.nodes
1_2_difluoroethane_g.prop -> /home1/pantazis/klk/VDZ/Haloalkanes/1_2_difluoroethane_g.prop
1_2_difluoroethane_g_property.txt -> /home1/pantazis/klk/VDZ/Haloalkanes/1_2_difluoroethane_g_property.txt
1_2_difluoroethane_g.xyz -> /home1/pantazis/klk/VDZ/Haloalkanes/1_2_difluoroethane_g.xyz
cp: cannot stat 1_2_difluoroethane_g.asa.inp: No such file or directory
