! Job execution by suborca V 6.07 on ZEUS !
Job started from zeus1, running /scratch/pantazis/1_3_butadiene_cis__4rtp4o/orca/orca copied from /opt/orca on zeussn151 in /scratch/pantazis/1_3_butadiene_cis__4rtp4o
Job execution start: Sat Jun 29 10:18:03 CEST 2019
Shared library path: /scratch/pantazis/1_3_butadiene_cis__4rtp4o/orca:/opt/openmpi_1.10.2/lib:/opt/intel/mkl/lib/intel64:/opt/intel/lib/intel64:
PBS Job ID is: 158659.icqc
izeussn151
izeussn151
izeussn151
izeussn151

                                 *****************
                                 * O   R   C   A *
                                 *****************

           --- An Ab Initio, DFT and Semiempirical electronic structure package ---

                  #######################################################
                  #                        -***-                        #
                  #          Department of theory and spectroscopy      #
                  #               Directorship: Frank Neese             #
                  #        Max Planck Institute fuer Kohlenforschung    #
                  #                Kaiser Wilhelm Platz 1               #
                  #                 D-45470 Muelheim/Ruhr               #
                  #                      Germany                        #
                  #                                                     #
                  #                  All rights reserved                #
                  #                        -***-                        #
                  #######################################################


                         Program Version 4.1.x  -  STABLE  -
                                (SVN: $Rev: 14094$)
                ($Date: 2019-06-14 15:01:15 +0200 (Fri, 14 Jun 2019) $)

                         (BUILD: $Sun Jun 23 06:18:31 CEST 2019$)


 With contributions from (in alphabetic order):
   Daniel Aravena         : Magnetic Properties
   Michael Atanasov       : Ab Initio Ligand Field Theory
   Alexander A. Auer      : GIAO ZORA
   Ute Becker             : Parallelization
   Giovanni Bistoni       : ED, Open-shell LED
   Martin Brehm           : Molecular dynamics
   Dmytro Bykov           : SCF Hessian
   Vijay G. Chilkuri      : MRCI spin determinant printing
   Dipayan Datta          : RHF DLPNO-CCSD density
   Achintya Kumar Dutta   : EOM-CC, STEOM-CC
   Dmitry Ganyushin       : Spin-Orbit,Spin-Spin,Magnetic field MRCI
   Miquel Garcia          : C-PCM Hessian
   Yang Guo               : DLPNO-NEVPT2, CIM, IAO-localization
   Andreas Hansen         : Spin unrestricted coupled pair/coupled cluster methods
   Benjamin Helmich-Paris : CASSCF linear response (MC-RPA)
   Lee Huntington         : MR-EOM, pCC
   Robert Izsak           : Overlap fitted RIJCOSX, COSX-SCS-MP3, EOM
   Christian Kollmar      : KDIIS, OOCD, Brueckner-CCSD(T), CCSD density
   Simone Kossmann        : Meta GGA functionals, TD-DFT gradient, OOMP2, MP2 Hessian
   Martin Krupicka        : AUTO-CI
   Lucas Lang             : DCDCAS
   Dagmar Lenk            : GEPOL surface, SMD
   Dimitrios Liakos       : Extrapolation schemes; parallel MDCI
   Dimitrios Manganas     : ROCIS; embedding schemes
   Dimitrios Pantazis     : SARC Basis sets
   Taras Petrenko         : DFT Hessian,TD-DFT gradient, ASA, ECA, R-Raman, ABS, FL, XAS/XES, NRVS
   Peter Pinski           : DLPNO-MP2, DLPNO-MP2 Gradient
   Christoph Reimann      : Effective Core Potentials
   Marius Retegan         : Local ZFS, SOC
   Christoph Riplinger    : Optimizer, TS searches, QM/MM, DLPNO-CCSD(T), (RO)-DLPNO pert. Triples
   Tobias Risthaus        : Range-separated hybrids, TD-DFT gradient, RPA, STAB
   Michael Roemelt        : Restricted open shell CIS
   Masaaki Saitow         : Open-shell DLPNO
   Barbara Sandhoefer     : DKH picture change effects
   Avijit Sen             : IP-ROCIS
   Kantharuban Sivalingam : CASSCF convergence, NEVPT2, FIC-MRCI
   Bernardo de Souza      : ESD, SOC TD-DFT
   Georgi Stoychev        : AutoAux, RI-MP2 NMR
   Willem Van den Heuvel  : Paramagnetic NMR
   Boris Wezisla          : Elementary symmetry handling
   Frank Wennmohs         : Technical directorship


 We gratefully acknowledge several colleagues who have allowed us to
 interface, adapt or use parts of their codes:
   Stefan Grimme, W. Hujo, H. Kruse,             : VdW corrections, initial TS optimization,
                  C. Bannwarth                     DFT functionals, gCP, sTDA/sTD-DF
   Ed Valeev                                     : LibInt (2-el integral package), F12 methods
   Garnet Chan, S. Sharma, J. Yang, R. Olivares  : DMRG
   Ulf Ekstrom                                   : XCFun DFT Library
   Mihaly Kallay                                 : mrcc  (arbitrary order and MRCC methods)
   Andreas Klamt, Michael Diedenhofen            : otool_cosmo (COSMO solvation model)
   Jiri Pittner, Ondrej Demel                    : Mk-CCSD
   Frank Weinhold                                : gennbo (NPA and NBO analysis)
   Christopher J. Cramer and Donald G. Truhlar   : smd solvation model
   Lars Goerigk                                  : TD-DFT with DH, B97 family of functionals
   V. Asgeirsson, H. Jonsson                     : NEB implementation
   FAccTs GmbH                                   : IRC, NEB, NEB-TS, Multilevel


 Your calculation uses the libint2 library for the computation of 2-el integrals
 For citations please refer to: http://libint.valeyev.net

 This ORCA versions uses:
   CBLAS   interface :  Fast vector & matrix operations
   LAPACKE interface :  Fast linear algebra routines
   SCALAPACK package :  Parallel linear algebra routines




***************************************
The coordinates will be read from file: 1_3_butadiene_cis.xyz
***************************************


----- Orbital basis set information -----
Your calculation utilizes the basis: cc-pVDZ 
       H, B-Ne : Obtained from the ccRepo (grant-hill.group.shef.ac.uk/ccrepo) Feb. 2017
                 T. H. Dunning, Jr., J. Chem. Phys. 90, 1007 (1989)
            He : Obtained from the ccRepo (grant-hill.group.shef.ac.uk/ccrepo) Feb. 2017
                 D. E. Woon, T. H. Dunning, Jr., J. Chem. Phys. 100, 2975 (1994)
  Li-Be, Na-Mg : Obtained from the ccRepo (grant-hill.group.shef.ac.uk/ccrepo) Feb. 2017
                 B. P. Prascher, D. E. Woon, K. A. Peterson, T. H. Dunning, Jr., A. K. Wilson, Theor. Chem. Acc. 128, 69 (2011)
         Al-Ar : Obtained from the ccRepo (grant-hill.group.shef.ac.uk/ccrepo) Feb. 2017
                 D. E. Woon, T. H. Dunning, Jr., J. Chem. Phys. 98, 1358 (1993)
            Ca : Obtained from the Peterson Research Group Website (tyr0.chem.wsu.edu/~kipeters) Feb. 2017
                 J. Koput, K. A. Peterson, J. Phys. Chem. 106, 9595 (2002)
         Sc-Zn : Obtained from the ccRepo (grant-hill.group.shef.ac.uk/ccrepo) Feb. 2017
                 N. B. Balabanov, K. A. Peterson, J. Chem. Phys. 123, 064107 (2005)
                 N. B. Balabanov, K. A. Peterson, J. Chem. Phys. 125, 074110 (2006)
         Ga-Kr : Obtained from the ccRepo (grant-hill.group.shef.ac.uk/ccrepo) Feb. 2017
                 A. K. Wilson, D. E. Woon, K. A. Peterson, T. H. Dunning, Jr., J. Chem. Phys. 110, 7667 (1999)

----- AuxC basis set information -----
Your calculation utilizes the auxiliary basis: cc-pVDZ/C 
  H-He, B, Ne, Al-Ar, Ga-Br : Obtained from the EMSL Basis Set Exchange (bse.pnl.gov) Feb. 2017
                              F. Weigend, A. Kohn, C. Hattig, J. Chem. Phys. 116, 3175 (2002)
               Li-Be, Na-Mg : Obtained from the EMSL Basis Set Exchange (bse.pnl.gov) Feb. 2017
                              C. Haettig, Phys. Chem. Chem. Phys. 7, 59 (2005)
                        C-F : Obtained from the EMSL Basis Set Exchange (bse.pnl.gov) Feb. 2017
                              C. Haettig, Phys. Chem. Chem. Phys. 7, 59 (2005)
                              F. Weigend, A. Kohn, C. Hattig, J. Chem. Phys. 116, 3175 (2002)
                         Kr : Obtained from the TURBOMOLE 7.0 basis set library
                              F. Weigend, A. Kohn, C. Hattig, J. Chem. Phys. 116, 3175 (2002)
                              S function revised in Sep. 2009

----- AuxJK basis set information -----
Your calculation utilizes the auxiliary basis: cc-pVTZ/JK 
  H, B-F, Al-Cl, Ga-Br : Obtained from the TURBOMOLE 7.0 basis set library

================================================================================
                                        WARNINGS
                       Please study these warnings very carefully!
================================================================================


WARNING: MDCI localization with Augmented Hessian Foster-Boys
  ===> : Switching off randomization!

WARNING: Post HF methods need fully converged wavefunctions
  ===> : Setting SCFConvForced true
         You can overwrite this default with %scf ConvForced false 


INFO   : the flag for use of LIBINT has been found!

================================================================================
                                       INPUT FILE
================================================================================
NAME = 1_3_butadiene_cis.inp
|  1> ! RHF DLPNO-CCSD(T) cc-pVDZ RIJK cc-pVTZ/JK cc-pVDZ/C
|  2> ! KDIIS SOSCF TightSCF TightPNO
|  3> 
|  4> %pal nprocs 4 end
|  5> 
|  6> %maxcore 8000
|  7> 
|  8> %scf maxiter 300
|  9>      shift shift 0.2 erroff 0.1 end
| 10> end
| 11> 
| 12> * xyzfile 0 1 1_3_butadiene_cis.xyz 
| 13> 
| 14> 
| 15>                          ****END OF INPUT****
================================================================================

                       ****************************
                       * Single Point Calculation *
                       ****************************

---------------------------------
CARTESIAN COORDINATES (ANGSTROEM)
---------------------------------
  C     -1.550360   -0.504060   -0.000030
  C     -0.736220    0.563450    0.000030
  C      0.736220    0.563450   -0.000040
  C      1.550360   -0.504060    0.000020
  H     -1.194360    1.551510    0.000140
  H      1.194370    1.551510   -0.000120
  H     -1.176340   -1.524420   -0.000160
  H     -2.628950   -0.383380    0.000040
  H      1.176320   -1.524420    0.000160
  H      2.628950   -0.383410   -0.000030

----------------------------
CARTESIAN COORDINATES (A.U.)
----------------------------
  NO LB      ZA    FRAG     MASS         X           Y           Z
   0 C     6.0000    0    12.011   -2.929756   -0.952535   -0.000057
   1 C     6.0000    0    12.011   -1.391254    1.064766    0.000057
   2 C     6.0000    0    12.011    1.391254    1.064766   -0.000076
   3 C     6.0000    0    12.011    2.929756   -0.952535    0.000038
   4 H     1.0000    0     1.008   -2.257013    2.931929    0.000265
   5 H     1.0000    0     1.008    2.257032    2.931929   -0.000227
   6 H     1.0000    0     1.008   -2.222960   -2.880736   -0.000302
   7 H     1.0000    0     1.008   -4.967996   -0.724483    0.000076
   8 H     1.0000    0     1.008    2.222923   -2.880736    0.000302
   9 H     1.0000    0     1.008    4.967996   -0.724540   -0.000057

--------------------------------
INTERNAL COORDINATES (ANGSTROEM)
--------------------------------
 C      0   0   0     0.000000000000     0.00000000     0.00000000
 C      1   0   0     1.342535490518     0.00000000     0.00000000
 C      2   1   0     1.472440001664   127.33107320     0.00000000
 C      3   2   1     1.342535490518   127.33107320     0.00000000
 H      2   1   3     1.089107357105   117.79288967   179.99981337
 H      3   2   1     1.089111561090   114.87651438   179.99132627
 H      1   2   3     1.086749974419   122.53816714     0.00000000
 H      1   2   3     1.085320254764   120.94698258   179.99953432
 H      4   3   2     1.086756859100   122.53717711     0.00000000
 H      4   3   2     1.085316918278   120.94855661   180.00076525

---------------------------
INTERNAL COORDINATES (A.U.)
---------------------------
 C      0   0   0     0.000000000000     0.00000000     0.00000000
 C      1   0   0     2.537024402148     0.00000000     0.00000000
 C      2   1   0     2.782508351775   127.33107320     0.00000000
 C      3   2   1     2.537024402148   127.33107320     0.00000000
 H      2   1   3     2.058114635367   117.79288967   179.99981337
 H      3   2   1     2.058122579748   114.87651438   179.99132627
 H      1   2   3     2.053659827698   122.53816714     0.00000000
 H      1   2   3     2.050958049101   120.94698258   179.99953432
 H      4   3   2     2.053672837859   122.53717711     0.00000000
 H      4   3   2     2.050951744056   120.94855661   180.00076525

---------------------
BASIS SET INFORMATION
---------------------
There are 2 groups of distinct atoms

 Group   1 Type C   : 17s4p1d contracted to 3s2p1d pattern {881/31/1}
 Group   2 Type H   : 4s1p contracted to 2s1p pattern {31/1}

Atom   0C    basis set group =>   1
Atom   1C    basis set group =>   1
Atom   2C    basis set group =>   1
Atom   3C    basis set group =>   1
Atom   4H    basis set group =>   2
Atom   5H    basis set group =>   2
Atom   6H    basis set group =>   2
Atom   7H    basis set group =>   2
Atom   8H    basis set group =>   2
Atom   9H    basis set group =>   2
-------------------------------
AUXILIARY BASIS SET INFORMATION
-------------------------------
There are 2 groups of distinct atoms

 Group   1 Type C   : 7s5p4d2f contracted to 7s5p4d2f pattern {1111111/11111/1111/11}
 Group   2 Type H   : 3s2p1d contracted to 3s2p1d pattern {111/11/1}

Atom   0C    basis set group =>   1
Atom   1C    basis set group =>   1
Atom   2C    basis set group =>   1
Atom   3C    basis set group =>   1
Atom   4H    basis set group =>   2
Atom   5H    basis set group =>   2
Atom   6H    basis set group =>   2
Atom   7H    basis set group =>   2
Atom   8H    basis set group =>   2
Atom   9H    basis set group =>   2
-------------------------------
AUXILIARY BASIS SET INFORMATION
-------------------------------
There are 2 groups of distinct atoms

 Group   1 Type C   : 10s7p5d2f1g contracted to 10s7p5d2f1g pattern {1111111111/1111111/11111/11/1}
 Group   2 Type H   : 4s3p2d1f contracted to 4s3p2d1f pattern {1111/111/11/1}

Atom   0C    basis set group =>   1
Atom   1C    basis set group =>   1
Atom   2C    basis set group =>   1
Atom   3C    basis set group =>   1
Atom   4H    basis set group =>   2
Atom   5H    basis set group =>   2
Atom   6H    basis set group =>   2
Atom   7H    basis set group =>   2
Atom   8H    basis set group =>   2
Atom   9H    basis set group =>   2

Checking for AutoStart:
The File: 1_3_butadiene_cis.gbw exists
Trying to determine its content:
     ... Fine, the file contains calculation information
     ... Fine, the calculation information was read
     ... Fine, the file contains a basis set
     ... Fine, the basis set was read
     ... Fine, the file contains a geometry
     ... Fine, the geometry was read
     ... Fine, the file contains a set of orbitals
     ... Fine, the orbitals can be read
     => possible old guess file was deleted
     => GBW file was renamed to GES file
     => GES file is set as startup file
     => Guess is set to MORead
     ... now leaving AutoStart



           ************************************************************
           *        Program running with 4 parallel MPI-processes     *
           *              working on a common directory               *
           ************************************************************
------------------------------------------------------------------------------
                           ORCA GTO INTEGRAL CALCULATION
                           -- RI-GTO INTEGRALS CHOSEN --
------------------------------------------------------------------------------

                         BASIS SET STATISTICS AND STARTUP INFO

Gaussian basis set:
 # of primitive gaussian shells          ...  118
 # of primitive gaussian functions       ...  178
 # of contracted shells                  ...   42
 # of contracted basis functions         ...   86
 Highest angular momentum                ...    2
 Maximum contraction depth               ...    8
Auxiliary gaussian basis set:
 # of primitive gaussian shells          ...  160
 # of primitive gaussian functions       ...  496
 # of contracted shells                  ...  160
 # of contracted aux-basis functions     ...  496
 Highest angular momentum                ...    4
 Maximum contraction depth               ...    1
Ratio of auxiliary to basis functions    ...  5.77
Integral package used                  ... LIBINT
 One Electron integrals                  ... done
 Ordering auxiliary basis shells         ... done
 Integral threshhold             Thresh  ...  2.500e-11
 Primitive cut-off               TCut    ...  2.500e-12
 Pre-screening matrix                    ... done
 Shell pair data                         ... 
 Ordering of the shell pairs             ... done (   0.000 sec) 902 of 903 pairs
 Determination of significant pairs      ... done (   0.000 sec)
 Creation of shell pair data             ... done (   0.000 sec)
 Storage of shell pair data              ... done (   0.000 sec)
 Shell pair data done in (   0.001 sec)
 Computing two index integrals           ... done
 Cholesky decomposition of the V-matrix  ... done


Timings:
 Total evaluation time                   ...  57.937 sec (  0.966 min)
 One electron matrix time                ...  57.707 sec (  0.962 min) = 99.6%
 Schwartz matrix evaluation time         ...   0.139 sec (  0.002 min) =  0.2%
 Two index repulsion integral time       ...   0.036 sec (  0.001 min) =  0.1%
 Cholesky decomposition of V             ...   0.028 sec (  0.000 min) =  0.0%
 Three index repulsion integral time     ...   0.000 sec (  0.000 min) =  0.0%



           ************************************************************
           *        Program running with 4 parallel MPI-processes     *
           *              working on a common directory               *
           ************************************************************
-------------------------------------------------------------------------------
                                 ORCA SCF
-------------------------------------------------------------------------------

------------
SCF SETTINGS
------------
Hamiltonian:
 Ab initio Hamiltonian  Method          .... Hartree-Fock(GTOs)
 RI-approximation to the Coulomb term is turned on
   Number of auxiliary basis functions  .... 496
   RI-JK (J+K treated both via RI)      .... on


General Settings:
 Integral files         IntName         .... 1_3_butadiene_cis
 Hartree-Fock type      HFTyp           .... RHF
 Total Charge           Charge          ....    0
 Multiplicity           Mult            ....    1
 Number of Electrons    NEL             ....   30
 Basis Dimension        Dim             ....   86
 Nuclear Repulsion      ENuc            ....    104.3335511501 Eh

Convergence Acceleration:
 DIIS                   CNVDIIS         .... off
 Newton-Raphson         CNVNR           .... off
 SOSCF                  CNVSOSCF        .... on
   Start iteration      SOSCFMaxIt      ....   150
   Startup grad/error   SOSCFStart      ....  0.003300
 Level Shifting         CNVShift        .... on
   Level shift para.    LevelShift      ....    0.2000
   Turn off err/grad.   ShiftErr        ....    0.1000
 Zerner damping         CNVZerner       .... off
 Static damping         CNVDamp         .... off
 Fernandez-Rico         CNVRico         .... off

SCF Procedure:
 Maximum # iterations   MaxIter         ....   300
 SCF integral mode      SCFMode         .... Direct
   Integral package                     .... LIBINT
 Reset frequency        DirectResetFreq ....    20
 Integral Threshold     Thresh          ....  2.500e-11 Eh
 Primitive CutOff       TCut            ....  2.500e-12 Eh

Convergence Tolerance:
 Convergence Check Mode ConvCheckMode   .... Total+1el-Energy
 Convergence forced     ConvForced      .... 1
 Energy Change          TolE            ....  1.000e-08 Eh
 1-El. energy change                    ....  1.000e-05 Eh
 Orbital Gradient       TolG            ....  1.000e-05
 Orbital Rotation angle TolX            ....  1.000e-05


Diagonalization of the overlap matrix:
Smallest eigenvalue                        ... 1.827e-03
Time for diagonalization                   ...    0.004 sec
Threshold for overlap eigenvalues          ... 1.000e-08
Number of eigenvalues below threshold      ... 0
Time for construction of square roots      ...    0.004 sec
Total time needed                          ...    0.007 sec

---------------------
INITIAL GUESS: MOREAD
---------------------
Guess MOs are being read from file: 1_3_butadiene_cis.ges
Input Geometry matches current geometry (good)
Atom 0: N(Shells)= 6 and 10 - projection required
Input basis set needs projection
NBasis(read)= 204
NBasis(calc)= 86
Basis set overlap was calculated
Using GuessMode=FMatrix for the initial guess
C*T matrix was formed
Effective Fockian was calculated
Effective Fockian was diagonalized
Initial density was built
                      ------------------
                      INITIAL GUESS DONE (   0.0 sec)
                      ------------------
--------------
SCF ITERATIONS
--------------
ITER       Energy         Delta-E        Max-DP      RMS-DP      [F,P]   Gradient Norm
                             ****Turning on KDIIS(Cayley)****
  0   -154.9271884870   0.000000000000 0.00187132  0.00013205  0.0089316   0.005744059
  1   -154.9272588125  -0.000070325500 0.00378215  0.00026753  0.0080988   0.005230829
  2   -154.9273825983  -0.000123785782 0.00611763  0.00043084  0.0064844   0.004201482
  3   -154.9275278821  -0.000145283765 0.00911761  0.00064028  0.0038857   0.002521406
                      *** Initiating the SOSCF procedure ***
                           *** Shutting down KDIIS ***
                      *** Re-Reading the Fockian *** 
                      *** Removing any level shift *** 
ITER      Energy       Delta-E        Grad      Rot      Max-DP    RMS-DP
  4   -154.92761012  -0.0000822332  0.000018  0.000018  0.000029  0.000002
  5   -154.92761012  -0.0000000053  0.000006  0.000012  0.000010  0.000000
                  ***Gradient check signals convergence***
              ***Rediagonalizing the Fockian in SOSCF/NRSCF***

               *****************************************************
               *                     SUCCESS                       *
               *           SCF CONVERGED AFTER   6 CYCLES          *
               *****************************************************


----------------
TOTAL SCF ENERGY
----------------

Total Energy       :         -154.92761012 Eh           -4215.79460 eV

Components:
Nuclear Repulsion  :          104.33355115 Eh            2839.06026 eV
Electronic Energy  :         -259.26116127 Eh           -7054.85486 eV
One Electron Energy:         -414.08089618 Eh          -11267.71402 eV
Two Electron Energy:          154.81973490 Eh            4212.85916 eV

Virial components:
Potential Energy   :         -309.57483962 Eh           -8423.95965 eV
Kinetic Energy     :          154.64722950 Eh            4208.16505 eV
Virial Ratio       :            2.00181303


---------------
SCF CONVERGENCE
---------------

  Last Energy change         ...   -3.0298e-10  Tolerance :   1.0000e-08
  Last MAX-Density change    ...    3.4013e-06  Tolerance :   1.0000e-07
  Last RMS-Density change    ...    2.1440e-07  Tolerance :   5.0000e-09
  Last Orbital Gradient      ...    1.8768e-06  Tolerance :   1.0000e-05
  Last Orbital Rotation      ...    2.2843e-06  Tolerance :   1.0000e-05

             **** THE GBW FILE WAS UPDATED (1_3_butadiene_cis.gbw) ****
             **** DENSITY FILE WAS UPDATED (1_3_butadiene_cis.scfp.tmp) ****
             **** ENERGY FILE WAS UPDATED (1_3_butadiene_cis.en.tmp) ****
----------------
ORBITAL ENERGIES
----------------

  NO   OCC          E(Eh)            E(eV) 
   0   2.0000     -11.243631      -305.9547 
   1   2.0000     -11.242897      -305.9348 
   2   2.0000     -11.235776      -305.7410 
   3   2.0000     -11.235774      -305.7410 
   4   2.0000      -1.084922       -29.5222 
   5   2.0000      -0.991732       -26.9864 
   6   2.0000      -0.843081       -22.9414 
   7   2.0000      -0.724510       -19.7149 
   8   2.0000      -0.664898       -18.0928 
   9   2.0000      -0.608284       -16.5522 
  10   2.0000      -0.580234       -15.7890 
  11   2.0000      -0.512415       -13.9435 
  12   2.0000      -0.495425       -13.4812 
  13   2.0000      -0.437120       -11.8946 
  14   2.0000      -0.320009        -8.7079 
  15   0.0000       0.107696         2.9306 
  16   0.0000       0.192090         5.2270 
  17   0.0000       0.205180         5.5832 
  18   0.0000       0.229948         6.2572 
  19   0.0000       0.259725         7.0675 
  20   0.0000       0.273234         7.4351 
  21   0.0000       0.274856         7.4792 
  22   0.0000       0.310361         8.4454 
  23   0.0000       0.438932        11.9439 
  24   0.0000       0.448042        12.1918 
  25   0.0000       0.574901        15.6438 
  26   0.0000       0.576175        15.6785 
  27   0.0000       0.607170        16.5219 
  28   0.0000       0.674077        18.3426 
  29   0.0000       0.707857        19.2618 
  30   0.0000       0.708507        19.2795 
  31   0.0000       0.738052        20.0834 
  32   0.0000       0.756660        20.5898 
  33   0.0000       0.783086        21.3089 
  34   0.0000       0.795167        21.6376 
  35   0.0000       0.855422        23.2772 
  36   0.0000       0.858428        23.3590 
  37   0.0000       0.870158        23.6782 
  38   0.0000       0.912512        24.8307 
  39   0.0000       0.950027        25.8515 
  40   0.0000       1.003673        27.3113 
  41   0.0000       1.021888        27.8070 
  42   0.0000       1.099771        29.9263 
  43   0.0000       1.121472        30.5168 
  44   0.0000       1.158787        31.5322 
  45   0.0000       1.198017        32.5997 
  46   0.0000       1.205769        32.8106 
  47   0.0000       1.206428        32.8286 
  48   0.0000       1.300176        35.3796 
  49   0.0000       1.301495        35.4155 
  50   0.0000       1.305353        35.5205 
  51   0.0000       1.310484        35.6601 
  52   0.0000       1.539955        41.9043 
  53   0.0000       1.554872        42.3102 
  54   0.0000       1.705115        46.3985 
  55   0.0000       1.726484        46.9800 
  56   0.0000       1.729889        47.0727 
  57   0.0000       1.766401        48.0662 
  58   0.0000       1.777987        48.3815 
  59   0.0000       1.821685        49.5706 
  60   0.0000       1.844423        50.1893 
  61   0.0000       1.897804        51.6419 
  62   0.0000       1.919941        52.2443 
  63   0.0000       1.929386        52.5013 
  64   0.0000       1.937317        52.7171 
  65   0.0000       1.998072        54.3703 
  66   0.0000       2.058424        56.0126 
  67   0.0000       2.110560        57.4313 
  68   0.0000       2.114813        57.5470 
  69   0.0000       2.137246        58.1574 
  70   0.0000       2.226382        60.5829 
  71   0.0000       2.237815        60.8940 
  72   0.0000       2.276728        61.9529 
  73   0.0000       2.394420        65.1555 
  74   0.0000       2.438257        66.3483 
  75   0.0000       2.488331        67.7109 
  76   0.0000       2.565730        69.8171 
  77   0.0000       2.600869        70.7733 
  78   0.0000       2.609278        71.0021 
  79   0.0000       2.755797        74.9891 
  80   0.0000       2.796829        76.1056 
  81   0.0000       2.926178        79.6253 
  82   0.0000       2.947376        80.2022 
  83   0.0000       3.165299        86.1322 
  84   0.0000       3.175980        86.4228 
  85   0.0000       3.609188        98.2110 

                    ********************************
                    * MULLIKEN POPULATION ANALYSIS *
                    ********************************

-----------------------
MULLIKEN ATOMIC CHARGES
-----------------------
   0 C :   -0.018409
   1 C :   -0.106649
   2 C :   -0.106653
   3 C :   -0.018411
   4 H :    0.028496
   5 H :    0.028497
   6 H :    0.044349
   7 H :    0.052215
   8 H :    0.044349
   9 H :    0.052215
Sum of atomic charges:    0.0000000

--------------------------------
MULLIKEN REDUCED ORBITAL CHARGES
--------------------------------
  0 C s       :     3.054111  s :     3.054111
      pz      :     0.981914  p :     2.906770
      px      :     0.953551
      py      :     0.971305
      dz2     :     0.001936  d :     0.057528
      dxz     :     0.004949
      dyz     :     0.008857
      dx2y2   :     0.026610
      dxy     :     0.015176
  1 C s       :     3.141998  s :     3.141998
      pz      :     0.966938  p :     2.882447
      px      :     0.929858
      py      :     0.985650
      dz2     :     0.004502  d :     0.082204
      dxz     :     0.012591
      dyz     :     0.008342
      dx2y2   :     0.031213
      dxy     :     0.025556
  2 C s       :     3.142000  s :     3.142000
      pz      :     0.966938  p :     2.882448
      px      :     0.929859
      py      :     0.985651
      dz2     :     0.004502  d :     0.082204
      dxz     :     0.012591
      dyz     :     0.008342
      dx2y2   :     0.031213
      dxy     :     0.025556
  3 C s       :     3.054114  s :     3.054114
      pz      :     0.981914  p :     2.906770
      px      :     0.953548
      py      :     0.971308
      dz2     :     0.001936  d :     0.057528
      dxz     :     0.004949
      dyz     :     0.008857
      dx2y2   :     0.026609
      dxy     :     0.015176
  4 H s       :     0.940534  s :     0.940534
      pz      :     0.005357  p :     0.030970
      px      :     0.007060
      py      :     0.018553
  5 H s       :     0.940534  s :     0.940534
      pz      :     0.005357  p :     0.030969
      px      :     0.007060
      py      :     0.018552
  6 H s       :     0.923417  s :     0.923417
      pz      :     0.005379  p :     0.032234
      px      :     0.006590
      py      :     0.020264
  7 H s       :     0.915313  s :     0.915313
      pz      :     0.005672  p :     0.032471
      px      :     0.022260
      py      :     0.004540
  8 H s       :     0.923417  s :     0.923417
      pz      :     0.005379  p :     0.032233
      px      :     0.006590
      py      :     0.020264
  9 H s       :     0.915313  s :     0.915313
      pz      :     0.005672  p :     0.032472
      px      :     0.022260
      py      :     0.004539


                     *******************************
                     * LOEWDIN POPULATION ANALYSIS *
                     *******************************

----------------------
LOEWDIN ATOMIC CHARGES
----------------------
   0 C :   -0.034547
   1 C :   -0.040536
   2 C :   -0.040537
   3 C :   -0.034548
   4 H :    0.028578
   5 H :    0.028578
   6 H :    0.020513
   7 H :    0.025993
   8 H :    0.020514
   9 H :    0.025992

-------------------------------
LOEWDIN REDUCED ORBITAL CHARGES
-------------------------------
  0 C s       :     2.838277  s :     2.838277
      pz      :     0.950858  p :     3.040891
      px      :     1.037331
      py      :     1.052703
      dz2     :     0.010999  d :     0.155379
      dxz     :     0.008696
      dyz     :     0.015430
      dx2y2   :     0.074483
      dxy     :     0.045771
  1 C s       :     2.823367  s :     2.823367
      pz      :     0.927526  p :     3.005881
      px      :     1.024394
      py      :     1.053961
      dz2     :     0.013635  d :     0.211288
      dxz     :     0.029221
      dyz     :     0.015397
      dx2y2   :     0.081268
      dxy     :     0.071766
  2 C s       :     2.823368  s :     2.823368
      pz      :     0.927526  p :     3.005882
      px      :     1.024395
      py      :     1.053961
      dz2     :     0.013635  d :     0.211287
      dxz     :     0.029221
      dyz     :     0.015397
      dx2y2   :     0.081267
      dxy     :     0.071767
  3 C s       :     2.838278  s :     2.838278
      pz      :     0.950858  p :     3.040891
      px      :     1.037331
      py      :     1.052702
      dz2     :     0.010999  d :     0.155379
      dxz     :     0.008696
      dyz     :     0.015430
      dx2y2   :     0.074482
      dxy     :     0.045771
  4 H s       :     0.891438  s :     0.891438
      pz      :     0.017116  p :     0.079985
      px      :     0.020825
      py      :     0.042044
  5 H s       :     0.891438  s :     0.891438
      pz      :     0.017116  p :     0.079984
      px      :     0.020825
      py      :     0.042043
  6 H s       :     0.896589  s :     0.896589
      pz      :     0.017464  p :     0.082898
      px      :     0.019905
      py      :     0.045529
  7 H s       :     0.890662  s :     0.890662
      pz      :     0.018291  p :     0.083345
      px      :     0.049966
      py      :     0.015088
  8 H s       :     0.896590  s :     0.896590
      pz      :     0.017463  p :     0.082896
      px      :     0.019905
      py      :     0.045528
  9 H s       :     0.890662  s :     0.890662
      pz      :     0.018292  p :     0.083346
      px      :     0.049967
      py      :     0.015088


                      *****************************
                      * MAYER POPULATION ANALYSIS *
                      *****************************

  NA   - Mulliken gross atomic population
  ZA   - Total nuclear charge
  QA   - Mulliken gross atomic charge
  VA   - Mayer's total valence
  BVA  - Mayer's bonded valence
  FA   - Mayer's free valence

  ATOM       NA         ZA         QA         VA         BVA        FA
  0 C      6.0184     6.0000    -0.0184     3.9595     3.9595    -0.0000
  1 C      6.1066     6.0000    -0.1066     4.0592     4.0592     0.0000
  2 C      6.1067     6.0000    -0.1067     4.0592     4.0592    -0.0000
  3 C      6.0184     6.0000    -0.0184     3.9595     3.9595     0.0000
  4 H      0.9715     1.0000     0.0285     0.9787     0.9787    -0.0000
  5 H      0.9715     1.0000     0.0285     0.9787     0.9787     0.0000
  6 H      0.9557     1.0000     0.0443     0.9801     0.9801     0.0000
  7 H      0.9478     1.0000     0.0522     0.9748     0.9748     0.0000
  8 H      0.9557     1.0000     0.0443     0.9801     0.9801    -0.0000
  9 H      0.9478     1.0000     0.0522     0.9748     0.9748     0.0000

  Mayer bond orders larger than 0.1
B(  0-C ,  1-C ) :   1.9806 B(  0-C ,  6-H ) :   0.9644 B(  0-C ,  7-H ) :   0.9653 
B(  1-C ,  2-C ) :   1.0887 B(  1-C ,  4-H ) :   0.9715 B(  2-C ,  3-C ) :   1.9806 
B(  2-C ,  5-H ) :   0.9715 B(  3-C ,  8-H ) :   0.9644 B(  3-C ,  9-H ) :   0.9653 


-------
TIMINGS
-------

Total SCF time: 0 days 0 hours 0 min 1 sec 

Total time                  ....       1.734 sec
Sum of individual times     ....       1.570 sec  ( 90.5%)

Fock matrix formation       ....       1.534 sec  ( 88.5%)
Diagonalization             ....       0.005 sec  (  0.3%)
Density matrix formation    ....       0.001 sec  (  0.0%)
Population analysis         ....       0.004 sec  (  0.2%)
Initial guess               ....       0.016 sec  (  0.9%)
Orbital Transformation      ....       0.000 sec  (  0.0%)
Orbital Orthonormalization  ....       0.000 sec  (  0.0%)
DIIS solution               ....       0.000 sec  (  0.0%)
SOSCF solution              ....       0.010 sec  (  0.6%)


           ************************************************************
           *        Program running with 4 parallel MPI-processes     *
           *              working on a common directory               *
           ************************************************************


------------------------------------------------------------------------------- 
                              ORCA-MATRIX DRIVEN CI                            
------------------------------------------------------------------------------- 


Wavefunction type
-----------------
Correlation treatment                      ...      CCSD     
Single excitations                         ... ON
Orbital optimization                       ... OFF
Calculation of Z vector                    ... OFF
Calculation of Brueckner orbitals          ... OFF
Perturbative triple excitations            ... ON
Calculation of F12 correction              ... OFF
Frozen core treatment                      ... chemical core (8 el)
Reference Wavefunction                     ... RHF
  Internal Orbitals:     4 ...   14 ( 11 MO's/ 22 electrons)
  Virtual  Orbitals:    15 ...   85 ( 71 MO's              )
Number of AO's                             ...     86
Number of electrons                        ...     30
Number of correlated electrons             ...     22

Algorithmic settings
--------------------
Integral transformation                    ... All integrals via the RI transformation
K(C) Formation                             ... RI-DLPNO
   PNO-Integral Storage                    ... ON DISK
   PNO occupation number cut-off           ... 1.000e-07
   Singles PNO occupation number cut-off   ... 3.000e-09
   PNO Mulliken prescreening cut-off       ... 1.000e-03
   Domain cut-off (Mulliken population)    ... 1.000e-03
   PNO Normalization                       ...    1
Maximum number of iterations               ...        50
Convergence tolerance (max. residuum)      ... 1.000e-05
Level shift for amplitude update           ... 2.000e-01
Maximum number of DIIS vectors             ...         7
DIIS turned on at iteration                ...         0
Damping before turning on DIIS             ...     0.500
Damping after turning on DIIS              ...     0.000
Pair specific amplitude update             ... OFF
Natural orbital iterations                 ... OFF
Perturbative natural orbital generation    ... OFF
Printlevel                                 ... 2

Singles Fock matrix elements calculated using PNOs.

Memory handling:
----------------
Maximum memory for working arrays          ...   8000 MB
Data storage in matrix containers          ... UNCOMPRESSED
Data type for integral storage             ... DOUBLE
In-Core Storage of quantities:
   Amplitudes+Sigma Vector      ... NO
   J+K operators                ... NO
   DIIS vectors                 ... NO
   3-external integrals         ... NO
   4-external integrals         ... NO

Localization treatment:
-----------------------
Localization option                        ...    6
Localization threshhold                    ... -1.0e+00
Using relative localization threshhold     ... 1.0e-08
Neglect threshold for strong pairs         ... 1.000e-05 Eh
Prescreening threshold for very weak pairs ... 1.000e-07 Eh

Initializing the integral package          ... done
Localizing the valence orbitals
------------------------------------------------------------------------------
                           ORCA ORBITAL LOCALIZATION
------------------------------------------------------------------------------

Input orbitals are from                  ... 1_3_butadiene_cis.proc0.gbw
Output orbitals are to                   ... 1_3_butadiene_cis.proc0.loc
Max. number of iterations                ... 128
Localizations seeded randomly            ... off
Convergence tolerance                    ... 1.000e-06
Using relative localization threshhold   ... 1.000e-08
Treshold for strong local MOs            ... 9.500e-01
Treshold for bond MOs                    ... 8.500e-01
Operator                                 ... 0
Orbital range for localization           ... 4 to 14
Localization criterion                   ... FOSTER-BOYS (AUGMENTED HESSIAN)
Doing the dipole integrals     ... o.k.
Initial value of the localization sum :    88.773185
ITERATION   0 : L=   99.2312152884 DL=  1.05e+01 (AVERGE_DL)=    0.4360573411 
ITERATION   1 : L=  100.1030869098 DL=  8.72e-01 (AVERGE_DL)=    0.1259055650 
ITERATION   2 : L=  100.1044328444 DL=  1.35e-03 (AVERGE_DL)=    0.0049468716 
ITERATION   3 : L=  100.1044370561 DL=  4.21e-06 (AVERGE_DL)=    0.0002767236 
ITERATION   4 : L=  100.1044370670 DL=  1.10e-08 (AVERGE_DL)=    0.0000141147 
LOCALIZATION SUM CONVERGED

------------------------------------------------------
AUGMENTED HESSIAN OPTIMIZATION OF FOSTER-BOYS ORBITALS
------------------------------------------------------

Spin operator:           0
Orbital window:          4 to 14
Number of iterations:    128
Gradient tolerance:      1.000e-06
Number of pairs:         55
Davidson threshold:      2000
Diagonalization method:  LAPACK
Iter:    0   L: 100.1044370670   Grad. norm: 1.914640e-04
   *** Likely close to a maximum now. ***
       Augmented Hessian eigenvalues:  6.00e-10 -5.47e+00 -5.49e+00 -1.84e+01 ... 
Iter:    1   L: 100.1044370673   Grad. norm: 4.418454e-11
LOCALIZATION HAS CONVERGED.

Eigenvalues of the Hessian:
  0 -5.466e+00
  1 -5.494e+00
  2 -1.841e+01
  3 -1.864e+01
  4 -1.904e+01
  5 -1.934e+01
  6 -1.943e+01
  7 -2.051e+01
  8 -2.112e+01
  9 -2.137e+01
    ...


------------------------------------------------------------------------------- 
                    LOCALIZED MOLECULAR ORBITAL COMPOSITIONS                   
------------------------------------------------------------------------------- 

The Mulliken populations for each LMO on each atom are computed
The LMO`s will be ordered according to atom index and type
  (A) Strongly localized MO`s have populations of >=0.950 on one atom
  (B) Two center bond orbitals have populations of >=0.850 on two atoms
  (C) Other MO`s are considered to be `delocalized`

FOUND  -   0 strongly local MO`s
       -  11 two center bond MO`s
       -   0 significantly delocalized MO`s

Bond-like localized orbitals:
MO  14:   9H  -   0.488503  and   3C  -   0.511323
MO  13:   8H  -   0.490603  and   3C  -   0.512427
MO  12:   7H  -   0.488503  and   0C  -   0.511323
MO  11:   6H  -   0.490603  and   0C  -   0.512427
MO  10:   5H  -   0.499301  and   2C  -   0.509936
MO   9:   4H  -   0.499301  and   1C  -   0.509935
MO   8:   3C  -   0.498170  and   2C  -   0.507372
MO   7:   3C  -   0.498173  and   2C  -   0.507370
MO   6:   2C  -   0.519622  and   1C  -   0.519620
MO   5:   1C  -   0.507372  and   0C  -   0.498170
MO   4:   1C  -   0.507371  and   0C  -   0.498172
Localized MO's were stored in: 1_3_butadiene_cis.proc0.loc

Localizing the core orbitals
------------------------------------------------------------------------------
                           ORCA ORBITAL LOCALIZATION
------------------------------------------------------------------------------

Input orbitals are from                  ... 1_3_butadiene_cis.proc0.loc
Output orbitals are to                   ... 1_3_butadiene_cis.proc0.loc
Max. number of iterations                ... 128
Localizations seeded randomly            ... off
Convergence tolerance                    ... 1.000e-06
Using relative localization threshhold   ... 1.000e-08
Treshold for strong local MOs            ... 9.500e-01
Treshold for bond MOs                    ... 8.500e-01
Operator                                 ... 0
Orbital range for localization           ... 0 to 3
Localization criterion                   ... FOSTER-BOYS (AUGMENTED HESSIAN)
Doing the dipole integrals     ... o.k.
Initial value of the localization sum :    25.120324
ITERATION   0 : L=   25.1203288445 DL=  4.89e-06 (AVERGE_DL)=    0.0009024255 
ITERATION   1 : L=   25.1203288445 DL=  0.00e+00 (AVERGE_DL)=    0.0000000000 
LOCALIZATION SUM CONVERGED

------------------------------------------------------
AUGMENTED HESSIAN OPTIMIZATION OF FOSTER-BOYS ORBITALS
------------------------------------------------------

Spin operator:           0
Orbital window:          0 to 3
Number of iterations:    128
Gradient tolerance:      1.000e-06
Number of pairs:         6
Davidson threshold:      2000
Diagonalization method:  LAPACK
Iter:    0   L: 25.1203288445   Grad. norm: 1.566136e-06
   *** Likely close to a maximum now. ***
       Augmented Hessian eigenvalues:  4.17e-14 -2.57e+01 -2.57e+01 -3.10e+01 ... 
Iter:    1   L: 25.1203288445   Grad. norm: 6.362099e-20
LOCALIZATION HAS CONVERGED.

Eigenvalues of the Hessian:
  0 -2.575e+01
  1 -2.575e+01
  2 -3.097e+01
  3 -9.096e+01
  4 -9.096e+01
  5 -1.373e+02


------------------------------------------------------------------------------- 
                    LOCALIZED MOLECULAR ORBITAL COMPOSITIONS                   
------------------------------------------------------------------------------- 

The Mulliken populations for each LMO on each atom are computed
The LMO`s will be ordered according to atom index and type
  (A) Strongly localized MO`s have populations of >=0.950 on one atom
  (B) Two center bond orbitals have populations of >=0.850 on two atoms
  (C) Other MO`s are considered to be `delocalized`

FOUND  -   4 strongly local MO`s
       -   0 two center bond MO`s
       -   0 significantly delocalized MO`s

Rather strongly localized orbitals:
MO   3:   3C  -   0.999657
MO   2:   2C  -   0.999413
MO   1:   1C  -   0.999413
MO   0:   0C  -   0.999657
Localized MO's were stored in: 1_3_butadiene_cis.proc0.loc

Warning: internal orbitals are localized - no re-canonicalization of internal orbitals

--------------------------
CLOSED-SHELL FOCK OPERATOR
--------------------------

RI-JK section for the Fock operator:
  RHF full Fock operator         ... done
  RHF frozen core Fock operator  ... done
Time needed for Fock operator              ...            0.549 sec
Reference energy                           ...   -154.927610121

--------------
DLPNO SETTINGS (2015 fully linear scaling implementation)
--------------

TCutMKN:           1.000e-03
TCutPAO:           1.000e-03
TCutPNO:           1.000e-07
TCutPNOSingles:    3.000e-09
TCutEN:            9.700e-01
TCutPAOExt:        1.000e-01
TCutPairs:         1.000e-05
TCutPre:           1.000e-07
TCutOSV:           1.000e-06
TCutDOij:          1.000e-05
TCutDO:            5.000e-03
TCutC:             1.000e-04
TCutCPAO:          1.000e-03
TCutCMO:           1.000e-03
TScaleDOMP2PreScr: 2.000e+00
TScaleMKNMP2PreScr:1.000e+01
TScalePNOMP2PreScr:1.000e+00
PAO overlap thresh 1.000e-08
Using PNOs for Singles Fock computation
Use new domains
Use fully linear algorithm
TCutTNO:           1.000e-09
TCutMP2Pairs:      1.000e-06
TCutDOStrong:      2.000e-03
TCutMKNStrong:     1.000e-02
TCutMKNWeak:       1.000e-01
TCutDOWeak:        4.000e-03
NTCutTNO:          1

--------------------------
Calculating differential overlap integrals ... ok
--------------------------
ELECTRON PAIR PRESCREENING
--------------------------

Dipole-based pair screening          .... used

   TCutDOij = 1.000000e-05
   TCutPre  = 1.000000e-07
   .... Finished loop over pairs
Total time spent in the prescreening                  ...     0.000 sec
sum of pair energies estimated for screened out pairs ...       0.000000000000 Eh
Thresholds for map construction and integral transformation for crude MP2:
   TCutMKN                    ...     1.0e-02
   TCutDO                     ...     1.0e-02
   TCutPairs                  ...     1.0e-05
   TCutPNO_CrudeMP2           ...     1.0e-07
   TCutPNOSingles_CrudeMP2    ...     3.0e-09
--------------------------------
LOCAL RI TRANSFORMATION (IAVPAO)
--------------------------------

Orbital window:       4 to 14
Number of PAOs:      86
Basis functions:     86 (42 shells)
Aux. functions:     308 (108 shells)

Processing maps (0.0 sec)
Average map sizes:
   Aux shells -> MOs              11.0
   Aux shells -> PAOs             86.0
   MOs        -> AO shells        42.0
   PAOs       -> AO shells        42.0

Calculating integrals (0.2 sec, 2.226 MB)
Sorting integrals (0.0 sec, 2.223 MB)
Total time for the integral transformation: 0.2 sec
--------------------------------
INITIAL GUESS AND PNO GENERATION
--------------------------------

PNO truncation parameters                   .... 
    PAOOverlapThresh   =        1.000e-08

    TCutPairs          =        1.000e-05
    TCutPNO            =        1.000e-07
    TCutPNOSingles     =        3.000e-09
    TCutMP2Pairs       =        1.000e-06
    TCutMKN            =        1.000e-02
    TCutDO             =        1.000e-02

Pair selection                          .... not used
Type of local MP2 treatment                 .... semi-local MP2
Strategy for PNO selection                  .... occupation number selection
Pair density normalization                  .... MP2 norm
Spin component scaling                      .... not used

   .... Finished loop over pairs
Making pair pair interaction lists          ... done

                       ===========================
                         66 OF   66 PAIRS ARE KEPT CCSD PAIRS
                          0 OF   66 PAIRS ARE KEPT MP2 PAIRS FOR (T)
                          0 OF   66 PAIRS ARE SKIPPED
                       ===========================

Total time spent in the initial guess                 ...     0.073 sec
SL-MP2 correlation energy (all non-screened pairs)    ...      -0.513267276861 Eh

Initial PNO correlation energy                        ...      -0.513147035453 Eh
sum of pair energies prescreened and skipped MP2 pairs...       0.000000000000 Eh
sum of pair energies of crude MP2 skipped pairs only  ...       0.000000000000 Eh
sum of MP2 pair energies for pairs that were not kept ...       0.000000000000 Eh
sum of PNO error estimates for the kept pairs         ...      -0.000120241408 Eh
                                                          --------------------
sum of all corrections                                         -0.000120241408
Initial total correlation energy                               -0.513267276861
Thresholds for map construction and integral transformation for fine MP2 and CCSD(T) calculation:
   TCutMKN   ...     1.0e-03
   TCutDO    ...     5.0e-03
   TCutPairs ...     1.0e-05
   TCutCMO   ...     1.0e-03
   TCutCPAO  ...     1.0e-03

Thresholds for map construction and integral transformation for strong Triples:
   TCutMKN   ...     1.0e-02
   TCutDO    ...     1.0e-02
   TCutCMO   ...     1.0e-03
   TCutCPAO  ...     1.0e-03

Thresholds for map construction and integral transformation for weak Triples:
   TCutMKN   ...     1.0e-01
   TCutDO    ...     2.0e-02
   TCutCMO   ...     1.0e-03
   TCutCPAO  ...     1.0e-03

--------------------------------
LOCAL RI TRANSFORMATION (IAVPAO)
--------------------------------

Orbital window:       4 to 14
Number of PAOs:      86
Basis functions:     86 (42 shells)
Aux. functions:     308 (108 shells)

Processing maps (0.0 sec)
Average map sizes:
   Aux shells -> MOs              11.0
   Aux shells -> PAOs             86.0
   MOs        -> AO shells        42.0
   PAOs       -> AO shells        42.0

Calculating integrals (0.2 sec, 2.226 MB)
Sorting integrals (0.0 sec, 2.223 MB)
Total time for the integral transformation: 0.3 sec
--------------------------------
INITIAL GUESS AND PNO GENERATION
--------------------------------

PNO truncation parameters                   .... 
    ScaleTCutPNO       =        1.000e-02
    PAOOverlapThresh   =        1.000e-08

    TCutPairs          =        1.000e-05
    TCutPNO            =        1.000e-07
    TCutPNOSingles     =        3.000e-09
    TCutMP2Pairs       =        1.000e-06
    TCutMKN            =        1.000e-03
    TCutDO             =        5.000e-03

Pair selection                          .... not used
Type of local MP2 treatment                 .... full local PMP2
Strategy for PNO selection                  .... occupation number selection
Pair density normalization                  .... MP2 norm
Spin component scaling                      .... not used

PASS-1: Formation of initial guess LMP2 amplitudes
Initial amplitudes guess done. Entering LMP2 iteration loop:
   Max. no of iterations          ...  50
   Energy convergence tolerance   ...    1.0e-07
   Residual convergence tolerance ...    5.0e-07
   Fock matrix cutoff             ...    1.0e-05 Eh
   DIIS convergence acceleration parameters:
        Max # vectors in DIIS     ... 7
        Start iteration of DIIS   ... 0
        Levelshift                ... 2.000e-01
        Damping factor 1          ... 5.000e-01
        Damping factor 2          ... 1.000e+00
   L-MP2 PNO cut-off              ...   1.0e-09
   L-MP2 PNO cut-off (core)       ...   1.0e-11
                           *** Turning on DIIS ***
LMP2-Iter=   0:  ELMP2= -0.526239134336  DE=   1.3e-02 RMAX=   1.2e-02
LMP2-Iter=   1:  ELMP2= -0.533600044989  DE=   7.4e-03 RMAX=   5.2e-03
LMP2-Iter=   2:  ELMP2= -0.535280805531  DE=   1.7e-03 RMAX=   2.1e-03
LMP2-Iter=   3:  ELMP2= -0.535471073690  DE=   1.9e-04 RMAX=   6.8e-04
LMP2-Iter=   4:  ELMP2= -0.535452025879  DE=   1.9e-05 RMAX=   1.9e-04
LMP2-Iter=   5:  ELMP2= -0.535450561176  DE=   1.5e-06 RMAX=   5.5e-05
LMP2-Iter=   6:  ELMP2= -0.535450919674  DE=   3.6e-07 RMAX=   1.3e-05
LMP2-Iter=   7:  ELMP2= -0.535451138073  DE=   2.2e-07 RMAX=   2.1e-06
LMP2-Iter=   8:  ELMP2= -0.535451171926  DE=   3.4e-08 RMAX=   4.1e-07
LMP2-Iter=   9:  ELMP2= -0.535451163328  DE=   8.6e-09 RMAX=   1.1e-07
LMP2-Iter=  10:  ELMP2= -0.535451157413  DE=   5.9e-09 RMAX=   2.3e-08 => CONVERGED
PASS-2: Formation of Pair natural orbitals
   .... Finished loop over pairs

 PNO Occupation Number Statistics: 
  | Av. % of trace(Dij) retained        ...  99.892860249026
  | sigma^2 in % of trace(Dij) retained ...   4.37e-02
  | Av. % of trace(Di) retained         ...  99.999912055368
  | sigma^2 in % of trace(Di) retained  ...   5.99e-10
 Distributions of % trace(Dij) recovered:
  |       >= 99.9  ...    50 ( 75.8 % of all pairs)
  |   [90.0, 99.0) ...     1 (  1.5 % of all pairs)
  |   [99.0, 99.9) ...    15 ( 22.7 % of all pairs)
 Distributions of % trace(Di) recovered :
  |       >= 99.9  ...    11 (100.0 % of all I-pairs )

Making pair pair interaction lists          ... done

                       ===========================
                         66 OF   66 PAIRS ARE KEPT
                       ===========================

Total time spent in the initial guess                 ...     0.798 sec
L-MP2 correlation energy (all non-screened pairs)     ...      -0.535451157413 Eh
L-MP2 PNO error correction                            ...      -0.000000918132 Eh
                                                          --------------------
Initial total L-MP2 energy (non-screened pairs)       ...      -0.535452075546 Eh

Initial PNO correlation energy                        ...      -0.535346729342 Eh
sum of pair energies estimated for screened out pairs ...       0.000000000000 Eh
sum of MP2 pair energies for pairs that were not kept ...       0.000000000000 Eh
sum of PNO error estimates for the kept pairs         ...      -0.000105346203 Eh
                                                          --------------------
sum of all corrections                                         -0.000105346203
Initial total correlation energy                               -0.535452075546
Thresholds for map construction and integral transformation for fine MP2 and CCSD(T) calculation:
   TCutMKN   ...     1.0e-03
   TCutDO    ...     5.0e-03
   TCutPairs ...     1.0e-05
   TCutCMO   ...     1.0e-03
   TCutCPAO  ...     1.0e-03

Time for aux screen maps:            0.001
Time for maps after fine MP2:            0.002
-----------------------------
LOCAL RI TRANSFORMATION (IJV)
-----------------------------

Orbital window:       4 to 14
Basis functions:     86 (42 shells)
Aux. functions:     308 (108 shells)

Processing maps (0.0 sec)
Average map sizes:
   Aux shells -> MOs(i)           11.0
   Aux shells -> MOs(j)           11.0
   MOs        -> AO shells        42.0

Calculating integrals (0.2 sec, 0.288 MB)
Sorting integrals (0.0 sec, 0.284 MB)
Total time for the integral transformation: 0.3 sec
--------------------------------
LOCAL RI TRANSFORMATION (VABPAO)
--------------------------------

Number of PAOs:      86
Basis functions:     86 (42 shells)
Aux. functions:     308 (108 shells)

Processing maps (0.0 sec)
Average map sizes:
   Aux shells -> PAOs             86.0
   PAOs       -> AO shells        42.0

Calculating integrals (0.3 sec, 30.872 MB)
Finished


-------------------------------------
Pair Pair Term precalculation with     
RI-(ij|mn) and (im|jn) transformation  
ON THE FLY                             
-------------------------------------

   IBatch   1 (of   1)              ... done (    2.435 sec)
Total EXT                           ...           2.435 sec

---------------------
RI-PNO TRANSFORMATION
---------------------

Total Number of PNOs                   ...  2164
Average number of PNOs per pair        ...    32
Maximal number of PNOs per pair        ...    44
   #pairs with  1 -  5 PNOs   :    0
   #pairs with  6 - 10 PNOs   :    0
   #pairs with 11 - 15 PNOs   :    1
   #pairs with 16 - 20 PNOs   :    3
   #pairs with 21 - 25 PNOs   :   10
   #pairs with 26 - 30 PNOs   :   10
   #pairs with 31 - 35 PNOs   :   18
   #pairs with 36 - 40 PNOs   :   14
   #pairs with 41 - 45 PNOs   :   10
   #pairs with 46 - 50 PNOs   :    0

Generation of (ij|ab)[P] integrals            ... on
Generation of (ia|bc)[P],(ja|bc)[P] integrals ... on
Storage of 3 and 4 external integrals         ... on
Generation of ALL (ka|bc)[P] integrals        ... on
Keep RI integrals in memory                   ... off

Ibatch:  1 (of  1)
Starting 2-4 index PNO integral generation ... done

Timings:
Total PNO integral transformation time     ...          1.061 sec
Size of the 3-external file                ...        20 MB
Size of the 4-external file                ...        97 MB
Size of the IKJL file                      ...         0 MB
Size of the all 3-external file            ...       113 MB
Size of the 1-external file                ...         0 MB

Making pair/pair overlap matrices          ... done (    0.083 sec)
Size of the pair overlap file              ... 26 MB
Redoing the guess amplitudes               ... done (    0.001 sec)

-------------------------
FINAL STARTUP INFORMATION
-------------------------

E(0)                                       ...   -154.927610121
E(L-MP2)                                   ...     -0.535452076
E(L-MP2) including corrections             ...     -0.535452076
Initial E(tot)                             ...   -155.463062196
<T|T>                                      ...      0.176457656
Number of pairs included                   ... 66
Total number of pairs                      ... 66

------------------------------------------------
                  RHF COUPLED CLUSTER ITERATIONS
------------------------------------------------

Number of PNO amplitudes to be optimized   ...        74284
Number of non-PNO amplitudes               ...       332706
Untruncated number of regular amplitudes   ...       332706

Iter       E(tot)           E(Corr)          Delta-E          Residual     Time
  0   -155.441162373     -0.513446906      0.022005169      0.013004791    1.19
                           *** Turning on DIIS ***
  1   -155.482168286     -0.554452819     -0.041005913      0.009140632    1.18
  2   -155.503309460     -0.575593993     -0.021141173      0.005450184    1.18
  3   -155.507639567     -0.579924100     -0.004330108      0.003139318    1.19
  4   -155.509456035     -0.581740568     -0.001816468      0.001611283    1.17
  5   -155.510107954     -0.582392487     -0.000651918      0.000777762    1.14
  6   -155.510270252     -0.582554785     -0.000162298      0.000417799    1.16
  7   -155.510303873     -0.582588405     -0.000033621      0.000225267    1.26
  8   -155.510312654     -0.582597187     -0.000008781      0.000099588    1.25
  9   -155.510317652     -0.582602184     -0.000004998      0.000028632    1.30
 10   -155.510320323     -0.582604855     -0.000002671      0.000013577    1.24
 11   -155.510321093     -0.582605626     -0.000000770      0.000005786    1.31
               --- The Coupled-Cluster iterations have converged ---

----------------------
COUPLED CLUSTER ENERGY
----------------------

E(0)                                       ...   -154.927610121
E(CORR)(strong-pairs)                      ...     -0.582605626
E(CORR)(weak-pairs)                        ...     -0.000105346
E(CORR)(corrected)                         ...     -0.582710972
E(TOT)                                     ...   -155.510321093
Singles Norm <S|S>**1/2                    ...      0.049210665  
T1 diagnostic                              ...      0.010491749  

------------------
LARGEST AMPLITUDES
------------------
   5-> 15   5-> 15       0.049904
   8-> 15   8-> 15       0.049903
   7-> 15   7-> 15       0.049903
   4-> 15   4-> 15       0.049903
   5-> 15   4-> 15       0.045169
   8-> 15   7-> 15       0.045169
  10-> 16  10-> 16       0.035498
   9-> 16   9-> 16       0.035498
  12-> 16  12-> 16       0.034738
  14-> 16  14-> 16       0.034737
  13-> 16  13-> 16       0.033272
  11-> 16  11-> 16       0.033271
   7-> 15   7-> 16       0.029738
   7-> 16   7-> 15       0.029738
   4-> 15   4-> 16       0.029738
   4-> 16   4-> 15       0.029738


-------------------------------------------
DLPNO BASED TRIPLES CORRECTION
-------------------------------------------

Singles multiplier          ...  1.000000
TCutTNO                     ... 1.000e-09
TCutMP2Pairs                ... 1.000e-06
TCutDOStrong                ... 1.000e-02
TCutMKNStrong               ... 1.000e-02
TCutDOWeak                  ... 2.000e-02
TCutMKNWeak                 ... 1.000e-01

Fragment selection                          .... not used
Number of Triples that are to be computed   ...       275

 . . . . . . . . .
10% done  
20% done  
30% done  
40% done  
50% done  
60% done  
70% done  
80% done  
90% done               (      3.998 sec)
Triples timings:
Total time for T0               ...     4.232 sec
Total time for Iterative (T)    ...     0.000 sec
Total time of overall (T)       ...     4.232 sec

Triples List generation         ...     0.000 sec
TNO generation                  ...     0.232 sec
Pair density generation         ...     0.001 sec
Look up tables                  ...     0.000 sec
Generating 3-index integrals    ...     1.339 sec
  Make 4-ind.int. from 3-ind.int...     1.149 sec
  Projecting amplitudes (D + S) ...     0.228 sec
  Downprojecting integrals      ...     0.000 sec
  Energy contr. (sum over a,b,c)...     0.376 sec
Fitting ET(->0)                 ...     0.000 sec

Everything after 3-index        ...     2.659 sec

Timing details:
 TNO integrals                  ...     2.367 sec
   Reading 3-index integrals    ...     0.007 sec
   Sorting integrals            ...     0.644 sec
       Sorting integrals 1      ...     0.000 sec
       Sorting integrals 2      ...     0.093 sec
       Sorting integrals 3      ...     0.033 sec
       Sorting integrals 4      ...     0.003 sec
       Sorting integrals 5      ...     0.007 sec
       Sorting integrals 6      ...     0.509 sec
   Calculating local VM**-1/2   ...     0.030 sec
   Orthogonal. integrals        ...     0.060 sec
   Multipl. 3-index integrals   ...     1.626 sec
   All concerning IRIab (w/TNO) ...     0.504 sec

 Calculate W0/W1                ...     0.904 sec
 W 3-ext contribution           ...     0.490 sec
 W 3-int contribution           ...     0.129 sec
 Sorting W                      ...     0.266 sec

 V exchange contribution        ...     0.141 sec

 Timings for Triples without generation
     of 3-index integrals       ...     2.658 sec
       0 weak pairs             ...     2.658 sec
       1 weak pair              ...     0.000 sec
       2 weak pairs             ...     0.000 sec
       3 weak pairs             ...     0.000 sec
  Extra time for extrapolation  ...     0.000 sec

Number of Triples   (0, 1, 2, 3 weak pairs; overall):    275       0       0       0  (   275)
Number of Atoms     (0, 1, 2, 3 weak pairs; overall):   10.0     0.0     0.0     0.0  (    10)
Number of PAOs      (0, 1, 2, 3 weak pairs; overall):   85.9     0.0     0.0     0.0  (    86)
Number of AuxFcns   (0, 1, 2, 3 weak pairs; overall):  203.1     0.0     0.0     0.0  (   308)
Number of TNOs      (0, 1, 2, 3 weak pairs         ):   58.4     0.0     0.0     0.0
Aver. Number of NTNO, Atoms, PAOs, AuxFcns / Triples:    275    58.4    10.0    85.9   203.1

Triples Correction (T)                     ...     -0.020650444
Final correlation energy                   ...     -0.603361416
E(CCSD)                                    ...   -155.510321093
E(CCSD(T))                                 ...   -155.530971537


Maximum memory used throughout the entire calculation: 1011.9 MB


------------------------------------------------------------------------------- 
                                     TIMINGS                                   
------------------------------------------------------------------------------- 


Total execution time                   ...       25.766 sec

Localization of occupied MO's          ...        0.361 sec (  1.4%)
Fock Matrix Formation                  ...        0.549 sec (  2.1%)
Global overlap, Fock, MKN matrices     ...        0.110 sec (  0.4%)
Differential overlap integrals         ...        0.045 sec (  0.2%)
Organizing maps                        ...        0.006 sec (  0.0%)
RI 3-index integral generations        ...        1.041 sec (  4.0%)
RI-PNO integral transformation         ...        3.785 sec ( 14.7%)
Initial Guess                          ...        0.878 sec (  3.4%)
DIIS Solver                            ...        0.234 sec (  0.9%)
State Vector Update                    ...        0.008 sec (  0.0%)
Sigma-vector construction              ...       14.487 sec ( 56.2%)
  <D|H|D>(0-ext)                       ...        0.440 sec (  3.0% of sigma)
  <D|H|D>(2-ext Fock)                  ...        0.007 sec (  0.1% of sigma)
  <D|H|D>(2-ext)                       ...        0.911 sec (  6.3% of sigma)
  <D|H|D>(4-ext)                       ...        1.887 sec ( 13.0% of sigma)
  <D|H|D>(4-ext-corr)                  ...        8.187 sec ( 56.5% of sigma)
  CCSD doubles correction              ...        0.057 sec (  0.4% of sigma)
  <S|H|S>                              ...        0.102 sec (  0.7% of sigma)
  <S|H|D>(1-ext)                       ...        0.072 sec (  0.5% of sigma)
  <D|H|S>(1-ext)                       ...        0.004 sec (  0.0% of sigma)
  <S|H|D>(3-ext)                       ...        0.107 sec (  0.7% of sigma)
  Fock-dressing                        ...        1.427 sec (  9.9% of sigma)
  Singles amplitudes                   ...        0.057 sec (  0.4% of sigma)
  (ik|jl)-dressing                     ...        0.314 sec (  2.2% of sigma)
  (ij|ab),(ia|jb)-dressing             ...        0.566 sec (  3.9% of sigma)
  Pair energies                        ...        0.003 sec (  0.0% of sigma)
Total Time for computing (T)           ...        4.242 sec ( 16.5% of ALL)


-------------------------   --------------------
FINAL SINGLE POINT ENERGY      -155.530971537073
-------------------------   --------------------


                            ***************************************
                            *     ORCA property calculations      *
                            ***************************************

                                    ---------------------
                                    Active property flags
                                    ---------------------
   (+) Dipole Moment


------------------------------------------------------------------------------
                       ORCA ELECTRIC PROPERTIES CALCULATION
------------------------------------------------------------------------------

Dipole Moment Calculation                       ... on
Quadrupole Moment Calculation                   ... off
Polarizability Calculation                      ... off
GBWName                                         ... 1_3_butadiene_cis.gbw
Electron density file                           ... 1_3_butadiene_cis.scfp.tmp
The origin for moment calculation is the CENTER OF MASS  = (-0.000000,  0.024747 -0.000007)

-------------
DIPOLE MOMENT
-------------
                                X             Y             Z
Electronic contribution:      0.00001       0.75852      -0.00003
Nuclear contribution   :     -0.00001      -0.74227       0.00005
                        -----------------------------------------
Total Dipole Moment    :      0.00000       0.01625       0.00002
                        -----------------------------------------
Magnitude (a.u.)       :      0.01625
Magnitude (Debye)      :      0.04131



--------------------
Rotational spectrum 
--------------------
 
Rotational constants in cm-1:     0.715682     0.186563     0.147986 
Rotational constants in MHz : 21455.598987  5593.024372  4436.517406 

 Dipole components along the rotational axes: 
x,y,z [a.u.] :     0.000000    -0.016253     0.000016 
x,y,z [Debye]:     0.000001    -0.041313     0.000040 

 

Timings for individual modules:

Sum of individual times         ...       85.863 sec (=   1.431 min)
GTO integral calculation        ...       58.077 sec (=   0.968 min)  67.6 %
SCF iterations                  ...        1.852 sec (=   0.031 min)   2.2 %
MDCI module                     ...       25.934 sec (=   0.432 min)  30.2 %
                             ****ORCA TERMINATED NORMALLY****
TOTAL RUN TIME: 0 days 0 hours 1 minutes 26 seconds 107 msec
1_3_butadiene_cis.gbw -> /home1/pantazis/klk/VDZ/Conjugated/1_3_butadiene_cis.gbw
1_3_butadiene_cis.ges -> /home1/pantazis/klk/VDZ/Conjugated/1_3_butadiene_cis.ges
1_3_butadiene_cis.job -> /home1/pantazis/klk/VDZ/Conjugated/1_3_butadiene_cis.job
1_3_butadiene_cis.loc -> /home1/pantazis/klk/VDZ/Conjugated/1_3_butadiene_cis.loc
1_3_butadiene_cis.nodes -> /home1/pantazis/klk/VDZ/Conjugated/1_3_butadiene_cis.nodes
1_3_butadiene_cis.prop -> /home1/pantazis/klk/VDZ/Conjugated/1_3_butadiene_cis.prop
1_3_butadiene_cis_property.txt -> /home1/pantazis/klk/VDZ/Conjugated/1_3_butadiene_cis_property.txt
1_3_butadiene_cis.xyz -> /home1/pantazis/klk/VDZ/Conjugated/1_3_butadiene_cis.xyz
cp: cannot stat 1_3_butadiene_cis.asa.inp: No such file or directory
