! Job execution by suborca V 6.07 on ZEUS !
Job started from zeus1, running /scratch/pantazis/1_4_diF_cyclohexane_diax__wYJnE1/orca/orca copied from /opt/orca on zeussn143 in /scratch/pantazis/1_4_diF_cyclohexane_diax__wYJnE1
Job execution start: Sat Jun 29 10:18:54 CEST 2019
Shared library path: /scratch/pantazis/1_4_diF_cyclohexane_diax__wYJnE1/orca:/opt/openmpi_1.10.2/lib:/opt/intel/mkl/lib/intel64:/opt/intel/lib/intel64:
PBS Job ID is: 158669.icqc
izeussn143
izeussn143
izeussn143
izeussn143

                                 *****************
                                 * O   R   C   A *
                                 *****************

           --- An Ab Initio, DFT and Semiempirical electronic structure package ---

                  #######################################################
                  #                        -***-                        #
                  #          Department of theory and spectroscopy      #
                  #               Directorship: Frank Neese             #
                  #        Max Planck Institute fuer Kohlenforschung    #
                  #                Kaiser Wilhelm Platz 1               #
                  #                 D-45470 Muelheim/Ruhr               #
                  #                      Germany                        #
                  #                                                     #
                  #                  All rights reserved                #
                  #                        -***-                        #
                  #######################################################


                         Program Version 4.1.x  -  STABLE  -
                                (SVN: $Rev: 14094$)
                ($Date: 2019-06-14 15:01:15 +0200 (Fri, 14 Jun 2019) $)

                         (BUILD: $Sun Jun 23 06:18:31 CEST 2019$)


 With contributions from (in alphabetic order):
   Daniel Aravena         : Magnetic Properties
   Michael Atanasov       : Ab Initio Ligand Field Theory
   Alexander A. Auer      : GIAO ZORA
   Ute Becker             : Parallelization
   Giovanni Bistoni       : ED, Open-shell LED
   Martin Brehm           : Molecular dynamics
   Dmytro Bykov           : SCF Hessian
   Vijay G. Chilkuri      : MRCI spin determinant printing
   Dipayan Datta          : RHF DLPNO-CCSD density
   Achintya Kumar Dutta   : EOM-CC, STEOM-CC
   Dmitry Ganyushin       : Spin-Orbit,Spin-Spin,Magnetic field MRCI
   Miquel Garcia          : C-PCM Hessian
   Yang Guo               : DLPNO-NEVPT2, CIM, IAO-localization
   Andreas Hansen         : Spin unrestricted coupled pair/coupled cluster methods
   Benjamin Helmich-Paris : CASSCF linear response (MC-RPA)
   Lee Huntington         : MR-EOM, pCC
   Robert Izsak           : Overlap fitted RIJCOSX, COSX-SCS-MP3, EOM
   Christian Kollmar      : KDIIS, OOCD, Brueckner-CCSD(T), CCSD density
   Simone Kossmann        : Meta GGA functionals, TD-DFT gradient, OOMP2, MP2 Hessian
   Martin Krupicka        : AUTO-CI
   Lucas Lang             : DCDCAS
   Dagmar Lenk            : GEPOL surface, SMD
   Dimitrios Liakos       : Extrapolation schemes; parallel MDCI
   Dimitrios Manganas     : ROCIS; embedding schemes
   Dimitrios Pantazis     : SARC Basis sets
   Taras Petrenko         : DFT Hessian,TD-DFT gradient, ASA, ECA, R-Raman, ABS, FL, XAS/XES, NRVS
   Peter Pinski           : DLPNO-MP2, DLPNO-MP2 Gradient
   Christoph Reimann      : Effective Core Potentials
   Marius Retegan         : Local ZFS, SOC
   Christoph Riplinger    : Optimizer, TS searches, QM/MM, DLPNO-CCSD(T), (RO)-DLPNO pert. Triples
   Tobias Risthaus        : Range-separated hybrids, TD-DFT gradient, RPA, STAB
   Michael Roemelt        : Restricted open shell CIS
   Masaaki Saitow         : Open-shell DLPNO
   Barbara Sandhoefer     : DKH picture change effects
   Avijit Sen             : IP-ROCIS
   Kantharuban Sivalingam : CASSCF convergence, NEVPT2, FIC-MRCI
   Bernardo de Souza      : ESD, SOC TD-DFT
   Georgi Stoychev        : AutoAux, RI-MP2 NMR
   Willem Van den Heuvel  : Paramagnetic NMR
   Boris Wezisla          : Elementary symmetry handling
   Frank Wennmohs         : Technical directorship


 We gratefully acknowledge several colleagues who have allowed us to
 interface, adapt or use parts of their codes:
   Stefan Grimme, W. Hujo, H. Kruse,             : VdW corrections, initial TS optimization,
                  C. Bannwarth                     DFT functionals, gCP, sTDA/sTD-DF
   Ed Valeev                                     : LibInt (2-el integral package), F12 methods
   Garnet Chan, S. Sharma, J. Yang, R. Olivares  : DMRG
   Ulf Ekstrom                                   : XCFun DFT Library
   Mihaly Kallay                                 : mrcc  (arbitrary order and MRCC methods)
   Andreas Klamt, Michael Diedenhofen            : otool_cosmo (COSMO solvation model)
   Jiri Pittner, Ondrej Demel                    : Mk-CCSD
   Frank Weinhold                                : gennbo (NPA and NBO analysis)
   Christopher J. Cramer and Donald G. Truhlar   : smd solvation model
   Lars Goerigk                                  : TD-DFT with DH, B97 family of functionals
   V. Asgeirsson, H. Jonsson                     : NEB implementation
   FAccTs GmbH                                   : IRC, NEB, NEB-TS, Multilevel


 Your calculation uses the libint2 library for the computation of 2-el integrals
 For citations please refer to: http://libint.valeyev.net

 This ORCA versions uses:
   CBLAS   interface :  Fast vector & matrix operations
   LAPACKE interface :  Fast linear algebra routines
   SCALAPACK package :  Parallel linear algebra routines




***************************************
The coordinates will be read from file: 1_4_diF_cyclohexane_diax.xyz
***************************************


----- Orbital basis set information -----
Your calculation utilizes the basis: cc-pVDZ 
       H, B-Ne : Obtained from the ccRepo (grant-hill.group.shef.ac.uk/ccrepo) Feb. 2017
                 T. H. Dunning, Jr., J. Chem. Phys. 90, 1007 (1989)
            He : Obtained from the ccRepo (grant-hill.group.shef.ac.uk/ccrepo) Feb. 2017
                 D. E. Woon, T. H. Dunning, Jr., J. Chem. Phys. 100, 2975 (1994)
  Li-Be, Na-Mg : Obtained from the ccRepo (grant-hill.group.shef.ac.uk/ccrepo) Feb. 2017
                 B. P. Prascher, D. E. Woon, K. A. Peterson, T. H. Dunning, Jr., A. K. Wilson, Theor. Chem. Acc. 128, 69 (2011)
         Al-Ar : Obtained from the ccRepo (grant-hill.group.shef.ac.uk/ccrepo) Feb. 2017
                 D. E. Woon, T. H. Dunning, Jr., J. Chem. Phys. 98, 1358 (1993)
            Ca : Obtained from the Peterson Research Group Website (tyr0.chem.wsu.edu/~kipeters) Feb. 2017
                 J. Koput, K. A. Peterson, J. Phys. Chem. 106, 9595 (2002)
         Sc-Zn : Obtained from the ccRepo (grant-hill.group.shef.ac.uk/ccrepo) Feb. 2017
                 N. B. Balabanov, K. A. Peterson, J. Chem. Phys. 123, 064107 (2005)
                 N. B. Balabanov, K. A. Peterson, J. Chem. Phys. 125, 074110 (2006)
         Ga-Kr : Obtained from the ccRepo (grant-hill.group.shef.ac.uk/ccrepo) Feb. 2017
                 A. K. Wilson, D. E. Woon, K. A. Peterson, T. H. Dunning, Jr., J. Chem. Phys. 110, 7667 (1999)

----- AuxC basis set information -----
Your calculation utilizes the auxiliary basis: cc-pVDZ/C 
  H-He, B, Ne, Al-Ar, Ga-Br : Obtained from the EMSL Basis Set Exchange (bse.pnl.gov) Feb. 2017
                              F. Weigend, A. Kohn, C. Hattig, J. Chem. Phys. 116, 3175 (2002)
               Li-Be, Na-Mg : Obtained from the EMSL Basis Set Exchange (bse.pnl.gov) Feb. 2017
                              C. Haettig, Phys. Chem. Chem. Phys. 7, 59 (2005)
                        C-F : Obtained from the EMSL Basis Set Exchange (bse.pnl.gov) Feb. 2017
                              C. Haettig, Phys. Chem. Chem. Phys. 7, 59 (2005)
                              F. Weigend, A. Kohn, C. Hattig, J. Chem. Phys. 116, 3175 (2002)
                         Kr : Obtained from the TURBOMOLE 7.0 basis set library
                              F. Weigend, A. Kohn, C. Hattig, J. Chem. Phys. 116, 3175 (2002)
                              S function revised in Sep. 2009

----- AuxJK basis set information -----
Your calculation utilizes the auxiliary basis: cc-pVTZ/JK 
  H, B-F, Al-Cl, Ga-Br : Obtained from the TURBOMOLE 7.0 basis set library

================================================================================
                                        WARNINGS
                       Please study these warnings very carefully!
================================================================================


WARNING: MDCI localization with Augmented Hessian Foster-Boys
  ===> : Switching off randomization!

WARNING: Post HF methods need fully converged wavefunctions
  ===> : Setting SCFConvForced true
         You can overwrite this default with %scf ConvForced false 


INFO   : the flag for use of LIBINT has been found!

================================================================================
                                       INPUT FILE
================================================================================
NAME = 1_4_diF_cyclohexane_diax.inp
|  1> ! RHF DLPNO-CCSD(T) cc-pVDZ RIJK cc-pVTZ/JK cc-pVDZ/C
|  2> ! KDIIS SOSCF TightSCF TightPNO
|  3> 
|  4> %pal nprocs 4 end
|  5> 
|  6> %maxcore 8000
|  7> 
|  8> %scf maxiter 300
|  9>      shift shift 0.2 erroff 0.1 end
| 10> end
| 11> 
| 12> * xyzfile 0 1 1_4_diF_cyclohexane_diax.xyz 
| 13> 
| 14> 
| 15>                          ****END OF INPUT****
================================================================================

                       ****************************
                       * Single Point Calculation *
                       ****************************

---------------------------------
CARTESIAN COORDINATES (ANGSTROEM)
---------------------------------
  C     -0.527550    1.270800   -0.559430
  C      0.527590    1.270790    0.559460
  C      1.370140   -0.000010    0.555750
  C      0.527580   -1.270780    0.559460
  C     -0.527570   -1.270790   -0.559420
  C     -1.370130   -0.000010   -0.555760
  F      2.170140   -0.000010   -0.624880
  F     -2.170190    0.000020    0.624830
  H      1.185290   -2.141220    0.464810
  H      0.033000   -1.343420    1.535680
  H      2.081950   -0.000010    1.388440
  H      0.033030    1.343430    1.535690
  H      1.185330    2.141200    0.464770
  H     -0.033020   -1.343470   -1.535650
  H     -1.185310   -2.141210   -0.464730
  H     -2.081920   -0.000030   -1.388460
  H     -0.032970    1.343460   -1.535650
  H     -1.185280    2.141220   -0.464750

----------------------------
CARTESIAN COORDINATES (A.U.)
----------------------------
  NO LB      ZA    FRAG     MASS         X           Y           Z
   0 C     6.0000    0    12.011   -0.996925    2.401464   -1.057169
   1 C     6.0000    0    12.011    0.997001    2.401445    1.057226
   2 C     6.0000    0    12.011    2.589189   -0.000019    1.050215
   3 C     6.0000    0    12.011    0.996982   -2.401426    1.057226
   4 C     6.0000    0    12.011   -0.996963   -2.401445   -1.057151
   5 C     6.0000    0    12.011   -2.589170   -0.000019   -1.050234
   6 F     9.0000    0    18.998    4.100970   -0.000019   -1.180852
   7 F     9.0000    0    18.998   -4.101065    0.000038    1.180758
   8 H     1.0000    0     1.008    2.239873   -4.046319    0.878364
   9 H     1.0000    0     1.008    0.062361   -2.538696    2.902015
  10 H     1.0000    0     1.008    3.934315   -0.000019    2.623771
  11 H     1.0000    0     1.008    0.062418    2.538715    2.902034
  12 H     1.0000    0     1.008    2.239949    4.046282    0.878288
  13 H     1.0000    0     1.008   -0.062399   -2.538790   -2.901958
  14 H     1.0000    0     1.008   -2.239911   -4.046300   -0.878212
  15 H     1.0000    0     1.008   -3.934259   -0.000057   -2.623809
  16 H     1.0000    0     1.008   -0.062304    2.538771   -2.901958
  17 H     1.0000    0     1.008   -2.239855    4.046319   -0.878250

--------------------------------
INTERNAL COORDINATES (ANGSTROEM)
--------------------------------
 C      0   0   0     0.000000000000     0.00000000     0.00000000
 C      1   0   0     1.537932134979     0.00000000     0.00000000
 C      2   1   0     1.524741586827   112.16971882     0.00000000
 C      3   2   1     1.524722109304   112.90919458   307.92058810
 C      4   3   2     1.537931720526   112.17052503    52.07920169
 C      5   4   3     1.524730322910   112.17120474   308.31283365
 F      3   2   1     1.426144171148   108.17912792    67.60900967
 F      6   5   4     1.426144716570   108.18029970   292.38833465
 H      4   3   2     1.095083038039   109.29122893   174.90710996
 H      4   3   2     1.096764074175   107.85188622   291.08945235
 H      3   2   1     1.095466162052   110.92885442   182.69336747
 H      2   1   3     1.096763956419   109.76742187   240.12038456
 H      2   1   3     1.095080669083   110.43631468   122.17539819
 H      5   4   3     1.096762097175   109.76736475    68.19345325
 H      5   4   3     1.095088617464   110.43707066   186.13616153
 H      6   5   4     1.095460768125   110.92936105   177.30514163
 H      1   2   3     1.096765398980   109.76628167   291.80709617
 H      1   2   3     1.095081746583   110.43694883   173.86373830

---------------------------
INTERNAL COORDINATES (A.U.)
---------------------------
 C      0   0   0     0.000000000000     0.00000000     0.00000000
 C      1   0   0     2.906270547666     0.00000000     0.00000000
 C      2   1   0     2.881344024104   112.16971882     0.00000000
 C      3   2   1     2.881307216919   112.90919458   307.92058810
 C      4   3   2     2.906269764464   112.17052503    52.07920169
 C      5   4   3     2.881322738384   112.17120474   308.31283365
 F      3   2   1     2.695021910958   108.17912792    67.60900967
 F      6   5   4     2.695022941656   108.18029970   292.38833465
 H      4   3   2     2.069407035796   109.29122893   174.90710996
 H      4   3   2     2.072583733714   107.85188622   291.08945235
 H      3   2   1     2.070131035255   110.92885442   182.69336747
 H      2   1   3     2.072583511188   109.76742187   240.12038456
 H      2   1   3     2.069402559119   110.43631468   122.17539819
 H      5   4   3     2.072579997726   109.76736475    68.19345325
 H      5   4   3     2.069417579382   110.43707066   186.13616153
 H      6   5   4     2.070120842210   110.92936105   177.30514163
 H      1   2   3     2.072586237233   109.76628167   291.80709617
 H      1   2   3     2.069404595299   110.43694883   173.86373830

---------------------
BASIS SET INFORMATION
---------------------
There are 3 groups of distinct atoms

 Group   1 Type C   : 17s4p1d contracted to 3s2p1d pattern {881/31/1}
 Group   2 Type F   : 17s4p1d contracted to 3s2p1d pattern {881/31/1}
 Group   3 Type H   : 4s1p contracted to 2s1p pattern {31/1}

Atom   0C    basis set group =>   1
Atom   1C    basis set group =>   1
Atom   2C    basis set group =>   1
Atom   3C    basis set group =>   1
Atom   4C    basis set group =>   1
Atom   5C    basis set group =>   1
Atom   6F    basis set group =>   2
Atom   7F    basis set group =>   2
Atom   8H    basis set group =>   3
Atom   9H    basis set group =>   3
Atom  10H    basis set group =>   3
Atom  11H    basis set group =>   3
Atom  12H    basis set group =>   3
Atom  13H    basis set group =>   3
Atom  14H    basis set group =>   3
Atom  15H    basis set group =>   3
Atom  16H    basis set group =>   3
Atom  17H    basis set group =>   3
-------------------------------
AUXILIARY BASIS SET INFORMATION
-------------------------------
There are 3 groups of distinct atoms

 Group   1 Type C   : 7s5p4d2f contracted to 7s5p4d2f pattern {1111111/11111/1111/11}
 Group   2 Type F   : 7s5p4d2f contracted to 7s5p4d2f pattern {1111111/11111/1111/11}
 Group   3 Type H   : 3s2p1d contracted to 3s2p1d pattern {111/11/1}

Atom   0C    basis set group =>   1
Atom   1C    basis set group =>   1
Atom   2C    basis set group =>   1
Atom   3C    basis set group =>   1
Atom   4C    basis set group =>   1
Atom   5C    basis set group =>   1
Atom   6F    basis set group =>   2
Atom   7F    basis set group =>   2
Atom   8H    basis set group =>   3
Atom   9H    basis set group =>   3
Atom  10H    basis set group =>   3
Atom  11H    basis set group =>   3
Atom  12H    basis set group =>   3
Atom  13H    basis set group =>   3
Atom  14H    basis set group =>   3
Atom  15H    basis set group =>   3
Atom  16H    basis set group =>   3
Atom  17H    basis set group =>   3
-------------------------------
AUXILIARY BASIS SET INFORMATION
-------------------------------
There are 3 groups of distinct atoms

 Group   1 Type C   : 10s7p5d2f1g contracted to 10s7p5d2f1g pattern {1111111111/1111111/11111/11/1}
 Group   2 Type F   : 10s7p5d2f1g contracted to 10s7p5d2f1g pattern {1111111111/1111111/11111/11/1}
 Group   3 Type H   : 4s3p2d1f contracted to 4s3p2d1f pattern {1111/111/11/1}

Atom   0C    basis set group =>   1
Atom   1C    basis set group =>   1
Atom   2C    basis set group =>   1
Atom   3C    basis set group =>   1
Atom   4C    basis set group =>   1
Atom   5C    basis set group =>   1
Atom   6F    basis set group =>   2
Atom   7F    basis set group =>   2
Atom   8H    basis set group =>   3
Atom   9H    basis set group =>   3
Atom  10H    basis set group =>   3
Atom  11H    basis set group =>   3
Atom  12H    basis set group =>   3
Atom  13H    basis set group =>   3
Atom  14H    basis set group =>   3
Atom  15H    basis set group =>   3
Atom  16H    basis set group =>   3
Atom  17H    basis set group =>   3

Checking for AutoStart:
The File: 1_4_diF_cyclohexane_diax.gbw exists
Trying to determine its content:
     ... Fine, the file contains calculation information
     ... Fine, the calculation information was read
     ... Fine, the file contains a basis set
     ... Fine, the basis set was read
     ... Fine, the file contains a geometry
     ... Fine, the geometry was read
     ... Fine, the file contains a set of orbitals
     ... Fine, the orbitals can be read
     => possible old guess file was deleted
     => GBW file was renamed to GES file
     => GES file is set as startup file
     => Guess is set to MORead
     ... now leaving AutoStart



           ************************************************************
           *        Program running with 4 parallel MPI-processes     *
           *              working on a common directory               *
           ************************************************************
------------------------------------------------------------------------------
                           ORCA GTO INTEGRAL CALCULATION
                           -- RI-GTO INTEGRALS CHOSEN --
------------------------------------------------------------------------------

                         BASIS SET STATISTICS AND STARTUP INFO

Gaussian basis set:
 # of primitive gaussian shells          ...  226
 # of primitive gaussian functions       ...  342
 # of contracted shells                  ...   78
 # of contracted basis functions         ...  162
 Highest angular momentum                ...    2
 Maximum contraction depth               ...    8
Auxiliary gaussian basis set:
 # of primitive gaussian shells          ...  300
 # of primitive gaussian functions       ...  932
 # of contracted shells                  ...  300
 # of contracted aux-basis functions     ...  932
 Highest angular momentum                ...    4
 Maximum contraction depth               ...    1
Ratio of auxiliary to basis functions    ...  5.75
Integral package used                  ... LIBINT
 One Electron integrals                  ... done
 Ordering auxiliary basis shells         ... done
 Integral threshhold             Thresh  ...  2.500e-11
 Primitive cut-off               TCut    ...  2.500e-12
 Pre-screening matrix                    ... done
 Shell pair data                         ... 
 Ordering of the shell pairs             ... done (   0.001 sec) 3050 of 3081 pairs
 Determination of significant pairs      ... done (   0.000 sec)
 Creation of shell pair data             ... done (   0.001 sec)
 Storage of shell pair data              ... done (   0.002 sec)
 Shell pair data done in (   0.003 sec)
 Computing two index integrals           ... done
 Cholesky decomposition of the V-matrix  ... done


Timings:
 Total evaluation time                   ...  49.121 sec (  0.819 min)
 One electron matrix time                ...  48.515 sec (  0.809 min) = 98.8%
 Schwartz matrix evaluation time         ...   0.218 sec (  0.004 min) =  0.4%
 Two index repulsion integral time       ...   0.124 sec (  0.002 min) =  0.3%
 Cholesky decomposition of V             ...   0.214 sec (  0.004 min) =  0.4%
 Three index repulsion integral time     ...   0.000 sec (  0.000 min) =  0.0%



           ************************************************************
           *        Program running with 4 parallel MPI-processes     *
           *              working on a common directory               *
           ************************************************************
-------------------------------------------------------------------------------
                                 ORCA SCF
-------------------------------------------------------------------------------

------------
SCF SETTINGS
------------
Hamiltonian:
 Ab initio Hamiltonian  Method          .... Hartree-Fock(GTOs)
 RI-approximation to the Coulomb term is turned on
   Number of auxiliary basis functions  .... 932
   RI-JK (J+K treated both via RI)      .... on


General Settings:
 Integral files         IntName         .... 1_4_diF_cyclohexane_diax
 Hartree-Fock type      HFTyp           .... RHF
 Total Charge           Charge          ....    0
 Multiplicity           Mult            ....    1
 Number of Electrons    NEL             ....   64
 Basis Dimension        Dim             ....  162
 Nuclear Repulsion      ENuc            ....    417.1899414958 Eh

Convergence Acceleration:
 DIIS                   CNVDIIS         .... off
 Newton-Raphson         CNVNR           .... off
 SOSCF                  CNVSOSCF        .... on
   Start iteration      SOSCFMaxIt      ....   150
   Startup grad/error   SOSCFStart      ....  0.003300
 Level Shifting         CNVShift        .... on
   Level shift para.    LevelShift      ....    0.2000
   Turn off err/grad.   ShiftErr        ....    0.1000
 Zerner damping         CNVZerner       .... off
 Static damping         CNVDamp         .... off
 Fernandez-Rico         CNVRico         .... off

SCF Procedure:
 Maximum # iterations   MaxIter         ....   300
 SCF integral mode      SCFMode         .... Direct
   Integral package                     .... LIBINT
 Reset frequency        DirectResetFreq ....    20
 Integral Threshold     Thresh          ....  2.500e-11 Eh
 Primitive CutOff       TCut            ....  2.500e-12 Eh

Convergence Tolerance:
 Convergence Check Mode ConvCheckMode   .... Total+1el-Energy
 Convergence forced     ConvForced      .... 1
 Energy Change          TolE            ....  1.000e-08 Eh
 1-El. energy change                    ....  1.000e-05 Eh
 Orbital Gradient       TolG            ....  1.000e-05
 Orbital Rotation angle TolX            ....  1.000e-05


Diagonalization of the overlap matrix:
Smallest eigenvalue                        ... 3.151e-03
Time for diagonalization                   ...    0.007 sec
Threshold for overlap eigenvalues          ... 1.000e-08
Number of eigenvalues below threshold      ... 0
Time for construction of square roots      ...    0.015 sec
Total time needed                          ...    0.022 sec

---------------------
INITIAL GUESS: MOREAD
---------------------
Guess MOs are being read from file: 1_4_diF_cyclohexane_diax.ges
Input Geometry matches current geometry (good)
Atom 0: N(Shells)= 6 and 10 - projection required
Input basis set needs projection
NBasis(read)= 380
NBasis(calc)= 162
Basis set overlap was calculated
Using GuessMode=FMatrix for the initial guess
C*T matrix was formed
Effective Fockian was calculated
Effective Fockian was diagonalized
Initial density was built
                      ------------------
                      INITIAL GUESS DONE (   0.1 sec)
                      ------------------
--------------
SCF ITERATIONS
--------------
ITER       Energy         Delta-E        Max-DP      RMS-DP      [F,P]   Gradient Norm
                             ****Turning on KDIIS(Cayley)****
  0   -431.9453250170   0.000000000000 0.00226274  0.00007531  0.0055677   0.006351141
  1   -431.9455270911  -0.000202074110 0.00449481  0.00014500  0.0050261   0.005656344
  2   -431.9458062793  -0.000279188252 0.00767242  0.00024092  0.0040452   0.004615764
                      *** Initiating the SOSCF procedure ***
                           *** Shutting down KDIIS ***
                      *** Re-Reading the Fockian *** 
                      *** Removing any level shift *** 
ITER      Energy       Delta-E        Grad      Rot      Max-DP    RMS-DP
  3   -431.94616474  -0.0003584655  0.002422  0.002422  0.011661  0.000362
  4   -431.94637104  -0.0002062916  0.000028  0.000028  0.000063  0.000002
  5   -431.94637108  -0.0000000395  0.000014  0.000027  0.000048  0.000002
                  ***Gradient check signals convergence***
              ***Rediagonalizing the Fockian in SOSCF/NRSCF***

               *****************************************************
               *                     SUCCESS                       *
               *           SCF CONVERGED AFTER   6 CYCLES          *
               *****************************************************


----------------
TOTAL SCF ENERGY
----------------

Total Energy       :         -431.94637109 Eh          -11753.85831 eV

Components:
Nuclear Repulsion  :          417.18994150 Eh           11352.31545 eV
Electronic Energy  :         -849.13631258 Eh          -23106.17376 eV
One Electron Energy:        -1422.03162425 Eh          -38695.44773 eV
Two Electron Energy:          572.89531167 Eh           15589.27397 eV

Virial components:
Potential Energy   :         -863.53907358 Eh          -23498.09281 eV
Kinetic Energy     :          431.59270249 Eh           11744.23450 eV
Virial Ratio       :            2.00081945


---------------
SCF CONVERGENCE
---------------

  Last Energy change         ...   -1.0415e-08  Tolerance :   1.0000e-08
  Last MAX-Density change    ...    9.1463e-06  Tolerance :   1.0000e-07
  Last RMS-Density change    ...    3.0422e-07  Tolerance :   5.0000e-09
  Last Orbital Gradient      ...    2.3499e-06  Tolerance :   1.0000e-05
  Last Orbital Rotation      ...    1.8442e-06  Tolerance :   1.0000e-05

             **** THE GBW FILE WAS UPDATED (1_4_diF_cyclohexane_diax.gbw) ****
             **** DENSITY FILE WAS UPDATED (1_4_diF_cyclohexane_diax.scfp.tmp) ****
             **** ENERGY FILE WAS UPDATED (1_4_diF_cyclohexane_diax.en.tmp) ****
----------------
ORBITAL ENERGIES
----------------

  NO   OCC          E(Eh)            E(eV) 
   0   2.0000     -26.264472      -714.6926 
   1   2.0000     -26.264469      -714.6925 
   2   2.0000     -11.314220      -307.8756 
   3   2.0000     -11.314217      -307.8755 
   4   2.0000     -11.238761      -305.8222 
   5   2.0000     -11.238739      -305.8216 
   6   2.0000     -11.238177      -305.8064 
   7   2.0000     -11.238164      -305.8060 
   8   2.0000      -1.567716       -42.6597 
   9   2.0000      -1.566869       -42.6367 
  10   2.0000      -1.126095       -30.6426 
  11   2.0000      -1.026382       -27.9293 
  12   2.0000      -1.016738       -27.6669 
  13   2.0000      -0.864621       -23.5275 
  14   2.0000      -0.850146       -23.1337 
  15   2.0000      -0.764142       -20.7934 
  16   2.0000      -0.708620       -19.2825 
  17   2.0000      -0.688154       -18.7256 
  18   2.0000      -0.670174       -18.2364 
  19   2.0000      -0.666882       -18.1468 
  20   2.0000      -0.653885       -17.7931 
  21   2.0000      -0.614230       -16.7140 
  22   2.0000      -0.590719       -16.0743 
  23   2.0000      -0.589023       -16.0281 
  24   2.0000      -0.566379       -15.4120 
  25   2.0000      -0.542828       -14.7711 
  26   2.0000      -0.528198       -14.3730 
  27   2.0000      -0.516436       -14.0529 
  28   2.0000      -0.504872       -13.7383 
  29   2.0000      -0.489229       -13.3126 
  30   2.0000      -0.449003       -12.2180 
  31   2.0000      -0.448026       -12.1914 
  32   0.0000       0.174045         4.7360 
  33   0.0000       0.192722         5.2442 
  34   0.0000       0.220308         5.9949 
  35   0.0000       0.229570         6.2469 
  36   0.0000       0.240920         6.5558 
  37   0.0000       0.248333         6.7575 
  38   0.0000       0.251550         6.8450 
  39   0.0000       0.260480         7.0880 
  40   0.0000       0.267385         7.2759 
  41   0.0000       0.303556         8.2602 
  42   0.0000       0.320712         8.7270 
  43   0.0000       0.326446         8.8830 
  44   0.0000       0.365530         9.9466 
  45   0.0000       0.395172        10.7532 
  46   0.0000       0.400388        10.8951 
  47   0.0000       0.401813        10.9339 
  48   0.0000       0.418223        11.3804 
  49   0.0000       0.462569        12.5871 
  50   0.0000       0.600514        16.3408 
  51   0.0000       0.609755        16.5923 
  52   0.0000       0.626702        17.0534 
  53   0.0000       0.668064        18.1790 
  54   0.0000       0.672723        18.3057 
  55   0.0000       0.696325        18.9480 
  56   0.0000       0.741473        20.1765 
  57   0.0000       0.761839        20.7307 
  58   0.0000       0.788066        21.4444 
  59   0.0000       0.806070        21.9343 
  60   0.0000       0.813599        22.1392 
  61   0.0000       0.815634        22.1945 
  62   0.0000       0.831638        22.6300 
  63   0.0000       0.840907        22.8822 
  64   0.0000       0.845728        23.0134 
  65   0.0000       0.863930        23.5087 
  66   0.0000       0.865766        23.5587 
  67   0.0000       0.867464        23.6049 
  68   0.0000       0.895851        24.3774 
  69   0.0000       0.897888        24.4328 
  70   0.0000       0.906061        24.6552 
  71   0.0000       0.918688        24.9988 
  72   0.0000       0.925724        25.1902 
  73   0.0000       0.937813        25.5192 
  74   0.0000       0.943454        25.6727 
  75   0.0000       1.001684        27.2572 
  76   0.0000       1.113517        30.3003 
  77   0.0000       1.115378        30.3510 
  78   0.0000       1.120956        30.5028 
  79   0.0000       1.230945        33.4957 
  80   0.0000       1.232987        33.5513 
  81   0.0000       1.250689        34.0330 
  82   0.0000       1.295765        35.2596 
  83   0.0000       1.337983        36.4084 
  84   0.0000       1.418028        38.5865 
  85   0.0000       1.453395        39.5489 
  86   0.0000       1.477185        40.1963 
  87   0.0000       1.488019        40.4911 
  88   0.0000       1.527326        41.5607 
  89   0.0000       1.541928        41.9580 
  90   0.0000       1.573725        42.8232 
  91   0.0000       1.603686        43.6385 
  92   0.0000       1.610279        43.8179 
  93   0.0000       1.618914        44.0529 
  94   0.0000       1.679681        45.7065 
  95   0.0000       1.688849        45.9559 
  96   0.0000       1.715109        46.6705 
  97   0.0000       1.717405        46.7330 
  98   0.0000       1.718316        46.7578 
  99   0.0000       1.790179        48.7132 
 100   0.0000       1.825942        49.6864 
 101   0.0000       1.832506        49.8650 
 102   0.0000       1.852141        50.3993 
 103   0.0000       1.861423        50.6519 
 104   0.0000       1.892475        51.4969 
 105   0.0000       1.899722        51.6941 
 106   0.0000       1.930848        52.5410 
 107   0.0000       1.932201        52.5779 
 108   0.0000       1.933725        52.6193 
 109   0.0000       1.937603        52.7249 
 110   0.0000       1.942278        52.8521 
 111   0.0000       1.960986        53.3612 
 112   0.0000       1.969450        53.5915 
 113   0.0000       1.989492        54.1368 
 114   0.0000       2.008138        54.6442 
 115   0.0000       2.031851        55.2895 
 116   0.0000       2.059331        56.0372 
 117   0.0000       2.072297        56.3901 
 118   0.0000       2.108477        57.3746 
 119   0.0000       2.109461        57.4014 
 120   0.0000       2.172821        59.1255 
 121   0.0000       2.174867        59.1811 
 122   0.0000       2.175135        59.1884 
 123   0.0000       2.183626        59.4195 
 124   0.0000       2.225021        60.5459 
 125   0.0000       2.252924        61.3052 
 126   0.0000       2.257322        61.4248 
 127   0.0000       2.263496        61.5929 
 128   0.0000       2.304205        62.7006 
 129   0.0000       2.320089        63.1328 
 130   0.0000       2.391267        65.0697 
 131   0.0000       2.487803        67.6965 
 132   0.0000       2.500488        68.0417 
 133   0.0000       2.519122        68.5488 
 134   0.0000       2.525309        68.7171 
 135   0.0000       2.532043        68.9004 
 136   0.0000       2.560857        69.6845 
 137   0.0000       2.563621        69.7597 
 138   0.0000       2.578965        70.1772 
 139   0.0000       2.649652        72.1007 
 140   0.0000       2.823632        76.8349 
 141   0.0000       2.829207        76.9866 
 142   0.0000       2.864127        77.9369 
 143   0.0000       2.874879        78.2294 
 144   0.0000       2.875334        78.2418 
 145   0.0000       2.911021        79.2129 
 146   0.0000       2.948291        80.2271 
 147   0.0000       2.962604        80.6166 
 148   0.0000       2.972647        80.8898 
 149   0.0000       3.006971        81.8239 
 150   0.0000       3.118463        84.8577 
 151   0.0000       3.122220        84.9599 
 152   0.0000       4.040605       109.9505 
 153   0.0000       4.052117       110.2637 
 154   0.0000       4.053789       110.3092 
 155   0.0000       4.055097       110.3448 
 156   0.0000       4.236077       115.2695 
 157   0.0000       4.261881       115.9717 
 158   0.0000       4.265318       116.0652 
 159   0.0000       4.282047       116.5204 
 160   0.0000       4.495982       122.3419 
 161   0.0000       4.509111       122.6991 

                    ********************************
                    * MULLIKEN POPULATION ANALYSIS *
                    ********************************

-----------------------
MULLIKEN ATOMIC CHARGES
-----------------------
   0 C :   -0.039295
   1 C :   -0.039286
   2 C :    0.252850
   3 C :   -0.039287
   4 C :   -0.039293
   5 C :    0.252853
   6 F :   -0.389265
   7 F :   -0.389267
   8 H :    0.044352
   9 H :    0.048165
  10 H :    0.029959
  11 H :    0.048166
  12 H :    0.044353
  13 H :    0.048166
  14 H :    0.044352
  15 H :    0.029959
  16 H :    0.048167
  17 H :    0.044353
Sum of atomic charges:   -0.0000000

--------------------------------
MULLIKEN REDUCED ORBITAL CHARGES
--------------------------------
  0 C s       :     3.056868  s :     3.056868
      pz      :     0.993727  p :     2.903170
      px      :     0.955380
      py      :     0.954062
      dz2     :     0.020617  d :     0.079257
      dxz     :     0.019250
      dyz     :     0.004896
      dx2y2   :     0.010968
      dxy     :     0.023526
  1 C s       :     3.056859  s :     3.056859
      pz      :     0.993725  p :     2.903168
      px      :     0.955381
      py      :     0.954062
      dz2     :     0.020618  d :     0.079259
      dxz     :     0.019249
      dyz     :     0.004896
      dx2y2   :     0.010969
      dxy     :     0.023527
  2 C s       :     3.077983  s :     3.077983
      pz      :     0.666565  p :     2.520700
      px      :     0.870447
      py      :     0.983687
      dz2     :     0.032760  d :     0.148468
      dxz     :     0.044049
      dyz     :     0.017267
      dx2y2   :     0.022769
      dxy     :     0.031622
  3 C s       :     3.056854  s :     3.056854
      pz      :     0.993729  p :     2.903174
      px      :     0.955381
      py      :     0.954064
      dz2     :     0.020618  d :     0.079260
      dxz     :     0.019250
      dyz     :     0.004896
      dx2y2   :     0.010970
      dxy     :     0.023527
  4 C s       :     3.056859  s :     3.056859
      pz      :     0.993728  p :     2.903175
      px      :     0.955384
      py      :     0.954063
      dz2     :     0.020618  d :     0.079260
      dxz     :     0.019249
      dyz     :     0.004896
      dx2y2   :     0.010969
      dxy     :     0.023527
  5 C s       :     3.077987  s :     3.077987
      pz      :     0.666583  p :     2.520694
      px      :     0.870427
      py      :     0.983685
      dz2     :     0.032758  d :     0.148465
      dxz     :     0.044049
      dyz     :     0.017266
      dx2y2   :     0.022769
      dxy     :     0.031623
  6 F s       :     3.933340  s :     3.933340
      pz      :     1.676827  p :     5.451103
      px      :     1.825132
      py      :     1.949145
      dz2     :     0.001409  d :     0.004822
      dxz     :     0.002149
      dyz     :     0.000546
      dx2y2   :     0.000419
      dxy     :     0.000299
  7 F s       :     3.933340  s :     3.933340
      pz      :     1.676849  p :     5.451105
      px      :     1.825111
      py      :     1.949145
      dz2     :     0.001408  d :     0.004822
      dxz     :     0.002149
      dyz     :     0.000546
      dx2y2   :     0.000419
      dxy     :     0.000300
  8 H s       :     0.925809  s :     0.925809
      pz      :     0.004688  p :     0.029839
      px      :     0.010395
      py      :     0.014756
  9 H s       :     0.922185  s :     0.922185
      pz      :     0.017264  p :     0.029650
      px      :     0.007984
      py      :     0.004402
 10 H s       :     0.941677  s :     0.941677
      pz      :     0.013254  p :     0.028364
      px      :     0.010880
      py      :     0.004230
 11 H s       :     0.922184  s :     0.922184
      pz      :     0.017264  p :     0.029650
      px      :     0.007984
      py      :     0.004402
 12 H s       :     0.925808  s :     0.925808
      pz      :     0.004688  p :     0.029839
      px      :     0.010396
      py      :     0.014755
 13 H s       :     0.922184  s :     0.922184
      pz      :     0.017264  p :     0.029650
      px      :     0.007984
      py      :     0.004402
 14 H s       :     0.925809  s :     0.925809
      pz      :     0.004688  p :     0.029839
      px      :     0.010396
      py      :     0.014755
 15 H s       :     0.941677  s :     0.941677
      pz      :     0.013255  p :     0.028364
      px      :     0.010879
      py      :     0.004230
 16 H s       :     0.922184  s :     0.922184
      pz      :     0.017264  p :     0.029650
      px      :     0.007984
      py      :     0.004402
 17 H s       :     0.925808  s :     0.925808
      pz      :     0.004688  p :     0.029839
      px      :     0.010396
      py      :     0.014755


                     *******************************
                     * LOEWDIN POPULATION ANALYSIS *
                     *******************************

----------------------
LOEWDIN ATOMIC CHARGES
----------------------
   0 C :   -0.034003
   1 C :   -0.034003
   2 C :    0.070515
   3 C :   -0.034007
   4 C :   -0.034007
   5 C :    0.070521
   6 F :   -0.144009
   7 F :   -0.144013
   8 H :    0.029500
   9 H :    0.031092
  10 H :    0.020324
  11 H :    0.031090
  12 H :    0.029499
  13 H :    0.031091
  14 H :    0.029500
  15 H :    0.020322
  16 H :    0.031090
  17 H :    0.029498

-------------------------------
LOEWDIN REDUCED ORBITAL CHARGES
-------------------------------
  0 C s       :     2.792508  s :     2.792508
      pz      :     1.023267  p :     3.042449
      px      :     1.011418
      py      :     1.007764
      dz2     :     0.051534  d :     0.199046
      dxz     :     0.047590
      dyz     :     0.011686
      dx2y2   :     0.027517
      dxy     :     0.060719
  1 C s       :     2.792502  s :     2.792502
      pz      :     1.023265  p :     3.042450
      px      :     1.011418
      py      :     1.007767
      dz2     :     0.051536  d :     0.199051
      dxz     :     0.047590
      dyz     :     0.011686
      dx2y2   :     0.027519
      dxy     :     0.060720
  2 C s       :     2.819488  s :     2.819488
      pz      :     0.787347  p :     2.759584
      px      :     0.934224
      py      :     1.038013
      dz2     :     0.078689  d :     0.350413
      dxz     :     0.107027
      dyz     :     0.039421
      dx2y2   :     0.050775
      dxy     :     0.074500
  3 C s       :     2.792498  s :     2.792498
      pz      :     1.023265  p :     3.042453
      px      :     1.011418
      py      :     1.007770
      dz2     :     0.051535  d :     0.199055
      dxz     :     0.047591
      dyz     :     0.011686
      dx2y2   :     0.027522
      dxy     :     0.060721
  4 C s       :     2.792501  s :     2.792501
      pz      :     1.023266  p :     3.042453
      px      :     1.011418
      py      :     1.007768
      dz2     :     0.051536  d :     0.199053
      dxz     :     0.047590
      dyz     :     0.011687
      dx2y2   :     0.027520
      dxy     :     0.060721
  5 C s       :     2.819495  s :     2.819495
      pz      :     0.787361  p :     2.759579
      px      :     0.934211
      py      :     1.038008
      dz2     :     0.078684  d :     0.350405
      dxz     :     0.107027
      dyz     :     0.039418
      dx2y2   :     0.050775
      dxy     :     0.074501
  6 F s       :     3.726940  s :     3.726940
      pz      :     1.675129  p :     5.411116
      px      :     1.809512
      py      :     1.926475
      dz2     :     0.001743  d :     0.005952
      dxz     :     0.002563
      dyz     :     0.000764
      dx2y2   :     0.000487
      dxy     :     0.000395
  7 F s       :     3.726941  s :     3.726941
      pz      :     1.675151  p :     5.411119
      px      :     1.809493
      py      :     1.926476
      dz2     :     0.001743  d :     0.005952
      dxz     :     0.002563
      dyz     :     0.000764
      dx2y2   :     0.000487
      dxy     :     0.000395
  8 H s       :     0.890693  s :     0.890693
      pz      :     0.016105  p :     0.079808
      px      :     0.027254
      py      :     0.036448
  9 H s       :     0.888786  s :     0.888786
      pz      :     0.041023  p :     0.080122
      px      :     0.023005
      py      :     0.016094
 10 H s       :     0.903090  s :     0.903090
      pz      :     0.032426  p :     0.076587
      px      :     0.027650
      py      :     0.016510
 11 H s       :     0.888787  s :     0.888787
      pz      :     0.041024  p :     0.080122
      px      :     0.023005
      py      :     0.016094
 12 H s       :     0.890693  s :     0.890693
      pz      :     0.016105  p :     0.079808
      px      :     0.027256
      py      :     0.036447
 13 H s       :     0.888786  s :     0.888786
      pz      :     0.041024  p :     0.080123
      px      :     0.023004
      py      :     0.016094
 14 H s       :     0.890693  s :     0.890693
      pz      :     0.016105  p :     0.079806
      px      :     0.027255
      py      :     0.036447
 15 H s       :     0.903090  s :     0.903090
      pz      :     0.032428  p :     0.076588
      px      :     0.027650
      py      :     0.016510
 16 H s       :     0.888788  s :     0.888788
      pz      :     0.041023  p :     0.080122
      px      :     0.023005
      py      :     0.016094
 17 H s       :     0.890694  s :     0.890694
      pz      :     0.016105  p :     0.079808
      px      :     0.027255
      py      :     0.036448


                      *****************************
                      * MAYER POPULATION ANALYSIS *
                      *****************************

  NA   - Mulliken gross atomic population
  ZA   - Total nuclear charge
  QA   - Mulliken gross atomic charge
  VA   - Mayer's total valence
  BVA  - Mayer's bonded valence
  FA   - Mayer's free valence

  ATOM       NA         ZA         QA         VA         BVA        FA
  0 C      6.0393     6.0000    -0.0393     3.9678     3.9678    -0.0000
  1 C      6.0393     6.0000    -0.0393     3.9678     3.9678    -0.0000
  2 C      5.7472     6.0000     0.2528     3.8947     3.8947    -0.0000
  3 C      6.0393     6.0000    -0.0393     3.9678     3.9678    -0.0000
  4 C      6.0393     6.0000    -0.0393     3.9678     3.9678     0.0000
  5 C      5.7471     6.0000     0.2529     3.8947     3.8947    -0.0000
  6 F      9.3893     9.0000    -0.3893     0.8940     0.8940    -0.0000
  7 F      9.3893     9.0000    -0.3893     0.8940     0.8940     0.0000
  8 H      0.9556     1.0000     0.0444     0.9768     0.9768    -0.0000
  9 H      0.9518     1.0000     0.0482     0.9722     0.9722    -0.0000
 10 H      0.9700     1.0000     0.0300     0.9753     0.9753    -0.0000
 11 H      0.9518     1.0000     0.0482     0.9722     0.9722    -0.0000
 12 H      0.9556     1.0000     0.0444     0.9768     0.9768     0.0000
 13 H      0.9518     1.0000     0.0482     0.9722     0.9722    -0.0000
 14 H      0.9556     1.0000     0.0444     0.9768     0.9768     0.0000
 15 H      0.9700     1.0000     0.0300     0.9753     0.9753     0.0000
 16 H      0.9518     1.0000     0.0482     0.9722     0.9722    -0.0000
 17 H      0.9556     1.0000     0.0444     0.9768     0.9768     0.0000

  Mayer bond orders larger than 0.1
B(  0-C ,  1-C ) :   1.0317 B(  0-C ,  5-C ) :   1.0389 B(  0-C , 16-H ) :   0.9569 
B(  0-C , 17-H ) :   0.9671 B(  1-C ,  2-C ) :   1.0389 B(  1-C , 11-H ) :   0.9569 
B(  1-C , 12-H ) :   0.9671 B(  2-C ,  3-C ) :   1.0389 B(  2-C ,  6-F ) :   0.8459 
B(  2-C , 10-H ) :   0.9740 B(  3-C ,  4-C ) :   1.0317 B(  3-C ,  8-H ) :   0.9671 
B(  3-C ,  9-H ) :   0.9569 B(  4-C ,  5-C ) :   1.0389 B(  4-C , 13-H ) :   0.9569 
B(  4-C , 14-H ) :   0.9671 B(  5-C ,  7-F ) :   0.8459 B(  5-C , 15-H ) :   0.9740 


-------
TIMINGS
-------

Total SCF time: 0 days 0 hours 0 min 5 sec 

Total time                  ....       5.588 sec
Sum of individual times     ....       5.402 sec  ( 96.7%)

Fock matrix formation       ....       5.314 sec  ( 95.1%)
Diagonalization             ....       0.015 sec  (  0.3%)
Density matrix formation    ....       0.002 sec  (  0.0%)
Population analysis         ....       0.007 sec  (  0.1%)
Initial guess               ....       0.056 sec  (  1.0%)
Orbital Transformation      ....       0.000 sec  (  0.0%)
Orbital Orthonormalization  ....       0.000 sec  (  0.0%)
DIIS solution               ....       0.000 sec  (  0.0%)
SOSCF solution              ....       0.007 sec  (  0.1%)


           ************************************************************
           *        Program running with 4 parallel MPI-processes     *
           *              working on a common directory               *
           ************************************************************


------------------------------------------------------------------------------- 
                              ORCA-MATRIX DRIVEN CI                            
------------------------------------------------------------------------------- 


Wavefunction type
-----------------
Correlation treatment                      ...      CCSD     
Single excitations                         ... ON
Orbital optimization                       ... OFF
Calculation of Z vector                    ... OFF
Calculation of Brueckner orbitals          ... OFF
Perturbative triple excitations            ... ON
Calculation of F12 correction              ... OFF
Frozen core treatment                      ... chemical core (16 el)
Reference Wavefunction                     ... RHF
  Internal Orbitals:     8 ...   31 ( 24 MO's/ 48 electrons)
  Virtual  Orbitals:    32 ...  161 (130 MO's              )
Number of AO's                             ...    162
Number of electrons                        ...     64
Number of correlated electrons             ...     48

Algorithmic settings
--------------------
Integral transformation                    ... All integrals via the RI transformation
K(C) Formation                             ... RI-DLPNO
   PNO-Integral Storage                    ... ON DISK
   PNO occupation number cut-off           ... 1.000e-07
   Singles PNO occupation number cut-off   ... 3.000e-09
   PNO Mulliken prescreening cut-off       ... 1.000e-03
   Domain cut-off (Mulliken population)    ... 1.000e-03
   PNO Normalization                       ...    1
Maximum number of iterations               ...        50
Convergence tolerance (max. residuum)      ... 1.000e-05
Level shift for amplitude update           ... 2.000e-01
Maximum number of DIIS vectors             ...         7
DIIS turned on at iteration                ...         0
Damping before turning on DIIS             ...     0.500
Damping after turning on DIIS              ...     0.000
Pair specific amplitude update             ... OFF
Natural orbital iterations                 ... OFF
Perturbative natural orbital generation    ... OFF
Printlevel                                 ... 2

Singles Fock matrix elements calculated using PNOs.

Memory handling:
----------------
Maximum memory for working arrays          ...   8000 MB
Data storage in matrix containers          ... UNCOMPRESSED
Data type for integral storage             ... DOUBLE
In-Core Storage of quantities:
   Amplitudes+Sigma Vector      ... NO
   J+K operators                ... NO
   DIIS vectors                 ... NO
   3-external integrals         ... NO
   4-external integrals         ... NO

Localization treatment:
-----------------------
Localization option                        ...    6
Localization threshhold                    ... -1.0e+00
Using relative localization threshhold     ... 1.0e-08
Neglect threshold for strong pairs         ... 1.000e-05 Eh
Prescreening threshold for very weak pairs ... 1.000e-07 Eh

Initializing the integral package          ... done
Localizing the valence orbitals
------------------------------------------------------------------------------
                           ORCA ORBITAL LOCALIZATION
------------------------------------------------------------------------------

Input orbitals are from                  ... 1_4_diF_cyclohexane_diax.proc0.gbw
Output orbitals are to                   ... 1_4_diF_cyclohexane_diax.proc0.loc
Max. number of iterations                ... 128
Localizations seeded randomly            ... off
Convergence tolerance                    ... 1.000e-06
Using relative localization threshhold   ... 1.000e-08
Treshold for strong local MOs            ... 9.500e-01
Treshold for bond MOs                    ... 8.500e-01
Operator                                 ... 0
Orbital range for localization           ... 8 to 31
Localization criterion                   ... FOSTER-BOYS (AUGMENTED HESSIAN)
Doing the dipole integrals     ... o.k.
Initial value of the localization sum :   307.244409
ITERATION   0 : L=  321.3883018789 DL=  1.41e+01 (AVERGE_DL)=    0.2263757693 
ITERATION   1 : L=  322.3699623660 DL=  9.82e-01 (AVERGE_DL)=    0.0596384179 
ITERATION   2 : L=  322.3907199979 DL=  2.08e-02 (AVERGE_DL)=    0.0086723014 
ITERATION   3 : L=  322.3931506575 DL=  2.43e-03 (AVERGE_DL)=    0.0029676148 
ITERATION   4 : L=  322.3936235129 DL=  4.73e-04 (AVERGE_DL)=    0.0013089096 
ITERATION   5 : L=  322.3939089254 DL=  2.85e-04 (AVERGE_DL)=    0.0010169088 
ITERATION   6 : L=  322.3941759186 DL=  2.67e-04 (AVERGE_DL)=    0.0009835480 
ITERATION   7 : L=  322.3944351697 DL=  2.59e-04 (AVERGE_DL)=    0.0009691828 
ITERATION   8 : L=  322.3946911453 DL=  2.56e-04 (AVERGE_DL)=    0.0009630409 
ITERATION   9 : L=  322.3949441975 DL=  2.53e-04 (AVERGE_DL)=    0.0009575259 
ITERATION  10 : L=  322.3951940728 DL=  2.50e-04 (AVERGE_DL)=    0.0009514964 
ITERATION  11 : L=  322.3954402125 DL=  2.46e-04 (AVERGE_DL)=    0.0009443571 
ITERATION  12 : L=  322.3956820217 DL=  2.42e-04 (AVERGE_DL)=    0.0009360130 
ITERATION  13 : L=  322.3959189206 DL=  2.37e-04 (AVERGE_DL)=    0.0009264606 
ITERATION  14 : L=  322.3961503806 DL=  2.31e-04 (AVERGE_DL)=    0.0009157639 
DETECTED SLOW CONVERGENCE - QUITTING

------------------------------------------------------
AUGMENTED HESSIAN OPTIMIZATION OF FOSTER-BOYS ORBITALS
------------------------------------------------------

Spin operator:           0
Orbital window:          8 to 31
Number of iterations:    128
Gradient tolerance:      1.000e-06
Number of pairs:         276
Davidson threshold:      2000
Diagonalization method:  LAPACK
Iter:    0   L: 322.3961503806   Grad. norm: 1.922365e-02
Iter:    1   L: 322.3985412218   Grad. norm: 1.526568e-02
Iter:    2   L: 322.4001085429   Grad. norm: 1.125866e-02
Iter:    3   L: 322.4005815819   Grad. norm: 4.804675e-03
   *** Likely close to a maximum now. ***
       Augmented Hessian eigenvalues:  4.61e-07 -3.00e-02 -3.00e-02 -1.48e+00 ... 
Iter:    4   L: 322.4005818123   Grad. norm: 1.355859e-07
LOCALIZATION HAS CONVERGED.

Eigenvalues of the Hessian:
  0 -2.999e-02
  1 -2.999e-02
  2 -1.482e+00
  3 -1.482e+00
  4 -1.488e+00
  5 -1.488e+00
  6 -3.625e+00
  7 -3.625e+00
  8 -3.636e+00
  9 -3.636e+00
    ...


------------------------------------------------------------------------------- 
                    LOCALIZED MOLECULAR ORBITAL COMPOSITIONS                   
------------------------------------------------------------------------------- 

The Mulliken populations for each LMO on each atom are computed
The LMO`s will be ordered according to atom index and type
  (A) Strongly localized MO`s have populations of >=0.950 on one atom
  (B) Two center bond orbitals have populations of >=0.850 on two atoms
  (C) Other MO`s are considered to be `delocalized`

FOUND  -   6 strongly local MO`s
       -  18 two center bond MO`s
       -   0 significantly delocalized MO`s

Rather strongly localized orbitals:
MO  13:   7F  -   0.990842
MO  12:   7F  -   0.986459
MO  11:   7F  -   0.986459
MO  10:   6F  -   0.990841
MO   9:   6F  -   0.986459
MO   8:   6F  -   0.986459
Bond-like localized orbitals:
MO  31:  17H  -   0.493078  and   0C  -   0.513007
MO  30:  16H  -   0.493897  and   0C  -   0.511291
MO  29:  15H  -   0.500017  and   5C  -   0.516453
MO  28:  14H  -   0.493079  and   4C  -   0.513007
MO  27:  13H  -   0.493897  and   4C  -   0.511290
MO  26:  12H  -   0.493078  and   1C  -   0.513006
MO  25:  11H  -   0.493898  and   1C  -   0.511290
MO  24:  10H  -   0.500017  and   2C  -   0.516453
MO  23:   9H  -   0.493898  and   3C  -   0.511289
MO  22:   8H  -   0.493079  and   3C  -   0.513006
MO  21:   7F  -   0.751545  and   5C  -   0.252303
MO  20:   6F  -   0.751545  and   2C  -   0.252304
MO  19:   5C  -   0.540041  and   4C  -   0.510899
MO  18:   5C  -   0.540045  and   0C  -   0.510898
MO  17:   4C  -   0.520059  and   3C  -   0.520057
MO  16:   3C  -   0.510900  and   2C  -   0.540041
MO  15:   2C  -   0.540045  and   1C  -   0.510898
MO  14:   1C  -   0.520057  and   0C  -   0.520058
Localized MO's were stored in: 1_4_diF_cyclohexane_diax.proc0.loc

Localizing the core orbitals
------------------------------------------------------------------------------
                           ORCA ORBITAL LOCALIZATION
------------------------------------------------------------------------------

Input orbitals are from                  ... 1_4_diF_cyclohexane_diax.proc0.loc
Output orbitals are to                   ... 1_4_diF_cyclohexane_diax.proc0.loc
Max. number of iterations                ... 128
Localizations seeded randomly            ... off
Convergence tolerance                    ... 1.000e-06
Using relative localization threshhold   ... 1.000e-08
Treshold for strong local MOs            ... 9.500e-01
Treshold for bond MOs                    ... 8.500e-01
Operator                                 ... 0
Orbital range for localization           ... 0 to 7
Localization criterion                   ... FOSTER-BOYS (AUGMENTED HESSIAN)
Doing the dipole integrals     ... o.k.
Initial value of the localization sum :    83.551653
ITERATION   0 : L=   83.5516782729 DL=  2.51e-05 (AVERGE_DL)=    0.0009474143 
ITERATION   1 : L=   83.5516782729 DL=  0.00e+00 (AVERGE_DL)=    0.0000000000 
LOCALIZATION SUM CONVERGED

------------------------------------------------------
AUGMENTED HESSIAN OPTIMIZATION OF FOSTER-BOYS ORBITALS
------------------------------------------------------

Spin operator:           0
Orbital window:          0 to 7
Number of iterations:    128
Gradient tolerance:      1.000e-06
Number of pairs:         28
Davidson threshold:      2000
Diagonalization method:  LAPACK
Iter:    0   L: 83.5516782729   Grad. norm: 1.321031e-05
   *** Likely close to a maximum now. ***
       Augmented Hessian eigenvalues:  1.76e-12 -2.90e+01 -2.90e+01 -3.32e+01 ... 
Iter:    1   L: 83.5516782729   Grad. norm: 3.103659e-16
LOCALIZATION HAS CONVERGED.

Eigenvalues of the Hessian:
  0 -2.905e+01
  1 -2.905e+01
  2 -3.321e+01
  3 -3.321e+01
  4 -3.321e+01
  5 -3.321e+01
  6 -3.379e+01
  7 -3.379e+01
  8 -8.164e+01
  9 -8.164e+01
    ...


------------------------------------------------------------------------------- 
                    LOCALIZED MOLECULAR ORBITAL COMPOSITIONS                   
------------------------------------------------------------------------------- 

The Mulliken populations for each LMO on each atom are computed
The LMO`s will be ordered according to atom index and type
  (A) Strongly localized MO`s have populations of >=0.950 on one atom
  (B) Two center bond orbitals have populations of >=0.850 on two atoms
  (C) Other MO`s are considered to be `delocalized`

FOUND  -   8 strongly local MO`s
       -   0 two center bond MO`s
       -   0 significantly delocalized MO`s

Rather strongly localized orbitals:
MO   7:   7F  -   0.999752
MO   6:   6F  -   0.999752
MO   5:   5C  -   0.999093
MO   4:   4C  -   0.999239
MO   3:   3C  -   0.999239
MO   2:   2C  -   0.999093
MO   1:   1C  -   0.999239
MO   0:   0C  -   0.999239
Localized MO's were stored in: 1_4_diF_cyclohexane_diax.proc0.loc

Warning: internal orbitals are localized - no re-canonicalization of internal orbitals

--------------------------
CLOSED-SHELL FOCK OPERATOR
--------------------------

RI-JK section for the Fock operator:
  RHF full Fock operator         ... done
  RHF frozen core Fock operator  ... done
Time needed for Fock operator              ...            1.602 sec
Reference energy                           ...   -431.946371087

--------------
DLPNO SETTINGS (2015 fully linear scaling implementation)
--------------

TCutMKN:           1.000e-03
TCutPAO:           1.000e-03
TCutPNO:           1.000e-07
TCutPNOSingles:    3.000e-09
TCutEN:            9.700e-01
TCutPAOExt:        1.000e-01
TCutPairs:         1.000e-05
TCutPre:           1.000e-07
TCutOSV:           1.000e-06
TCutDOij:          1.000e-05
TCutDO:            5.000e-03
TCutC:             1.000e-04
TCutCPAO:          1.000e-03
TCutCMO:           1.000e-03
TScaleDOMP2PreScr: 2.000e+00
TScaleMKNMP2PreScr:1.000e+01
TScalePNOMP2PreScr:1.000e+00
PAO overlap thresh 1.000e-08
Using PNOs for Singles Fock computation
Use new domains
Use fully linear algorithm
TCutTNO:           1.000e-09
TCutMP2Pairs:      1.000e-06
TCutDOStrong:      2.000e-03
TCutMKNStrong:     1.000e-02
TCutMKNWeak:       1.000e-01
TCutDOWeak:        4.000e-03
NTCutTNO:          1

--------------------------
Calculating differential overlap integrals ... ok
--------------------------
ELECTRON PAIR PRESCREENING
--------------------------

Dipole-based pair screening          .... used

   TCutDOij = 1.000000e-05
   TCutPre  = 1.000000e-07
   .... Finished loop over pairs
Total time spent in the prescreening                  ...     0.000 sec
sum of pair energies estimated for screened out pairs ...       0.000000000000 Eh
Thresholds for map construction and integral transformation for crude MP2:
   TCutMKN                    ...     1.0e-02
   TCutDO                     ...     1.0e-02
   TCutPairs                  ...     1.0e-05
   TCutPNO_CrudeMP2           ...     1.0e-07
   TCutPNOSingles_CrudeMP2    ...     3.0e-09
--------------------------------
LOCAL RI TRANSFORMATION (IAVPAO)
--------------------------------

Orbital window:       8 to 31
Number of PAOs:     162
Basis functions:    162 (78 shells)
Aux. functions:     588 (204 shells)

Processing maps (0.0 sec)
Average map sizes:
   Aux shells -> MOs              24.0
   Aux shells -> PAOs            162.0
   MOs        -> AO shells        77.0
   PAOs       -> AO shells        78.0

Calculating integrals (0.4 sec, 17.449 MB)
Sorting integrals (0.0 sec, 17.442 MB)
Total time for the integral transformation: 0.5 sec
--------------------------------
INITIAL GUESS AND PNO GENERATION
--------------------------------

PNO truncation parameters                   .... 
    PAOOverlapThresh   =        1.000e-08

    TCutPairs          =        1.000e-05
    TCutPNO            =        1.000e-07
    TCutPNOSingles     =        3.000e-09
    TCutMP2Pairs       =        1.000e-06
    TCutMKN            =        1.000e-02
    TCutDO             =        1.000e-02

Pair selection                          .... not used
Type of local MP2 treatment                 .... semi-local MP2
Strategy for PNO selection                  .... occupation number selection
Pair density normalization                  .... MP2 norm
Spin component scaling                      .... not used

   .... Finished loop over pairs
Making pair pair interaction lists          ... done

                       ===========================
                        280 OF  300 PAIRS ARE KEPT CCSD PAIRS
                         20 OF  300 PAIRS ARE KEPT MP2 PAIRS FOR (T)
                          0 OF  300 PAIRS ARE SKIPPED
                       ===========================

Total time spent in the initial guess                 ...     0.823 sec
SL-MP2 correlation energy (all non-screened pairs)    ...      -1.161315109224 Eh

Initial PNO correlation energy                        ...      -1.160621623443 Eh
sum of pair energies prescreened and skipped MP2 pairs...       0.000000000000 Eh
sum of pair energies of crude MP2 skipped pairs only  ...       0.000000000000 Eh
sum of MP2 pair energies for pairs that were not kept ...      -0.000095980979 Eh
sum of PNO error estimates for the kept pairs         ...      -0.000597504803 Eh
                                                          --------------------
sum of all corrections                                         -0.000693485782
Initial total correlation energy                               -1.161315109224
Thresholds for map construction and integral transformation for fine MP2 and CCSD(T) calculation:
   TCutMKN   ...     1.0e-03
   TCutDO    ...     5.0e-03
   TCutPairs ...     1.0e-05
   TCutCMO   ...     1.0e-03
   TCutCPAO  ...     1.0e-03

Thresholds for map construction and integral transformation for strong Triples:
   TCutMKN   ...     1.0e-02
   TCutDO    ...     1.0e-02
   TCutCMO   ...     1.0e-03
   TCutCPAO  ...     1.0e-03

Thresholds for map construction and integral transformation for weak Triples:
   TCutMKN   ...     1.0e-01
   TCutDO    ...     2.0e-02
   TCutCMO   ...     1.0e-03
   TCutCPAO  ...     1.0e-03

--------------------------------
LOCAL RI TRANSFORMATION (IAVPAO)
--------------------------------

Orbital window:       8 to 31
Number of PAOs:     162
Basis functions:    162 (78 shells)
Aux. functions:     588 (204 shells)

Processing maps (0.0 sec)
Average map sizes:
   Aux shells -> MOs              24.0
   Aux shells -> PAOs            162.0
   MOs        -> AO shells        77.0
   PAOs       -> AO shells        78.0

Calculating integrals (0.4 sec, 17.449 MB)
Sorting integrals (0.0 sec, 17.442 MB)
Total time for the integral transformation: 0.5 sec
--------------------------------
INITIAL GUESS AND PNO GENERATION
--------------------------------

PNO truncation parameters                   .... 
    ScaleTCutPNO       =        1.000e-02
    PAOOverlapThresh   =        1.000e-08

    TCutPairs          =        1.000e-05
    TCutPNO            =        1.000e-07
    TCutPNOSingles     =        3.000e-09
    TCutMP2Pairs       =        1.000e-06
    TCutMKN            =        1.000e-03
    TCutDO             =        5.000e-03

Pair selection                          .... not used
Type of local MP2 treatment                 .... full local PMP2
Strategy for PNO selection                  .... occupation number selection
Pair density normalization                  .... MP2 norm
Spin component scaling                      .... not used

PASS-1: Formation of initial guess LMP2 amplitudes
Initial amplitudes guess done. Entering LMP2 iteration loop:
   Max. no of iterations          ...  50
   Energy convergence tolerance   ...    1.0e-07
   Residual convergence tolerance ...    5.0e-07
   Fock matrix cutoff             ...    1.0e-05 Eh
   DIIS convergence acceleration parameters:
        Max # vectors in DIIS     ... 7
        Start iteration of DIIS   ... 0
        Levelshift                ... 2.000e-01
        Damping factor 1          ... 5.000e-01
        Damping factor 2          ... 1.000e+00
   L-MP2 PNO cut-off              ...   1.0e-09
   L-MP2 PNO cut-off (core)       ...   1.0e-11
                           *** Turning on DIIS ***
LMP2-Iter=   0:  ELMP2= -1.190398075030  DE=   2.9e-02 RMAX=   9.2e-03
LMP2-Iter=   1:  ELMP2= -1.203356003824  DE=   1.3e-02 RMAX=   6.0e-03
LMP2-Iter=   2:  ELMP2= -1.205328226842  DE=   2.0e-03 RMAX=   1.2e-03
LMP2-Iter=   3:  ELMP2= -1.205577509607  DE=   2.5e-04 RMAX=   5.0e-04
LMP2-Iter=   4:  ELMP2= -1.205597014235  DE=   2.0e-05 RMAX=   4.7e-05
LMP2-Iter=   5:  ELMP2= -1.205595500297  DE=   1.5e-06 RMAX=   1.7e-05
LMP2-Iter=   6:  ELMP2= -1.205595121473  DE=   3.8e-07 RMAX=   1.1e-06
LMP2-Iter=   7:  ELMP2= -1.205595062278  DE=   5.9e-08 RMAX=   3.5e-07
LMP2-Iter=   8:  ELMP2= -1.205595068814  DE=   6.5e-09 RMAX=   2.9e-08 => CONVERGED
PASS-2: Formation of Pair natural orbitals
   .... Finished loop over pairs

 PNO Occupation Number Statistics: 
  | Av. % of trace(Dij) retained        ...  98.878159344720
  | sigma^2 in % of trace(Dij) retained ...   7.82e+00
  | Av. % of trace(Di) retained         ...  99.999859305421
  | sigma^2 in % of trace(Di) retained  ...   4.53e-10
 Distributions of % trace(Dij) recovered:
  |       >= 99.9  ...   114 ( 38.0 % of all pairs)
  |   [80.0, 90.0) ...     9 (  3.0 % of all pairs)
  |   [90.0, 99.0) ...    62 ( 20.7 % of all pairs)
  |   [99.0, 99.9) ...   115 ( 38.3 % of all pairs)
 Distributions of % trace(Di) recovered :
  |       >= 99.9  ...    24 (100.0 % of all I-pairs )

Making pair pair interaction lists          ... done

                       ===========================
                        280 OF  300 PAIRS ARE KEPT
                       ===========================

Total time spent in the initial guess                 ...     6.743 sec
L-MP2 correlation energy (all non-screened pairs)     ...      -1.205595068814 Eh
L-MP2 PNO error correction                            ...      -0.000010955242 Eh
                                                          --------------------
Initial total L-MP2 energy (non-screened pairs)       ...      -1.205606024055 Eh

Initial PNO correlation energy                        ...      -1.205012004213 Eh
sum of pair energies estimated for screened out pairs ...       0.000000000000 Eh
sum of MP2 pair energies for pairs that were not kept ...      -0.000114396352 Eh
sum of PNO error estimates for the kept pairs         ...      -0.000535360731 Eh
                                                          --------------------
sum of all corrections                                         -0.000649757083
Initial total correlation energy                               -1.205661761297
Thresholds for map construction and integral transformation for fine MP2 and CCSD(T) calculation:
   TCutMKN   ...     1.0e-03
   TCutDO    ...     5.0e-03
   TCutPairs ...     1.0e-05
   TCutCMO   ...     1.0e-03
   TCutCPAO  ...     1.0e-03

Time for aux screen maps:            0.003
Time for maps after fine MP2:            0.012
-----------------------------
LOCAL RI TRANSFORMATION (IJV)
-----------------------------

Orbital window:       8 to 31
Basis functions:    162 (78 shells)
Aux. functions:     588 (204 shells)

Processing maps (0.0 sec)
Average map sizes:
   Aux shells -> MOs(i)           24.0
   Aux shells -> MOs(j)           24.0
   MOs        -> AO shells        77.0

Calculating integrals (0.4 sec, 2.591 MB)
Sorting integrals (0.0 sec, 2.584 MB)
Total time for the integral transformation: 0.4 sec
--------------------------------
LOCAL RI TRANSFORMATION (VABPAO)
--------------------------------

Number of PAOs:     162
Basis functions:    162 (78 shells)
Aux. functions:     588 (204 shells)

Processing maps (0.0 sec)
Average map sizes:
   Aux shells -> PAOs            162.0
   PAOs       -> AO shells        78.0

Calculating integrals (0.6 sec, 208.847 MB)
Finished


-------------------------------------
Pair Pair Term precalculation with     
RI-(ij|mn) and (im|jn) transformation  
ON THE FLY                             
-------------------------------------

   IBatch   1 (of   1)              ... done (   27.008 sec)
Total EXT                           ...          27.008 sec

---------------------
RI-PNO TRANSFORMATION
---------------------

Total Number of PNOs                   ...  6965
Average number of PNOs per pair        ...    24
Maximal number of PNOs per pair        ...    43
   #pairs with  1 -  5 PNOs   :    0
   #pairs with  6 - 10 PNOs   :   24
   #pairs with 11 - 15 PNOs   :   38
   #pairs with 16 - 20 PNOs   :   37
   #pairs with 21 - 25 PNOs   :   46
   #pairs with 26 - 30 PNOs   :   46
   #pairs with 31 - 35 PNOs   :   45
   #pairs with 36 - 40 PNOs   :   38
   #pairs with 41 - 45 PNOs   :    6
   #pairs with 46 - 50 PNOs   :    0

Generation of (ij|ab)[P] integrals            ... on
Generation of (ia|bc)[P],(ja|bc)[P] integrals ... on
Storage of 3 and 4 external integrals         ... on
Generation of ALL (ka|bc)[P] integrals        ... on
Keep RI integrals in memory                   ... off

Ibatch:  1 (of  1)
Starting 2-4 index PNO integral generation ... done

Timings:
Total PNO integral transformation time     ...          8.499 sec
Size of the 3-external file                ...        48 MB
Size of the 4-external file                ...       206 MB
Size of the IKJL file                      ...         0 MB
Size of the all 3-external file            ...       583 MB
Size of the 1-external file                ...         3 MB

Making pair/pair overlap matrices          ... done (    1.919 sec)
Size of the pair overlap file              ... 243 MB
Redoing the guess amplitudes               ... done (    0.007 sec)

-------------------------
FINAL STARTUP INFORMATION
-------------------------

E(0)                                       ...   -431.946371087
E(L-MP2)                                   ...     -1.205606024
E(L-MP2) including corrections             ...     -1.205661761
Initial E(tot)                             ...   -433.152032848
<T|T>                                      ...      0.323331854
Number of pairs included                   ... 280
Total number of pairs                      ... 300

------------------------------------------------
                  RHF COUPLED CLUSTER ITERATIONS
------------------------------------------------

Number of PNO amplitudes to be optimized   ...       198489
Number of non-PNO amplitudes               ...      4732000
Untruncated number of regular amplitudes   ...      5070000

Iter       E(tot)           E(Corr)          Delta-E          Residual     Time
  0   -433.107978429     -1.160957586      0.044648438      0.018783430    4.63
                           *** Turning on DIIS ***
  1   -433.181446769     -1.234425926     -0.073468340      0.012956789    4.44
  2   -433.217414049     -1.270393205     -0.035967279      0.004520391    4.57
  3   -433.223216377     -1.276195534     -0.005802329      0.002690125    4.50
  4   -433.224834580     -1.277813736     -0.001618203      0.000862675    5.00
  5   -433.225213409     -1.278192566     -0.000378829      0.000286812    6.38
  6   -433.225264526     -1.278243682     -0.000051116      0.000137408    4.72
  7   -433.225273200     -1.278252356     -0.000008674      0.000045346    6.71
  8   -433.225274736     -1.278253893     -0.000001537      0.000015671    4.51
  9   -433.225273719     -1.278252875      0.000001018      0.000003338    4.43
               --- The Coupled-Cluster iterations have converged ---

----------------------
COUPLED CLUSTER ENERGY
----------------------

E(0)                                       ...   -431.946371087
E(CORR)(strong-pairs)                      ...     -1.278252875
E(CORR)(weak-pairs)                        ...     -0.000649757
E(CORR)(corrected)                         ...     -1.278902632
E(TOT)                                     ...   -433.225273719
Singles Norm <S|S>**1/2                    ...      0.066864640  
T1 diagnostic                              ...      0.009651079  

------------------
LARGEST AMPLITUDES
------------------
  20-> 32  20-> 32       0.049541
  21-> 32  21-> 32       0.049541
  30-> 41  30-> 41       0.040460
  25-> 41  25-> 41       0.040459
  27-> 41  27-> 41       0.040459
  23-> 41  23-> 41       0.040459
  31-> 41  31-> 41       0.040007
  29-> 39  29-> 39       0.040007
  26-> 41  26-> 41       0.040006
  24-> 39  24-> 39       0.040006
  28-> 41  28-> 41       0.040005
  22-> 41  22-> 41       0.040004
  30-> 32  30-> 32       0.037230
  23-> 32  23-> 32       0.037230
  25-> 32  25-> 32       0.037230
  27-> 32  27-> 32       0.037230


-------------------------------------------
DLPNO BASED TRIPLES CORRECTION
-------------------------------------------

Singles multiplier          ...  1.000000
TCutTNO                     ... 1.000e-09
TCutMP2Pairs                ... 1.000e-06
TCutDOStrong                ... 1.000e-02
TCutMKNStrong               ... 1.000e-02
TCutDOWeak                  ... 2.000e-02
TCutMKNWeak                 ... 1.000e-01

Fragment selection                          .... not used
Number of Triples that are to be computed   ...      2470

 . . . . . . . . .
10% done  
20% done  
30% done  
40% done  
50% done  
60% done  
70% done  
80% done  
90% done               (     64.993 sec)
Triples timings:
Total time for T0               ...    70.505 sec
Total time for Iterative (T)    ...     0.000 sec
Total time of overall (T)       ...    70.506 sec

Triples List generation         ...     0.000 sec
TNO generation                  ...     5.486 sec
Pair density generation         ...     0.024 sec
Look up tables                  ...     0.000 sec
Generating 3-index integrals    ...    33.455 sec
  Make 4-ind.int. from 3-ind.int...    10.690 sec
  Projecting amplitudes (D + S) ...     8.782 sec
  Downprojecting integrals      ...     0.003 sec
  Energy contr. (sum over a,b,c)...     3.393 sec
Fitting ET(->0)                 ...     0.000 sec

Everything after 3-index        ...    31.539 sec

Timing details:
 TNO integrals                  ...    42.676 sec
   Reading 3-index integrals    ...     0.043 sec
   Sorting integrals            ...     7.839 sec
       Sorting integrals 1      ...     0.002 sec
       Sorting integrals 2      ...     3.044 sec
       Sorting integrals 3      ...     0.364 sec
       Sorting integrals 4      ...     0.057 sec
       Sorting integrals 5      ...     0.127 sec
       Sorting integrals 6      ...     4.245 sec
   Calculating local VM**-1/2   ...     0.380 sec
   Orthogonal. integrals        ...     0.670 sec
   Multipl. 3-index integrals   ...    33.745 sec
   All concerning IRIab (w/TNO) ...     4.925 sec

 Calculate W0/W1                ...     8.654 sec
 W 3-ext contribution           ...     4.323 sec
 W 3-int contribution           ...     1.837 sec
 Sorting W                      ...     2.318 sec

 V exchange contribution        ...     1.281 sec

 Timings for Triples without generation
     of 3-index integrals       ...    31.531 sec
       0 weak pairs             ...    29.743 sec
       1 weak pair              ...     1.788 sec
       2 weak pairs             ...     0.000 sec
       3 weak pairs             ...     0.000 sec
  Extra time for extrapolation  ...     0.000 sec

Number of Triples   (0, 1, 2, 3 weak pairs; overall):   2162     308       0       0  (  2470)
Number of Atoms     (0, 1, 2, 3 weak pairs; overall):   17.2    17.7     0.0     0.0  (    18)
Number of PAOs      (0, 1, 2, 3 weak pairs; overall):  155.4   160.6     0.0     0.0  (   162)
Number of AuxFcns   (0, 1, 2, 3 weak pairs; overall):  248.4   217.8     0.0     0.0  (   588)
Number of TNOs      (0, 1, 2, 3 weak pairs         ):   60.0    43.9     0.0     0.0
Aver. Number of NTNO, Atoms, PAOs, AuxFcns / Triples:   2470    58.0    17.3   156.0   244.6

Triples Correction (T)                     ...     -0.034018789
Final correlation energy                   ...     -1.312921422
E(CCSD)                                    ...   -433.225273719
E(CCSD(T))                                 ...   -433.259292508


Maximum memory used throughout the entire calculation: 6253.7 MB


------------------------------------------------------------------------------- 
                                     TIMINGS                                   
------------------------------------------------------------------------------- 


Total execution time                   ...      180.442 sec

Localization of occupied MO's          ...        0.461 sec (  0.3%)
Fock Matrix Formation                  ...        1.602 sec (  0.9%)
Global overlap, Fock, MKN matrices     ...        0.135 sec (  0.1%)
Differential overlap integrals         ...        0.128 sec (  0.1%)
Organizing maps                        ...        0.037 sec (  0.0%)
RI 3-index integral generations        ...        1.989 sec (  1.1%)
RI-PNO integral transformation         ...       47.534 sec ( 26.3%)
Initial Guess                          ...        7.586 sec (  4.2%)
DIIS Solver                            ...        2.621 sec (  1.5%)
State Vector Update                    ...        0.018 sec (  0.0%)
Sigma-vector construction              ...       47.781 sec ( 26.5%)
  <D|H|D>(0-ext)                       ...        3.723 sec (  7.8% of sigma)
  <D|H|D>(2-ext Fock)                  ...        0.018 sec (  0.0% of sigma)
  <D|H|D>(2-ext)                       ...        7.575 sec ( 15.9% of sigma)
  <D|H|D>(4-ext)                       ...        2.804 sec (  5.9% of sigma)
  <D|H|D>(4-ext-corr)                  ...       16.662 sec ( 34.9% of sigma)
  CCSD doubles correction              ...        0.310 sec (  0.6% of sigma)
  <S|H|S>                              ...        0.139 sec (  0.3% of sigma)
  <S|H|D>(1-ext)                       ...        0.428 sec (  0.9% of sigma)
  <D|H|S>(1-ext)                       ...        0.016 sec (  0.0% of sigma)
  <S|H|D>(3-ext)                       ...        0.197 sec (  0.4% of sigma)
  Fock-dressing                        ...        9.745 sec ( 20.4% of sigma)
  Singles amplitudes                   ...        0.330 sec (  0.7% of sigma)
  (ik|jl)-dressing                     ...        2.760 sec (  5.8% of sigma)
  (ij|ab),(ia|jb)-dressing             ...        2.479 sec (  5.2% of sigma)
  Pair energies                        ...        0.006 sec (  0.0% of sigma)
Total Time for computing (T)           ...       70.607 sec ( 39.1% of ALL)


-------------------------   --------------------
FINAL SINGLE POINT ENERGY      -433.259292508340
-------------------------   --------------------


                            ***************************************
                            *     ORCA property calculations      *
                            ***************************************

                                    ---------------------
                                    Active property flags
                                    ---------------------
   (+) Dipole Moment


------------------------------------------------------------------------------
                       ORCA ELECTRIC PROPERTIES CALCULATION
------------------------------------------------------------------------------

Dipole Moment Calculation                       ... on
Quadrupole Moment Calculation                   ... off
Polarizability Calculation                      ... off
GBWName                                         ... 1_4_diF_cyclohexane_diax.gbw
Electron density file                           ... 1_4_diF_cyclohexane_diax.scfp.tmp
The origin for moment calculation is the CENTER OF MASS  = (-0.000002,  0.000002 -0.000001)

-------------
DIPOLE MOMENT
-------------
                                X             Y             Z
Electronic contribution:     -0.00010       0.00004      -0.00017
Nuclear contribution   :      0.00015      -0.00006       0.00019
                        -----------------------------------------
Total Dipole Moment    :      0.00004      -0.00003       0.00003
                        -----------------------------------------
Magnitude (a.u.)       :      0.00006
Magnitude (Debye)      :      0.00015



--------------------
Rotational spectrum 
--------------------
 
Rotational constants in cm-1:     0.109234     0.055566     0.047386 
Rotational constants in MHz :  3274.745618  1665.833658  1420.594062 

 Dipole components along the rotational axes: 
x,y,z [a.u.] :    -0.000042    -0.000027     0.000029 
x,y,z [Debye]:    -0.000107    -0.000068     0.000074 

 

Timings for individual modules:

Sum of individual times         ...      241.035 sec (=   4.017 min)
GTO integral calculation        ...       49.687 sec (=   0.828 min)  20.6 %
SCF iterations                  ...        5.711 sec (=   0.095 min)   2.4 %
MDCI module                     ...      185.637 sec (=   3.094 min)  77.0 %
                             ****ORCA TERMINATED NORMALLY****
TOTAL RUN TIME: 0 days 0 hours 4 minutes 1 seconds 725 msec
1_4_diF_cyclohexane_diax.gbw -> /home1/pantazis/klk/VDZ/Cyclohexanes/1_4_diF_cyclohexane_diax.gbw
1_4_diF_cyclohexane_diax.ges -> /home1/pantazis/klk/VDZ/Cyclohexanes/1_4_diF_cyclohexane_diax.ges
1_4_diF_cyclohexane_diax.job -> /home1/pantazis/klk/VDZ/Cyclohexanes/1_4_diF_cyclohexane_diax.job
1_4_diF_cyclohexane_diax.loc -> /home1/pantazis/klk/VDZ/Cyclohexanes/1_4_diF_cyclohexane_diax.loc
1_4_diF_cyclohexane_diax.nodes -> /home1/pantazis/klk/VDZ/Cyclohexanes/1_4_diF_cyclohexane_diax.nodes
1_4_diF_cyclohexane_diax.prop -> /home1/pantazis/klk/VDZ/Cyclohexanes/1_4_diF_cyclohexane_diax.prop
1_4_diF_cyclohexane_diax_property.txt -> /home1/pantazis/klk/VDZ/Cyclohexanes/1_4_diF_cyclohexane_diax_property.txt
1_4_diF_cyclohexane_diax.xyz -> /home1/pantazis/klk/VDZ/Cyclohexanes/1_4_diF_cyclohexane_diax.xyz
cp: cannot stat 1_4_diF_cyclohexane_diax.asa.inp: No such file or directory
