! Job execution by suborca V 6.07 on ZEUS !
Job started from zeus1, running /scratch/pantazis/1_keto_cyclodecanone__0unOf6/orca/orca copied from /opt/orca on zeussn143 in /scratch/pantazis/1_keto_cyclodecanone__0unOf6
Job execution start: Sat Jun 29 11:38:33 CEST 2019
Shared library path: /scratch/pantazis/1_keto_cyclodecanone__0unOf6/orca:/opt/openmpi_1.10.2/lib:/opt/intel/mkl/lib/intel64:/opt/intel/lib/intel64:
PBS Job ID is: 158876.icqc
izeussn143
izeussn143
izeussn143
izeussn143

                                 *****************
                                 * O   R   C   A *
                                 *****************

           --- An Ab Initio, DFT and Semiempirical electronic structure package ---

                  #######################################################
                  #                        -***-                        #
                  #          Department of theory and spectroscopy      #
                  #               Directorship: Frank Neese             #
                  #        Max Planck Institute fuer Kohlenforschung    #
                  #                Kaiser Wilhelm Platz 1               #
                  #                 D-45470 Muelheim/Ruhr               #
                  #                      Germany                        #
                  #                                                     #
                  #                  All rights reserved                #
                  #                        -***-                        #
                  #######################################################


                         Program Version 4.1.x  -  STABLE  -
                                (SVN: $Rev: 14094$)
                ($Date: 2019-06-14 15:01:15 +0200 (Fri, 14 Jun 2019) $)

                         (BUILD: $Sun Jun 23 06:18:31 CEST 2019$)


 With contributions from (in alphabetic order):
   Daniel Aravena         : Magnetic Properties
   Michael Atanasov       : Ab Initio Ligand Field Theory
   Alexander A. Auer      : GIAO ZORA
   Ute Becker             : Parallelization
   Giovanni Bistoni       : ED, Open-shell LED
   Martin Brehm           : Molecular dynamics
   Dmytro Bykov           : SCF Hessian
   Vijay G. Chilkuri      : MRCI spin determinant printing
   Dipayan Datta          : RHF DLPNO-CCSD density
   Achintya Kumar Dutta   : EOM-CC, STEOM-CC
   Dmitry Ganyushin       : Spin-Orbit,Spin-Spin,Magnetic field MRCI
   Miquel Garcia          : C-PCM Hessian
   Yang Guo               : DLPNO-NEVPT2, CIM, IAO-localization
   Andreas Hansen         : Spin unrestricted coupled pair/coupled cluster methods
   Benjamin Helmich-Paris : CASSCF linear response (MC-RPA)
   Lee Huntington         : MR-EOM, pCC
   Robert Izsak           : Overlap fitted RIJCOSX, COSX-SCS-MP3, EOM
   Christian Kollmar      : KDIIS, OOCD, Brueckner-CCSD(T), CCSD density
   Simone Kossmann        : Meta GGA functionals, TD-DFT gradient, OOMP2, MP2 Hessian
   Martin Krupicka        : AUTO-CI
   Lucas Lang             : DCDCAS
   Dagmar Lenk            : GEPOL surface, SMD
   Dimitrios Liakos       : Extrapolation schemes; parallel MDCI
   Dimitrios Manganas     : ROCIS; embedding schemes
   Dimitrios Pantazis     : SARC Basis sets
   Taras Petrenko         : DFT Hessian,TD-DFT gradient, ASA, ECA, R-Raman, ABS, FL, XAS/XES, NRVS
   Peter Pinski           : DLPNO-MP2, DLPNO-MP2 Gradient
   Christoph Reimann      : Effective Core Potentials
   Marius Retegan         : Local ZFS, SOC
   Christoph Riplinger    : Optimizer, TS searches, QM/MM, DLPNO-CCSD(T), (RO)-DLPNO pert. Triples
   Tobias Risthaus        : Range-separated hybrids, TD-DFT gradient, RPA, STAB
   Michael Roemelt        : Restricted open shell CIS
   Masaaki Saitow         : Open-shell DLPNO
   Barbara Sandhoefer     : DKH picture change effects
   Avijit Sen             : IP-ROCIS
   Kantharuban Sivalingam : CASSCF convergence, NEVPT2, FIC-MRCI
   Bernardo de Souza      : ESD, SOC TD-DFT
   Georgi Stoychev        : AutoAux, RI-MP2 NMR
   Willem Van den Heuvel  : Paramagnetic NMR
   Boris Wezisla          : Elementary symmetry handling
   Frank Wennmohs         : Technical directorship


 We gratefully acknowledge several colleagues who have allowed us to
 interface, adapt or use parts of their codes:
   Stefan Grimme, W. Hujo, H. Kruse,             : VdW corrections, initial TS optimization,
                  C. Bannwarth                     DFT functionals, gCP, sTDA/sTD-DF
   Ed Valeev                                     : LibInt (2-el integral package), F12 methods
   Garnet Chan, S. Sharma, J. Yang, R. Olivares  : DMRG
   Ulf Ekstrom                                   : XCFun DFT Library
   Mihaly Kallay                                 : mrcc  (arbitrary order and MRCC methods)
   Andreas Klamt, Michael Diedenhofen            : otool_cosmo (COSMO solvation model)
   Jiri Pittner, Ondrej Demel                    : Mk-CCSD
   Frank Weinhold                                : gennbo (NPA and NBO analysis)
   Christopher J. Cramer and Donald G. Truhlar   : smd solvation model
   Lars Goerigk                                  : TD-DFT with DH, B97 family of functionals
   V. Asgeirsson, H. Jonsson                     : NEB implementation
   FAccTs GmbH                                   : IRC, NEB, NEB-TS, Multilevel


 Your calculation uses the libint2 library for the computation of 2-el integrals
 For citations please refer to: http://libint.valeyev.net

 This ORCA versions uses:
   CBLAS   interface :  Fast vector & matrix operations
   LAPACKE interface :  Fast linear algebra routines
   SCALAPACK package :  Parallel linear algebra routines




***************************************
The coordinates will be read from file: 1_keto_cyclodecanone.xyz
***************************************


----- Orbital basis set information -----
Your calculation utilizes the basis: cc-pVDZ 
       H, B-Ne : Obtained from the ccRepo (grant-hill.group.shef.ac.uk/ccrepo) Feb. 2017
                 T. H. Dunning, Jr., J. Chem. Phys. 90, 1007 (1989)
            He : Obtained from the ccRepo (grant-hill.group.shef.ac.uk/ccrepo) Feb. 2017
                 D. E. Woon, T. H. Dunning, Jr., J. Chem. Phys. 100, 2975 (1994)
  Li-Be, Na-Mg : Obtained from the ccRepo (grant-hill.group.shef.ac.uk/ccrepo) Feb. 2017
                 B. P. Prascher, D. E. Woon, K. A. Peterson, T. H. Dunning, Jr., A. K. Wilson, Theor. Chem. Acc. 128, 69 (2011)
         Al-Ar : Obtained from the ccRepo (grant-hill.group.shef.ac.uk/ccrepo) Feb. 2017
                 D. E. Woon, T. H. Dunning, Jr., J. Chem. Phys. 98, 1358 (1993)
            Ca : Obtained from the Peterson Research Group Website (tyr0.chem.wsu.edu/~kipeters) Feb. 2017
                 J. Koput, K. A. Peterson, J. Phys. Chem. 106, 9595 (2002)
         Sc-Zn : Obtained from the ccRepo (grant-hill.group.shef.ac.uk/ccrepo) Feb. 2017
                 N. B. Balabanov, K. A. Peterson, J. Chem. Phys. 123, 064107 (2005)
                 N. B. Balabanov, K. A. Peterson, J. Chem. Phys. 125, 074110 (2006)
         Ga-Kr : Obtained from the ccRepo (grant-hill.group.shef.ac.uk/ccrepo) Feb. 2017
                 A. K. Wilson, D. E. Woon, K. A. Peterson, T. H. Dunning, Jr., J. Chem. Phys. 110, 7667 (1999)

----- AuxC basis set information -----
Your calculation utilizes the auxiliary basis: cc-pVDZ/C 
  H-He, B, Ne, Al-Ar, Ga-Br : Obtained from the EMSL Basis Set Exchange (bse.pnl.gov) Feb. 2017
                              F. Weigend, A. Kohn, C. Hattig, J. Chem. Phys. 116, 3175 (2002)
               Li-Be, Na-Mg : Obtained from the EMSL Basis Set Exchange (bse.pnl.gov) Feb. 2017
                              C. Haettig, Phys. Chem. Chem. Phys. 7, 59 (2005)
                        C-F : Obtained from the EMSL Basis Set Exchange (bse.pnl.gov) Feb. 2017
                              C. Haettig, Phys. Chem. Chem. Phys. 7, 59 (2005)
                              F. Weigend, A. Kohn, C. Hattig, J. Chem. Phys. 116, 3175 (2002)
                         Kr : Obtained from the TURBOMOLE 7.0 basis set library
                              F. Weigend, A. Kohn, C. Hattig, J. Chem. Phys. 116, 3175 (2002)
                              S function revised in Sep. 2009

----- AuxJK basis set information -----
Your calculation utilizes the auxiliary basis: cc-pVTZ/JK 
  H, B-F, Al-Cl, Ga-Br : Obtained from the TURBOMOLE 7.0 basis set library

================================================================================
                                        WARNINGS
                       Please study these warnings very carefully!
================================================================================


WARNING: MDCI localization with Augmented Hessian Foster-Boys
  ===> : Switching off randomization!

WARNING: Post HF methods need fully converged wavefunctions
  ===> : Setting SCFConvForced true
         You can overwrite this default with %scf ConvForced false 


INFO   : the flag for use of LIBINT has been found!

================================================================================
                                       INPUT FILE
================================================================================
NAME = 1_keto_cyclodecanone.inp
|  1> ! RHF DLPNO-CCSD(T) cc-pVDZ RIJK cc-pVTZ/JK cc-pVDZ/C
|  2> ! KDIIS SOSCF TightSCF TightPNO
|  3> 
|  4> %pal nprocs 4 end
|  5> 
|  6> %maxcore 8000
|  7> 
|  8> %scf maxiter 300
|  9>      shift shift 0.2 erroff 0.1 end
| 10> end
| 11> 
| 12> * xyzfile 0 1 1_keto_cyclodecanone.xyz 
| 13> 
| 14> 
| 15>                          ****END OF INPUT****
================================================================================

                       ****************************
                       * Single Point Calculation *
                       ****************************

---------------------------------
CARTESIAN COORDINATES (ANGSTROEM)
---------------------------------
  C      2.095040    1.330090    0.310080
  C      2.442520   -0.000030   -0.395890
  C      2.095000   -1.330130    0.310080
  C      0.604770   -1.676230    0.521310
  C     -0.254340   -1.685750   -0.762260
  C     -1.745540   -1.328950   -0.535460
  C     -1.995900    0.000000    0.180380
  O     -2.414430    0.000010    1.329390
  C      0.604810    1.676240    0.521310
  C     -0.254300    1.685760   -0.762260
  C     -1.745500    1.328990   -0.535450
  H      2.589230    1.347860    1.291400
  H      2.561820    2.136920   -0.272960
  H      0.547310    2.664000    0.996380
  H      0.173700    0.988690    1.252890
  H      3.530170   -0.000030   -0.547520
  H      2.022560   -0.000010   -1.409580
  H      0.164420    1.003840   -1.506060
  H     -0.217100    2.679030   -1.226330
  H      2.589190   -1.347920    1.291410
  H      2.561750   -2.136980   -0.272950
  H      0.173670   -0.988660    1.252870
  H      0.547240   -2.663990    0.996390
  H     -2.253810    1.308400   -1.508980
  H     -2.223660    2.098260    0.079070
  H     -0.217180   -2.679040   -1.226300
  H      0.164390   -1.003860   -1.506070
  H     -2.223710   -2.098190    0.079070
  H     -2.253840   -1.308340   -1.509000

----------------------------
CARTESIAN COORDINATES (A.U.)
----------------------------
  NO LB      ZA    FRAG     MASS         X           Y           Z
   0 C     6.0000    0    12.011    3.959052    2.513506    0.585966
   1 C     6.0000    0    12.011    4.615694   -0.000057   -0.748124
   2 C     6.0000    0    12.011    3.958976   -2.513581    0.585966
   3 C     6.0000    0    12.011    1.142850   -3.167616    0.985133
   4 C     6.0000    0    12.011   -0.480633   -3.185606   -1.440463
   5 C     6.0000    0    12.011   -3.298593   -2.511352   -1.011873
   6 C     6.0000    0    12.011   -3.771704    0.000000    0.340869
   7 O     8.0000    0    15.999   -4.562611    0.000019    2.512183
   8 C     6.0000    0    12.011    1.142925    3.167635    0.985133
   9 C     6.0000    0    12.011   -0.480557    3.185625   -1.440463
  10 C     6.0000    0    12.011   -3.298517    2.511427   -1.011854
  11 H     1.0000    0     1.008    4.892936    2.547086    2.440392
  12 H     1.0000    0     1.008    4.841138    4.038194   -0.515820
  13 H     1.0000    0     1.008    1.034266    5.034230    1.882885
  14 H     1.0000    0     1.008    0.328245    1.868353    2.367619
  15 H     1.0000    0     1.008    6.671055   -0.000057   -1.034663
  16 H     1.0000    0     1.008    3.822084   -0.000019   -2.663720
  17 H     1.0000    0     1.008    0.310709    1.896983   -2.846041
  18 H     1.0000    0     1.008   -0.410260    5.062633   -2.317428
  19 H     1.0000    0     1.008    4.892860   -2.547200    2.440411
  20 H     1.0000    0     1.008    4.841006   -4.038307   -0.515801
  21 H     1.0000    0     1.008    0.328189   -1.868297    2.367581
  22 H     1.0000    0     1.008    1.034134   -5.034212    1.882904
  23 H     1.0000    0     1.008   -4.259084    2.472518   -2.851559
  24 H     1.0000    0     1.008   -4.202108    3.965137    0.149421
  25 H     1.0000    0     1.008   -0.410411   -5.062652   -2.317371
  26 H     1.0000    0     1.008    0.310652   -1.897020   -2.846060
  27 H     1.0000    0     1.008   -4.202203   -3.965004    0.149421
  28 H     1.0000    0     1.008   -4.259140   -2.472404   -2.851597

--------------------------------
INTERNAL COORDINATES (ANGSTROEM)
--------------------------------
 C      0   0   0     0.000000000000     0.00000000     0.00000000
 C      1   0   0     1.545430427324     0.00000000     0.00000000
 C      2   1   0     1.545422208104   118.78494280     0.00000000
 C      3   2   1     1.544405638361   118.18610091    66.01681155
 C      4   3   2     1.544575206133   115.11408703    55.70309930
 C      5   4   3     1.549974812699   114.33696160   208.95860764
 C      6   5   4     1.530102982711   115.20191064    54.51141668
 O      7   6   5     1.222861946869   119.70876870   251.00918084
 C      1   2   3     1.544416844087   118.18609119   293.98316758
 C      9   1   2     1.544575206133   115.11390479   304.29784408
 C      7   6   5     1.530139591345   120.57860454    71.85635784
 H      1   2   3     1.098876003651   108.70786895    57.39233341
 H      1   2   3     1.099451617353   107.09166343   171.17107901
 H      9   1   2     1.097573492983   108.14692291   182.20051742
 H      9   1   2     1.092607034116   109.34554577    68.59726505
 H      2   1   3     1.098168556916   106.60453785   239.72781335
 H      2   1   3     1.097239179988   109.63059431   127.08290904
 H     10   9   1     1.092510761869   110.41078864    27.77482901
 H     10   9   1     1.096964036694   109.77214806   272.09921652
 H      3   2   1     1.098885257477   108.70829101   302.60769726
 H      3   2   1     1.099448255217   107.09213837   188.82893060
 H      4   3   2     1.092602282855   109.34607892   291.40380459
 H      4   3   2     1.097579393438   108.14686684   177.79977029
 H     11   7   6     1.098436919035   108.82108091    50.41045069
 H     11   7   6     1.094553858382   106.03865356   166.33769035
 H      5   4   3     1.096968099491   109.77192976    87.90176854
 H      5   4   3     1.092502677846   110.41111052   332.22495153
 H      6   5   4     1.094542757228   109.91792751   294.82411814
 H      6   5   4     1.098441529486   108.65275178   176.86858152

---------------------------
INTERNAL COORDINATES (A.U.)
---------------------------
 C      0   0   0     0.000000000000     0.00000000     0.00000000
 C      1   0   0     2.920440266672     0.00000000     0.00000000
 C      2   1   0     2.920424734596   118.78494280     0.00000000
 C      3   2   1     2.918503696185   118.18610091    66.01681155
 C      4   3   2     2.918824132836   115.11408703    55.70309930
 C      5   4   3     2.929027910476   114.33696160   208.95860764
 C      6   5   4     2.891475594019   115.20191064    54.51141668
 O      7   6   5     2.310874179176   119.70876870   251.00918084
 C      1   2   3     2.918524871940   118.18609119   293.98316758
 C      9   1   2     2.918824132836   115.11390479   304.29784408
 C      7   6   5     2.891544774311   120.57860454    71.85635784
 H      1   2   3     2.076574702038   108.70786895    57.39233341
 H      1   2   3     2.077662454294   107.09166343   171.17107901
 H      9   1   2     2.074113313590   108.14692291   182.20051742
 H      9   1   2     2.064728066475   109.34554577    68.59726505
 H      2   1   3     2.075237821456   106.60453785   239.72781335
 H      2   1   3     2.073481553585   109.63059431   127.08290904
 H     10   9   1     2.064546138294   110.41078864    27.77482901
 H     10   9   1     2.072961608112   109.77214806   272.09921652
 H      3   2   1     2.076592189235   108.70829101   302.60769726
 H      3   2   1     2.077656100778   107.09213837   188.82893060
 H      4   3   2     2.064719087893   109.34607892   291.40380459
 H      4   3   2     2.074124463833   108.14686684   177.79977029
 H     11   7   6     2.075744952365   108.82108091    50.41045069
 H     11   7   6     2.068407031170   106.03865356   166.33769035
 H      5   4   3     2.072969285685   109.77192976    87.90176854
 H      5   4   3     2.064530861704   110.41111052   332.22495153
 H      6   5   4     2.068386053028   109.91792751   294.82411814
 H      6   5   4     2.075753664855   108.65275178   176.86858152

---------------------
BASIS SET INFORMATION
---------------------
There are 3 groups of distinct atoms

 Group   1 Type C   : 17s4p1d contracted to 3s2p1d pattern {881/31/1}
 Group   2 Type O   : 17s4p1d contracted to 3s2p1d pattern {881/31/1}
 Group   3 Type H   : 4s1p contracted to 2s1p pattern {31/1}

Atom   0C    basis set group =>   1
Atom   1C    basis set group =>   1
Atom   2C    basis set group =>   1
Atom   3C    basis set group =>   1
Atom   4C    basis set group =>   1
Atom   5C    basis set group =>   1
Atom   6C    basis set group =>   1
Atom   7O    basis set group =>   2
Atom   8C    basis set group =>   1
Atom   9C    basis set group =>   1
Atom  10C    basis set group =>   1
Atom  11H    basis set group =>   3
Atom  12H    basis set group =>   3
Atom  13H    basis set group =>   3
Atom  14H    basis set group =>   3
Atom  15H    basis set group =>   3
Atom  16H    basis set group =>   3
Atom  17H    basis set group =>   3
Atom  18H    basis set group =>   3
Atom  19H    basis set group =>   3
Atom  20H    basis set group =>   3
Atom  21H    basis set group =>   3
Atom  22H    basis set group =>   3
Atom  23H    basis set group =>   3
Atom  24H    basis set group =>   3
Atom  25H    basis set group =>   3
Atom  26H    basis set group =>   3
Atom  27H    basis set group =>   3
Atom  28H    basis set group =>   3
-------------------------------
AUXILIARY BASIS SET INFORMATION
-------------------------------
There are 3 groups of distinct atoms

 Group   1 Type C   : 7s5p4d2f contracted to 7s5p4d2f pattern {1111111/11111/1111/11}
 Group   2 Type O   : 7s5p4d2f contracted to 7s5p4d2f pattern {1111111/11111/1111/11}
 Group   3 Type H   : 3s2p1d contracted to 3s2p1d pattern {111/11/1}

Atom   0C    basis set group =>   1
Atom   1C    basis set group =>   1
Atom   2C    basis set group =>   1
Atom   3C    basis set group =>   1
Atom   4C    basis set group =>   1
Atom   5C    basis set group =>   1
Atom   6C    basis set group =>   1
Atom   7O    basis set group =>   2
Atom   8C    basis set group =>   1
Atom   9C    basis set group =>   1
Atom  10C    basis set group =>   1
Atom  11H    basis set group =>   3
Atom  12H    basis set group =>   3
Atom  13H    basis set group =>   3
Atom  14H    basis set group =>   3
Atom  15H    basis set group =>   3
Atom  16H    basis set group =>   3
Atom  17H    basis set group =>   3
Atom  18H    basis set group =>   3
Atom  19H    basis set group =>   3
Atom  20H    basis set group =>   3
Atom  21H    basis set group =>   3
Atom  22H    basis set group =>   3
Atom  23H    basis set group =>   3
Atom  24H    basis set group =>   3
Atom  25H    basis set group =>   3
Atom  26H    basis set group =>   3
Atom  27H    basis set group =>   3
Atom  28H    basis set group =>   3
-------------------------------
AUXILIARY BASIS SET INFORMATION
-------------------------------
There are 3 groups of distinct atoms

 Group   1 Type C   : 10s7p5d2f1g contracted to 10s7p5d2f1g pattern {1111111111/1111111/11111/11/1}
 Group   2 Type O   : 10s7p5d2f1g contracted to 10s7p5d2f1g pattern {1111111111/1111111/11111/11/1}
 Group   3 Type H   : 4s3p2d1f contracted to 4s3p2d1f pattern {1111/111/11/1}

Atom   0C    basis set group =>   1
Atom   1C    basis set group =>   1
Atom   2C    basis set group =>   1
Atom   3C    basis set group =>   1
Atom   4C    basis set group =>   1
Atom   5C    basis set group =>   1
Atom   6C    basis set group =>   1
Atom   7O    basis set group =>   2
Atom   8C    basis set group =>   1
Atom   9C    basis set group =>   1
Atom  10C    basis set group =>   1
Atom  11H    basis set group =>   3
Atom  12H    basis set group =>   3
Atom  13H    basis set group =>   3
Atom  14H    basis set group =>   3
Atom  15H    basis set group =>   3
Atom  16H    basis set group =>   3
Atom  17H    basis set group =>   3
Atom  18H    basis set group =>   3
Atom  19H    basis set group =>   3
Atom  20H    basis set group =>   3
Atom  21H    basis set group =>   3
Atom  22H    basis set group =>   3
Atom  23H    basis set group =>   3
Atom  24H    basis set group =>   3
Atom  25H    basis set group =>   3
Atom  26H    basis set group =>   3
Atom  27H    basis set group =>   3
Atom  28H    basis set group =>   3

Checking for AutoStart:
The File: 1_keto_cyclodecanone.gbw exists
Trying to determine its content:
     ... Fine, the file contains calculation information
     ... Fine, the calculation information was read
     ... Fine, the file contains a basis set
     ... Fine, the basis set was read
     ... Fine, the file contains a geometry
     ... Fine, the geometry was read
     ... Fine, the file contains a set of orbitals
     ... Fine, the orbitals can be read
     => possible old guess file was deleted
     => GBW file was renamed to GES file
     => GES file is set as startup file
     => Guess is set to MORead
     ... now leaving AutoStart



           ************************************************************
           *        Program running with 4 parallel MPI-processes     *
           *              working on a common directory               *
           ************************************************************
------------------------------------------------------------------------------
                           ORCA GTO INTEGRAL CALCULATION
                           -- RI-GTO INTEGRALS CHOSEN --
------------------------------------------------------------------------------

                         BASIS SET STATISTICS AND STARTUP INFO

Gaussian basis set:
 # of primitive gaussian shells          ...  332
 # of primitive gaussian functions       ...  500
 # of contracted shells                  ...  120
 # of contracted basis functions         ...  244
 Highest angular momentum                ...    2
 Maximum contraction depth               ...    8
Auxiliary gaussian basis set:
 # of primitive gaussian shells          ...  455
 # of primitive gaussian functions       ... 1409
 # of contracted shells                  ...  455
 # of contracted aux-basis functions     ... 1409
 Highest angular momentum                ...    4
 Maximum contraction depth               ...    1
Ratio of auxiliary to basis functions    ...  5.77
Integral package used                  ... LIBINT
 One Electron integrals                  ... done
 Ordering auxiliary basis shells         ... done
 Integral threshhold             Thresh  ...  2.500e-11
 Primitive cut-off               TCut    ...  2.500e-12
 Pre-screening matrix                    ... done
 Shell pair data                         ... 
 Ordering of the shell pairs             ... done (   0.001 sec) 7014 of 7260 pairs
 Determination of significant pairs      ... done (   0.000 sec)
 Creation of shell pair data             ... done (   0.003 sec)
 Storage of shell pair data              ... done (   0.003 sec)
 Shell pair data done in (   0.007 sec)
 Computing two index integrals           ... done
 Cholesky decomposition of the V-matrix  ... done


Timings:
 Total evaluation time                   ...   0.860 sec (  0.014 min)
 One electron matrix time                ...   0.128 sec (  0.002 min) = 14.9%
 Schwartz matrix evaluation time         ...   0.290 sec (  0.005 min) = 33.7%
 Two index repulsion integral time       ...   0.157 sec (  0.003 min) = 18.3%
 Cholesky decomposition of V             ...   0.240 sec (  0.004 min) = 28.0%
 Three index repulsion integral time     ...   0.000 sec (  0.000 min) =  0.0%



           ************************************************************
           *        Program running with 4 parallel MPI-processes     *
           *              working on a common directory               *
           ************************************************************
-------------------------------------------------------------------------------
                                 ORCA SCF
-------------------------------------------------------------------------------

------------
SCF SETTINGS
------------
Hamiltonian:
 Ab initio Hamiltonian  Method          .... Hartree-Fock(GTOs)
 RI-approximation to the Coulomb term is turned on
   Number of auxiliary basis functions  .... 1409
   RI-JK (J+K treated both via RI)      .... on


General Settings:
 Integral files         IntName         .... 1_keto_cyclodecanone
 Hartree-Fock type      HFTyp           .... RHF
 Total Charge           Charge          ....    0
 Multiplicity           Mult            ....    1
 Number of Electrons    NEL             ....   86
 Basis Dimension        Dim             ....  244
 Nuclear Repulsion      ENuc            ....    665.3139150052 Eh

Convergence Acceleration:
 DIIS                   CNVDIIS         .... off
 Newton-Raphson         CNVNR           .... off
 SOSCF                  CNVSOSCF        .... on
   Start iteration      SOSCFMaxIt      ....   150
   Startup grad/error   SOSCFStart      ....  0.003300
 Level Shifting         CNVShift        .... on
   Level shift para.    LevelShift      ....    0.2000
   Turn off err/grad.   ShiftErr        ....    0.1000
 Zerner damping         CNVZerner       .... off
 Static damping         CNVDamp         .... off
 Fernandez-Rico         CNVRico         .... off

SCF Procedure:
 Maximum # iterations   MaxIter         ....   300
 SCF integral mode      SCFMode         .... Direct
   Integral package                     .... LIBINT
 Reset frequency        DirectResetFreq ....    20
 Integral Threshold     Thresh          ....  2.500e-11 Eh
 Primitive CutOff       TCut            ....  2.500e-12 Eh

Convergence Tolerance:
 Convergence Check Mode ConvCheckMode   .... Total+1el-Energy
 Convergence forced     ConvForced      .... 1
 Energy Change          TolE            ....  1.000e-08 Eh
 1-El. energy change                    ....  1.000e-05 Eh
 Orbital Gradient       TolG            ....  1.000e-05
 Orbital Rotation angle TolX            ....  1.000e-05


Diagonalization of the overlap matrix:
Smallest eigenvalue                        ... 2.043e-03
Time for diagonalization                   ...    0.018 sec
Threshold for overlap eigenvalues          ... 1.000e-08
Number of eigenvalues below threshold      ... 0
Time for construction of square roots      ...    0.032 sec
Total time needed                          ...    0.051 sec

---------------------
INITIAL GUESS: MOREAD
---------------------
Guess MOs are being read from file: 1_keto_cyclodecanone.ges
Input Geometry matches current geometry (good)
Atom 0: N(Shells)= 6 and 10 - projection required
Input basis set needs projection
NBasis(read)= 582
NBasis(calc)= 244
Basis set overlap was calculated
Using GuessMode=FMatrix for the initial guess
C*T matrix was formed
Effective Fockian was calculated
Effective Fockian was diagonalized
Initial density was built
                      ------------------
                      INITIAL GUESS DONE (   0.1 sec)
                      ------------------
--------------
SCF ITERATIONS
--------------
ITER       Energy         Delta-E        Max-DP      RMS-DP      [F,P]   Gradient Norm
                             ****Turning on KDIIS(Cayley)****
  0   -464.0490691754   0.000000000000 0.00138667  0.00005053  0.0036807   0.005695881
  1   -464.0492791002  -0.000209924892 0.00270250  0.00009690  0.0033483   0.005150392
                      *** Initiating the SOSCF procedure ***
                           *** Shutting down KDIIS ***
                      *** Re-Reading the Fockian *** 
                      *** Removing any level shift *** 
ITER      Energy       Delta-E        Grad      Rot      Max-DP    RMS-DP
  2   -464.04960852  -0.0003294226  0.002694  0.002694  0.004428  0.000159
  3   -464.05001913  -0.0004106054  0.001616  0.002153  0.006057  0.000220
  4   -464.05024074  -0.0002216129  0.000574  0.000510  0.002274  0.000051
  5   -464.05025257  -0.0000118336  0.000521  0.000494  0.000925  0.000020
  6   -464.05025719  -0.0000046138  0.000086  0.000163  0.000240  0.000004
  7   -464.05025743  -0.0000002413  0.000036  0.000143  0.000189  0.000003
  8   -464.05025750  -0.0000000714  0.000007  0.000018  0.000035  0.000001
                  ***Gradient check signals convergence***
              ***Rediagonalizing the Fockian in SOSCF/NRSCF***

               *****************************************************
               *                     SUCCESS                       *
               *           SCF CONVERGED AFTER   9 CYCLES          *
               *****************************************************


----------------
TOTAL SCF ENERGY
----------------

Total Energy       :         -464.05025751 Eh          -12627.44947 eV

Components:
Nuclear Repulsion  :          665.31391501 Eh           18104.11202 eV
Electronic Energy  :        -1129.36417251 Eh          -30731.56150 eV
One Electron Energy:        -1949.40914185 Eh          -53046.11956 eV
Two Electron Energy:          820.04496934 Eh           22314.55807 eV

Virial components:
Potential Energy   :         -927.46487054 Eh          -25237.60218 eV
Kinetic Energy     :          463.41461303 Eh           12610.15271 eV
Virial Ratio       :            2.00137165


---------------
SCF CONVERGENCE
---------------

  Last Energy change         ...   -4.9972e-09  Tolerance :   1.0000e-08
  Last MAX-Density change    ...    8.4126e-06  Tolerance :   1.0000e-07
  Last RMS-Density change    ...    2.2070e-07  Tolerance :   5.0000e-09
  Last Orbital Gradient      ...    1.7614e-06  Tolerance :   1.0000e-05
  Last Orbital Rotation      ...    2.6299e-06  Tolerance :   1.0000e-05

             **** THE GBW FILE WAS UPDATED (1_keto_cyclodecanone.gbw) ****
             **** DENSITY FILE WAS UPDATED (1_keto_cyclodecanone.scfp.tmp) ****
             **** ENERGY FILE WAS UPDATED (1_keto_cyclodecanone.en.tmp) ****
----------------
ORBITAL ENERGIES
----------------

  NO   OCC          E(Eh)            E(eV) 
   0   2.0000     -20.542260      -558.9833 
   1   2.0000     -11.326824      -308.2185 
   2   2.0000     -11.238602      -305.8179 
   3   2.0000     -11.238575      -305.8172 
   4   2.0000     -11.237508      -305.7881 
   5   2.0000     -11.237499      -305.7879 
   6   2.0000     -11.228354      -305.5390 
   7   2.0000     -11.228192      -305.5346 
   8   2.0000     -11.227321      -305.5109 
   9   2.0000     -11.225636      -305.4651 
  10   2.0000     -11.225627      -305.4648 
  11   2.0000      -1.375671       -37.4339 
  12   2.0000      -1.104339       -30.0506 
  13   2.0000      -1.069238       -29.0954 
  14   2.0000      -1.055375       -28.7182 
  15   2.0000      -0.984019       -26.7765 
  16   2.0000      -0.957807       -26.0632 
  17   2.0000      -0.871837       -23.7239 
  18   2.0000      -0.864337       -23.5198 
  19   2.0000      -0.796022       -21.6609 
  20   2.0000      -0.761409       -20.7190 
  21   2.0000      -0.720400       -19.6031 
  22   2.0000      -0.662097       -18.0166 
  23   2.0000      -0.643354       -17.5065 
  24   2.0000      -0.634813       -17.2741 
  25   2.0000      -0.615824       -16.7574 
  26   2.0000      -0.606623       -16.5071 
  27   2.0000      -0.594742       -16.1838 
  28   2.0000      -0.575333       -15.6556 
  29   2.0000      -0.566747       -15.4220 
  30   2.0000      -0.561058       -15.2672 
  31   2.0000      -0.531502       -14.4629 
  32   2.0000      -0.529434       -14.4066 
  33   2.0000      -0.511756       -13.9256 
  34   2.0000      -0.498094       -13.5538 
  35   2.0000      -0.492475       -13.4009 
  36   2.0000      -0.473908       -12.8957 
  37   2.0000      -0.463918       -12.6239 
  38   2.0000      -0.461569       -12.5599 
  39   2.0000      -0.446122       -12.1396 
  40   2.0000      -0.443591       -12.0707 
  41   2.0000      -0.436475       -11.8771 
  42   2.0000      -0.393155       -10.6983 
  43   0.0000       0.142694         3.8829 
  44   0.0000       0.179326         4.8797 
  45   0.0000       0.189555         5.1581 
  46   0.0000       0.197686         5.3793 
  47   0.0000       0.202635         5.5140 
  48   0.0000       0.217462         5.9175 
  49   0.0000       0.233492         6.3536 
  50   0.0000       0.240512         6.5447 
  51   0.0000       0.249996         6.8027 
  52   0.0000       0.252277         6.8648 
  53   0.0000       0.260911         7.0998 
  54   0.0000       0.275490         7.4965 
  55   0.0000       0.277829         7.5601 
  56   0.0000       0.288248         7.8436 
  57   0.0000       0.295578         8.0431 
  58   0.0000       0.301339         8.1999 
  59   0.0000       0.318597         8.6695 
  60   0.0000       0.323530         8.8037 
  61   0.0000       0.351300         9.5593 
  62   0.0000       0.367502        10.0002 
  63   0.0000       0.379298        10.3212 
  64   0.0000       0.388441        10.5700 
  65   0.0000       0.391669        10.6579 
  66   0.0000       0.407979        11.1017 
  67   0.0000       0.413210        11.2440 
  68   0.0000       0.422063        11.4849 
  69   0.0000       0.463090        12.6013 
  70   0.0000       0.491447        13.3729 
  71   0.0000       0.494934        13.4678 
  72   0.0000       0.509680        13.8691 
  73   0.0000       0.567049        15.4302 
  74   0.0000       0.601284        16.3618 
  75   0.0000       0.602265        16.3885 
  76   0.0000       0.621378        16.9086 
  77   0.0000       0.634122        17.2553 
  78   0.0000       0.641108        17.4454 
  79   0.0000       0.654777        17.8174 
  80   0.0000       0.668476        18.1902 
  81   0.0000       0.698366        19.0035 
  82   0.0000       0.721654        19.6372 
  83   0.0000       0.754906        20.5420 
  84   0.0000       0.755789        20.5661 
  85   0.0000       0.769035        20.9265 
  86   0.0000       0.792251        21.5583 
  87   0.0000       0.803735        21.8707 
  88   0.0000       0.812429        22.1073 
  89   0.0000       0.820125        22.3167 
  90   0.0000       0.832320        22.6486 
  91   0.0000       0.833603        22.6835 
  92   0.0000       0.845934        23.0190 
  93   0.0000       0.862800        23.4780 
  94   0.0000       0.871399        23.7120 
  95   0.0000       0.873229        23.7618 
  96   0.0000       0.880890        23.9702 
  97   0.0000       0.881410        23.9844 
  98   0.0000       0.888670        24.1819 
  99   0.0000       0.894965        24.3532 
 100   0.0000       0.897419        24.4200 
 101   0.0000       0.903358        24.5816 
 102   0.0000       0.911496        24.8031 
 103   0.0000       0.916666        24.9438 
 104   0.0000       0.924984        25.1701 
 105   0.0000       0.925913        25.1954 
 106   0.0000       0.934323        25.4242 
 107   0.0000       0.939165        25.5560 
 108   0.0000       0.943287        25.6682 
 109   0.0000       0.947184        25.7742 
 110   0.0000       0.953234        25.9388 
 111   0.0000       0.966157        26.2905 
 112   0.0000       0.991440        26.9784 
 113   0.0000       1.001305        27.2469 
 114   0.0000       1.002511        27.2797 
 115   0.0000       1.020449        27.7678 
 116   0.0000       1.025587        27.9076 
 117   0.0000       1.040871        28.3235 
 118   0.0000       1.066460        29.0199 
 119   0.0000       1.069969        29.1153 
 120   0.0000       1.103678        30.0326 
 121   0.0000       1.122959        30.5573 
 122   0.0000       1.148678        31.2571 
 123   0.0000       1.195151        32.5217 
 124   0.0000       1.239314        33.7234 
 125   0.0000       1.261413        34.3248 
 126   0.0000       1.288923        35.0734 
 127   0.0000       1.297755        35.3137 
 128   0.0000       1.317630        35.8545 
 129   0.0000       1.369215        37.2582 
 130   0.0000       1.387477        37.7552 
 131   0.0000       1.401690        38.1419 
 132   0.0000       1.409600        38.3572 
 133   0.0000       1.413812        38.4718 
 134   0.0000       1.454259        39.5724 
 135   0.0000       1.470788        40.0222 
 136   0.0000       1.497864        40.7589 
 137   0.0000       1.508409        41.0459 
 138   0.0000       1.526551        41.5396 
 139   0.0000       1.555899        42.3382 
 140   0.0000       1.567377        42.6505 
 141   0.0000       1.579868        42.9904 
 142   0.0000       1.611763        43.8583 
 143   0.0000       1.616072        43.9756 
 144   0.0000       1.662020        45.2259 
 145   0.0000       1.676359        45.6160 
 146   0.0000       1.683932        45.8221 
 147   0.0000       1.743249        47.4362 
 148   0.0000       1.752952        47.7003 
 149   0.0000       1.778156        48.3861 
 150   0.0000       1.778275        48.3893 
 151   0.0000       1.788895        48.6783 
 152   0.0000       1.803573        49.0777 
 153   0.0000       1.822976        49.6057 
 154   0.0000       1.838703        50.0337 
 155   0.0000       1.850999        50.3682 
 156   0.0000       1.851772        50.3893 
 157   0.0000       1.864416        50.7333 
 158   0.0000       1.881736        51.2046 
 159   0.0000       1.899516        51.6885 
 160   0.0000       1.906376        51.8751 
 161   0.0000       1.908364        51.9292 
 162   0.0000       1.925305        52.3902 
 163   0.0000       1.927256        52.4433 
 164   0.0000       1.928605        52.4800 
 165   0.0000       1.940359        52.7998 
 166   0.0000       1.953920        53.1689 
 167   0.0000       1.955951        53.2241 
 168   0.0000       1.969830        53.6018 
 169   0.0000       1.973919        53.7131 
 170   0.0000       1.976559        53.7849 
 171   0.0000       1.980811        53.9006 
 172   0.0000       1.993486        54.2455 
 173   0.0000       2.005256        54.5658 
 174   0.0000       2.008077        54.6426 
 175   0.0000       2.017094        54.8879 
 176   0.0000       2.018044        54.9138 
 177   0.0000       2.039482        55.4971 
 178   0.0000       2.044985        55.6469 
 179   0.0000       2.055438        55.9313 
 180   0.0000       2.056030        55.9474 
 181   0.0000       2.067533        56.2604 
 182   0.0000       2.099246        57.1234 
 183   0.0000       2.105547        57.2949 
 184   0.0000       2.106437        57.3191 
 185   0.0000       2.112373        57.4806 
 186   0.0000       2.127179        57.8835 
 187   0.0000       2.154630        58.6305 
 188   0.0000       2.169825        59.0439 
 189   0.0000       2.179128        59.2971 
 190   0.0000       2.184012        59.4300 
 191   0.0000       2.202289        59.9273 
 192   0.0000       2.244202        61.0679 
 193   0.0000       2.260421        61.5092 
 194   0.0000       2.301252        62.6203 
 195   0.0000       2.301415        62.6247 
 196   0.0000       2.357282        64.1449 
 197   0.0000       2.358881        64.1884 
 198   0.0000       2.376744        64.6745 
 199   0.0000       2.381727        64.8101 
 200   0.0000       2.387690        64.9724 
 201   0.0000       2.397056        65.2272 
 202   0.0000       2.406126        65.4740 
 203   0.0000       2.411128        65.6101 
 204   0.0000       2.427786        66.0634 
 205   0.0000       2.474116        67.3241 
 206   0.0000       2.479846        67.4800 
 207   0.0000       2.522756        68.6477 
 208   0.0000       2.528535        68.8049 
 209   0.0000       2.531426        68.8836 
 210   0.0000       2.551555        69.4313 
 211   0.0000       2.556261        69.5594 
 212   0.0000       2.563899        69.7672 
 213   0.0000       2.576340        70.1058 
 214   0.0000       2.603278        70.8388 
 215   0.0000       2.619010        71.2669 
 216   0.0000       2.650896        72.1345 
 217   0.0000       2.652851        72.1878 
 218   0.0000       2.672789        72.7303 
 219   0.0000       2.695737        73.3547 
 220   0.0000       2.767998        75.3211 
 221   0.0000       2.789823        75.9149 
 222   0.0000       2.808039        76.4106 
 223   0.0000       2.815862        76.6235 
 224   0.0000       2.824024        76.8456 
 225   0.0000       2.846206        77.4492 
 226   0.0000       2.882215        78.4291 
 227   0.0000       2.883534        78.4650 
 228   0.0000       2.904064        79.0236 
 229   0.0000       2.904624        79.0388 
 230   0.0000       2.944431        80.1220 
 231   0.0000       2.960884        80.5697 
 232   0.0000       3.012340        81.9700 
 233   0.0000       3.012475        81.9736 
 234   0.0000       3.042721        82.7967 
 235   0.0000       3.045686        82.8773 
 236   0.0000       3.062956        83.3473 
 237   0.0000       3.077191        83.7346 
 238   0.0000       3.110776        84.6485 
 239   0.0000       3.127985        85.1168 
 240   0.0000       3.170062        86.2618 
 241   0.0000       3.497368        95.1682 
 242   0.0000       3.711147       100.9854 
 243   0.0000       3.871127       105.3387 

                    ********************************
                    * MULLIKEN POPULATION ANALYSIS *
                    ********************************

-----------------------
MULLIKEN ATOMIC CHARGES
-----------------------
   0 C :   -0.024888
   1 C :   -0.071659
   2 C :   -0.024885
   3 C :   -0.065427
   4 C :   -0.079019
   5 C :    0.009327
   6 C :    0.130929
   7 O :   -0.348581
   8 C :   -0.065426
   9 C :   -0.079015
  10 C :    0.009313
  11 H :    0.025014
  12 H :    0.024159
  13 H :    0.031031
  14 H :    0.045696
  15 H :    0.028692
  16 H :    0.020577
  17 H :    0.028727
  18 H :    0.036469
  19 H :    0.025015
  20 H :    0.024159
  21 H :    0.045696
  22 H :    0.031033
  23 H :    0.036760
  24 H :    0.052170
  25 H :    0.036471
  26 H :    0.028729
  27 H :    0.052168
  28 H :    0.036765
Sum of atomic charges:   -0.0000000

--------------------------------
MULLIKEN REDUCED ORBITAL CHARGES
--------------------------------
  0 C s       :     3.061219  s :     3.061219
      pz      :     0.976506  p :     2.880894
      px      :     0.953768
      py      :     0.950621
      dz2     :     0.013807  d :     0.082775
      dxz     :     0.016026
      dyz     :     0.016079
      dx2y2   :     0.019555
      dxy     :     0.017307
  1 C s       :     3.074066  s :     3.074066
      pz      :     0.994491  p :     2.914096
      px      :     0.986124
      py      :     0.933482
      dz2     :     0.019139  d :     0.083496
      dxz     :     0.008462
      dyz     :     0.019190
      dx2y2   :     0.026574
      dxy     :     0.010130
  2 C s       :     3.061216  s :     3.061216
      pz      :     0.976505  p :     2.880894
      px      :     0.953766
      py      :     0.950622
      dz2     :     0.013807  d :     0.082775
      dxz     :     0.016026
      dyz     :     0.016080
      dx2y2   :     0.019556
      dxy     :     0.017307
  3 C s       :     3.076329  s :     3.076329
      pz      :     0.976904  p :     2.907374
      px      :     0.926752
      py      :     1.003717
      dz2     :     0.012314  d :     0.081723
      dxz     :     0.021147
      dyz     :     0.017938
      dx2y2   :     0.019659
      dxy     :     0.010665
  4 C s       :     3.082575  s :     3.082575
      pz      :     1.001131  p :     2.914188
      px      :     0.912510
      py      :     1.000548
      dz2     :     0.012939  d :     0.082256
      dxz     :     0.020202
      dyz     :     0.018816
      dx2y2   :     0.019989
      dxy     :     0.010310
  5 C s       :     3.041849  s :     3.041849
      pz      :     0.968682  p :     2.875240
      px      :     0.972413
      py      :     0.934146
      dz2     :     0.010861  d :     0.073584
      dxz     :     0.015096
      dyz     :     0.016003
      dx2y2   :     0.018351
      dxy     :     0.013274
  6 C s       :     3.190318  s :     3.190318
      pz      :     0.839845  p :     2.487068
      px      :     0.676243
      py      :     0.970980
      dz2     :     0.044124  d :     0.191684
      dxz     :     0.033518
      dyz     :     0.076885
      dx2y2   :     0.019861
      dxy     :     0.017295
  7 O s       :     3.772947  s :     3.772947
      pz      :     1.360200  p :     4.555288
      px      :     1.334972
      py      :     1.860116
      dz2     :     0.008883  d :     0.020346
      dxz     :     0.006884
      dyz     :     0.003235
      dx2y2   :     0.000887
      dxy     :     0.000458
  8 C s       :     3.076331  s :     3.076331
      pz      :     0.976903  p :     2.907373
      px      :     0.926752
      py      :     1.003717
      dz2     :     0.012314  d :     0.081722
      dxz     :     0.021147
      dyz     :     0.017938
      dx2y2   :     0.019659
      dxy     :     0.010665
  9 C s       :     3.082575  s :     3.082575
      pz      :     1.001125  p :     2.914184
      px      :     0.912511
      py      :     1.000548
      dz2     :     0.012939  d :     0.082256
      dxz     :     0.020202
      dyz     :     0.018817
      dx2y2   :     0.019988
      dxy     :     0.010310
 10 C s       :     3.041864  s :     3.041864
      pz      :     0.968687  p :     2.875240
      px      :     0.972407
      py      :     0.934146
      dz2     :     0.010861  d :     0.073583
      dxz     :     0.015096
      dyz     :     0.016002
      dx2y2   :     0.018351
      dxy     :     0.013274
 11 H s       :     0.946011  s :     0.946011
      pz      :     0.017320  p :     0.028975
      px      :     0.007411
      py      :     0.004245
 12 H s       :     0.946998  s :     0.946998
      pz      :     0.009167  p :     0.028843
      px      :     0.006890
      py      :     0.012786
 13 H s       :     0.939981  s :     0.939981
      pz      :     0.007314  p :     0.028988
      px      :     0.003922
      py      :     0.017753
 14 H s       :     0.924300  s :     0.924300
      pz      :     0.012038  p :     0.030004
      px      :     0.006435
      py      :     0.011531
 15 H s       :     0.942269  s :     0.942269
      pz      :     0.005107  p :     0.029039
      px      :     0.020220
      py      :     0.003711
 16 H s       :     0.950185  s :     0.950185
      pz      :     0.017795  p :     0.029238
      px      :     0.007686
      py      :     0.003757
 17 H s       :     0.941526  s :     0.941526
      pz      :     0.011845  p :     0.029747
      px      :     0.006409
      py      :     0.011493
 18 H s       :     0.934457  s :     0.934457
      pz      :     0.007202  p :     0.029074
      px      :     0.003750
      py      :     0.018122
 19 H s       :     0.946010  s :     0.946010
      pz      :     0.017320  p :     0.028975
      px      :     0.007410
      py      :     0.004245
 20 H s       :     0.946998  s :     0.946998
      pz      :     0.009167  p :     0.028844
      px      :     0.006889
      py      :     0.012787
 21 H s       :     0.924300  s :     0.924300
      pz      :     0.012037  p :     0.030004
      px      :     0.006435
      py      :     0.011532
 22 H s       :     0.939980  s :     0.939980
      pz      :     0.007314  p :     0.028988
      px      :     0.003922
      py      :     0.017752
 23 H s       :     0.933124  s :     0.933124
      pz      :     0.017758  p :     0.030116
      px      :     0.008052
      py      :     0.004305
 24 H s       :     0.918223  s :     0.918223
      pz      :     0.010354  p :     0.029608
      px      :     0.007365
      py      :     0.011888
 25 H s       :     0.934456  s :     0.934456
      pz      :     0.007201  p :     0.029074
      px      :     0.003750
      py      :     0.018122
 26 H s       :     0.941524  s :     0.941524
      pz      :     0.011845  p :     0.029747
      px      :     0.006409
      py      :     0.011493
 27 H s       :     0.918224  s :     0.918224
      pz      :     0.010355  p :     0.029608
      px      :     0.007366
      py      :     0.011888
 28 H s       :     0.933119  s :     0.933119
      pz      :     0.017759  p :     0.030116
      px      :     0.008052
      py      :     0.004305


                     *******************************
                     * LOEWDIN POPULATION ANALYSIS *
                     *******************************

----------------------
LOEWDIN ATOMIC CHARGES
----------------------
   0 C :   -0.031876
   1 C :   -0.040027
   2 C :   -0.031878
   3 C :   -0.037037
   4 C :   -0.030909
   5 C :   -0.040199
   6 C :    0.020670
   7 O :   -0.103428
   8 C :   -0.037037
   9 C :   -0.030914
  10 C :   -0.040198
  11 H :    0.021210
  12 H :    0.020319
  13 H :    0.024057
  14 H :    0.017821
  15 H :    0.025919
  16 H :    0.011577
  17 H :    0.013569
  18 H :    0.024981
  19 H :    0.021213
  20 H :    0.020320
  21 H :    0.017820
  22 H :    0.024059
  23 H :    0.028287
  24 H :    0.032420
  25 H :    0.024982
  26 H :    0.013568
  27 H :    0.032419
  28 H :    0.028291

-------------------------------
LOEWDIN REDUCED ORBITAL CHARGES
-------------------------------
  0 C s       :     2.795584  s :     2.795584
      pz      :     1.028886  p :     3.033258
      px      :     0.999787
      py      :     1.004585
      dz2     :     0.034520  d :     0.203034
      dxz     :     0.041071
      dyz     :     0.039034
      dx2y2   :     0.047559
      dxy     :     0.040850
  1 C s       :     2.795580  s :     2.795580
      pz      :     1.022612  p :     3.041901
      px      :     1.028315
      py      :     0.990974
      dz2     :     0.047453  d :     0.202546
      dxz     :     0.022475
      dyz     :     0.044035
      dx2y2   :     0.063969
      dxy     :     0.024614
  2 C s       :     2.795582  s :     2.795582
      pz      :     1.028884  p :     3.033259
      px      :     0.999788
      py      :     1.004587
      dz2     :     0.034521  d :     0.203037
      dxz     :     0.041071
      dyz     :     0.039034
      dx2y2   :     0.047561
      dxy     :     0.040850
  3 C s       :     2.793166  s :     2.793166
      pz      :     1.010659  p :     3.043636
      px      :     0.992617
      py      :     1.040360
      dz2     :     0.029409  d :     0.200235
      dxz     :     0.050497
      dyz     :     0.046754
      dx2y2   :     0.047871
      dxy     :     0.025704
  4 C s       :     2.793461  s :     2.793461
      pz      :     1.022322  p :     3.036600
      px      :     0.976701
      py      :     1.037576
      dz2     :     0.030452  d :     0.200848
      dxz     :     0.048476
      dyz     :     0.048340
      dx2y2   :     0.048537
      dxy     :     0.025043
  5 C s       :     2.801359  s :     2.801359
      pz      :     1.031032  p :     3.049470
      px      :     1.011889
      py      :     1.006549
      dz2     :     0.029340  d :     0.189370
      dxz     :     0.039966
      dyz     :     0.040823
      dx2y2   :     0.046402
      dxy     :     0.032839
  6 C s       :     2.867646  s :     2.867646
      pz      :     0.973894  p :     2.692445
      px      :     0.693415
      py      :     1.025137
      dz2     :     0.101337  d :     0.419238
      dxz     :     0.070472
      dyz     :     0.170505
      dx2y2   :     0.037486
      dxy     :     0.039438
  7 O s       :     3.498675  s :     3.498675
      pz      :     1.451790  p :     4.572617
      px      :     1.325874
      py      :     1.794952
      dz2     :     0.014709  d :     0.032136
      dxz     :     0.009563
      dyz     :     0.006016
      dx2y2   :     0.001016
      dxy     :     0.000833
  8 C s       :     2.793168  s :     2.793168
      pz      :     1.010659  p :     3.043636
      px      :     0.992616
      py      :     1.040361
      dz2     :     0.029410  d :     0.200233
      dxz     :     0.050496
      dyz     :     0.046753
      dx2y2   :     0.047870
      dxy     :     0.025704
  9 C s       :     2.793461  s :     2.793461
      pz      :     1.022320  p :     3.036603
      px      :     0.976705
      py      :     1.037578
      dz2     :     0.030451  d :     0.200850
      dxz     :     0.048476
      dyz     :     0.048342
      dx2y2   :     0.048537
      dxy     :     0.025043
 10 C s       :     2.801368  s :     2.801368
      pz      :     1.031034  p :     3.049466
      px      :     1.011890
      py      :     1.006542
      dz2     :     0.029338  d :     0.189365
      dxz     :     0.039967
      dyz     :     0.040819
      dx2y2   :     0.046402
      dxy     :     0.032839
 11 H s       :     0.900815  s :     0.900815
      pz      :     0.040174  p :     0.077975
      px      :     0.022200
      py      :     0.015602
 12 H s       :     0.901859  s :     0.901859
      pz      :     0.023978  p :     0.077822
      px      :     0.021532
      py      :     0.032311
 13 H s       :     0.897039  s :     0.897039
      pz      :     0.021888  p :     0.078904
      px      :     0.016445
      py      :     0.040572
 14 H s       :     0.899031  s :     0.899031
      pz      :     0.031311  p :     0.083148
      px      :     0.021582
      py      :     0.030256
 15 H s       :     0.895860  s :     0.895860
      pz      :     0.016962  p :     0.078222
      px      :     0.045483
      py      :     0.015776
 16 H s       :     0.908000  s :     0.908000
      pz      :     0.042436  p :     0.080423
      px      :     0.021536
      py      :     0.016451
 17 H s       :     0.903806  s :     0.903806
      pz      :     0.031346  p :     0.082624
      px      :     0.021424
      py      :     0.029854
 18 H s       :     0.895800  s :     0.895800
      pz      :     0.021806  p :     0.079219
      px      :     0.016068
      py      :     0.041345
 19 H s       :     0.900814  s :     0.900814
      pz      :     0.040173  p :     0.077973
      px      :     0.022199
      py      :     0.015601
 20 H s       :     0.901858  s :     0.901858
      pz      :     0.023978  p :     0.077822
      px      :     0.021531
      py      :     0.032312
 21 H s       :     0.899030  s :     0.899030
      pz      :     0.031311  p :     0.083150
      px      :     0.021582
      py      :     0.030257
 22 H s       :     0.897039  s :     0.897039
      pz      :     0.021887  p :     0.078903
      px      :     0.016444
      py      :     0.040571
 23 H s       :     0.892052  s :     0.892052
      pz      :     0.040753  p :     0.079661
      px      :     0.023472
      py      :     0.015436
 24 H s       :     0.887474  s :     0.887474
      pz      :     0.025746  p :     0.080106
      px      :     0.022350
      py      :     0.032009
 25 H s       :     0.895799  s :     0.895799
      pz      :     0.021805  p :     0.079218
      px      :     0.016068
      py      :     0.041345
 26 H s       :     0.903806  s :     0.903806
      pz      :     0.031348  p :     0.082626
      px      :     0.021424
      py      :     0.029854
 27 H s       :     0.887472  s :     0.887472
      pz      :     0.025748  p :     0.080109
      px      :     0.022352
      py      :     0.032010
 28 H s       :     0.892049  s :     0.892049
      pz      :     0.040753  p :     0.079659
      px      :     0.023471
      py      :     0.015435


                      *****************************
                      * MAYER POPULATION ANALYSIS *
                      *****************************

  NA   - Mulliken gross atomic population
  ZA   - Total nuclear charge
  QA   - Mulliken gross atomic charge
  VA   - Mayer's total valence
  BVA  - Mayer's bonded valence
  FA   - Mayer's free valence

  ATOM       NA         ZA         QA         VA         BVA        FA
  0 C      6.0249     6.0000    -0.0249     4.0005     4.0005     0.0000
  1 C      6.0717     6.0000    -0.0717     4.0009     4.0009     0.0000
  2 C      6.0249     6.0000    -0.0249     4.0005     4.0005     0.0000
  3 C      6.0654     6.0000    -0.0654     3.9621     3.9621    -0.0000
  4 C      6.0790     6.0000    -0.0790     3.9818     3.9818    -0.0000
  5 C      5.9907     6.0000     0.0093     3.9191     3.9191    -0.0000
  6 C      5.8691     6.0000     0.1309     4.0652     4.0652    -0.0000
  7 O      8.3486     8.0000    -0.3486     2.1149     2.1149     0.0000
  8 C      6.0654     6.0000    -0.0654     3.9621     3.9621    -0.0000
  9 C      6.0790     6.0000    -0.0790     3.9818     3.9818    -0.0000
 10 C      5.9907     6.0000     0.0093     3.9191     3.9191     0.0000
 11 H      0.9750     1.0000     0.0250     0.9685     0.9685     0.0000
 12 H      0.9758     1.0000     0.0242     0.9629     0.9629     0.0000
 13 H      0.9690     1.0000     0.0310     0.9684     0.9684    -0.0000
 14 H      0.9543     1.0000     0.0457     0.9801     0.9801    -0.0000
 15 H      0.9713     1.0000     0.0287     0.9678     0.9678     0.0000
 16 H      0.9794     1.0000     0.0206     0.9653     0.9653     0.0000
 17 H      0.9713     1.0000     0.0287     0.9655     0.9655    -0.0000
 18 H      0.9635     1.0000     0.0365     0.9679     0.9679     0.0000
 19 H      0.9750     1.0000     0.0250     0.9685     0.9685     0.0000
 20 H      0.9758     1.0000     0.0242     0.9629     0.9629    -0.0000
 21 H      0.9543     1.0000     0.0457     0.9801     0.9801    -0.0000
 22 H      0.9690     1.0000     0.0310     0.9684     0.9684     0.0000
 23 H      0.9632     1.0000     0.0368     0.9717     0.9717    -0.0000
 24 H      0.9478     1.0000     0.0522     0.9853     0.9853     0.0000
 25 H      0.9635     1.0000     0.0365     0.9679     0.9679     0.0000
 26 H      0.9713     1.0000     0.0287     0.9655     0.9655     0.0000
 27 H      0.9478     1.0000     0.0522     0.9853     0.9853    -0.0000
 28 H      0.9632     1.0000     0.0368     0.9717     0.9717    -0.0000

  Mayer bond orders larger than 0.1
B(  0-C ,  1-C ) :   1.0456 B(  0-C ,  8-C ) :   1.0569 B(  0-C , 11-H ) :   0.9664 
B(  0-C , 12-H ) :   0.9659 B(  1-C ,  2-C ) :   1.0456 B(  1-C , 15-H ) :   0.9687 
B(  1-C , 16-H ) :   0.9651 B(  2-C ,  3-C ) :   1.0569 B(  2-C , 19-H ) :   0.9664 
B(  2-C , 20-H ) :   0.9659 B(  3-C ,  4-C ) :   1.0121 B(  3-C , 21-H ) :   0.9676 
B(  3-C , 22-H ) :   0.9680 B(  4-C ,  5-C ) :   1.0551 B(  4-C , 25-H ) :   0.9687 
B(  4-C , 26-H ) :   0.9682 B(  5-C ,  6-C ) :   1.0006 B(  5-C , 27-H ) :   0.9571 
B(  5-C , 28-H ) :   0.9567 B(  6-C ,  7-O ) :   2.0395 B(  6-C , 10-C ) :   1.0006 
B(  8-C ,  9-C ) :   1.0121 B(  8-C , 13-H ) :   0.9680 B(  8-C , 14-H ) :   0.9676 
B(  9-C , 10-C ) :   1.0551 B(  9-C , 17-H ) :   0.9682 B(  9-C , 18-H ) :   0.9687 
B( 10-C , 23-H ) :   0.9567 B( 10-C , 24-H ) :   0.9571 

-------
TIMINGS
-------

Total SCF time: 0 days 0 hours 0 min 24 sec 

Total time                  ....      24.723 sec
Sum of individual times     ....      24.487 sec  ( 99.0%)

Fock matrix formation       ....      24.246 sec  ( 98.1%)
Diagonalization             ....       0.023 sec  (  0.1%)
Density matrix formation    ....       0.006 sec  (  0.0%)
Population analysis         ....       0.027 sec  (  0.1%)
Initial guess               ....       0.136 sec  (  0.6%)
Orbital Transformation      ....       0.000 sec  (  0.0%)
Orbital Orthonormalization  ....       0.000 sec  (  0.0%)
DIIS solution               ....       0.000 sec  (  0.0%)
SOSCF solution              ....       0.048 sec  (  0.2%)


           ************************************************************
           *        Program running with 4 parallel MPI-processes     *
           *              working on a common directory               *
           ************************************************************


------------------------------------------------------------------------------- 
                              ORCA-MATRIX DRIVEN CI                            
------------------------------------------------------------------------------- 


Wavefunction type
-----------------
Correlation treatment                      ...      CCSD     
Single excitations                         ... ON
Orbital optimization                       ... OFF
Calculation of Z vector                    ... OFF
Calculation of Brueckner orbitals          ... OFF
Perturbative triple excitations            ... ON
Calculation of F12 correction              ... OFF
Frozen core treatment                      ... chemical core (22 el)
Reference Wavefunction                     ... RHF
  Internal Orbitals:    11 ...   42 ( 32 MO's/ 64 electrons)
  Virtual  Orbitals:    43 ...  243 (201 MO's              )
Number of AO's                             ...    244
Number of electrons                        ...     86
Number of correlated electrons             ...     64

Algorithmic settings
--------------------
Integral transformation                    ... All integrals via the RI transformation
K(C) Formation                             ... RI-DLPNO
   PNO-Integral Storage                    ... ON DISK
   PNO occupation number cut-off           ... 1.000e-07
   Singles PNO occupation number cut-off   ... 3.000e-09
   PNO Mulliken prescreening cut-off       ... 1.000e-03
   Domain cut-off (Mulliken population)    ... 1.000e-03
   PNO Normalization                       ...    1
Maximum number of iterations               ...        50
Convergence tolerance (max. residuum)      ... 1.000e-05
Level shift for amplitude update           ... 2.000e-01
Maximum number of DIIS vectors             ...         7
DIIS turned on at iteration                ...         0
Damping before turning on DIIS             ...     0.500
Damping after turning on DIIS              ...     0.000
Pair specific amplitude update             ... OFF
Natural orbital iterations                 ... OFF
Perturbative natural orbital generation    ... OFF
Printlevel                                 ... 2

Singles Fock matrix elements calculated using PNOs.

Memory handling:
----------------
Maximum memory for working arrays          ...   8000 MB
Data storage in matrix containers          ... UNCOMPRESSED
Data type for integral storage             ... DOUBLE
In-Core Storage of quantities:
   Amplitudes+Sigma Vector      ... NO
   J+K operators                ... NO
   DIIS vectors                 ... NO
   3-external integrals         ... NO
   4-external integrals         ... NO

Localization treatment:
-----------------------
Localization option                        ...    6
Localization threshhold                    ... -1.0e+00
Using relative localization threshhold     ... 1.0e-08
Neglect threshold for strong pairs         ... 1.000e-05 Eh
Prescreening threshold for very weak pairs ... 1.000e-07 Eh

Initializing the integral package          ... done
Localizing the valence orbitals
------------------------------------------------------------------------------
                           ORCA ORBITAL LOCALIZATION
------------------------------------------------------------------------------

Input orbitals are from                  ... 1_keto_cyclodecanone.proc0.gbw
Output orbitals are to                   ... 1_keto_cyclodecanone.proc0.loc
Max. number of iterations                ... 128
Localizations seeded randomly            ... off
Convergence tolerance                    ... 1.000e-06
Using relative localization threshhold   ... 1.000e-08
Treshold for strong local MOs            ... 9.500e-01
Treshold for bond MOs                    ... 8.500e-01
Operator                                 ... 0
Orbital range for localization           ... 11 to 42
Localization criterion                   ... FOSTER-BOYS (AUGMENTED HESSIAN)
Doing the dipole integrals     ... o.k.
Initial value of the localization sum :   646.871068
ITERATION   0 : L=  672.5161806373 DL=  2.56e+01 (AVERGE_DL)=    0.2273848208 
ITERATION   1 : L=  674.6420879729 DL=  2.13e+00 (AVERGE_DL)=    0.0654683397 
ITERATION   2 : L=  674.7217213079 DL=  7.96e-02 (AVERGE_DL)=    0.0126708752 
ITERATION   3 : L=  674.7246841060 DL=  2.96e-03 (AVERGE_DL)=    0.0024440506 
ITERATION   4 : L=  674.7249583208 DL=  2.74e-04 (AVERGE_DL)=    0.0007435405 
ITERATION   5 : L=  674.7249780771 DL=  1.98e-05 (AVERGE_DL)=    0.0001995777 
ITERATION   6 : L=  674.7249795131 DL=  1.44e-06 (AVERGE_DL)=    0.0000538059 
ITERATION   7 : L=  674.7249796066 DL=  9.35e-08 (AVERGE_DL)=    0.0000137326 
LOCALIZATION SUM CONVERGED

------------------------------------------------------
AUGMENTED HESSIAN OPTIMIZATION OF FOSTER-BOYS ORBITALS
------------------------------------------------------

Spin operator:           0
Orbital window:          11 to 42
Number of iterations:    128
Gradient tolerance:      1.000e-06
Number of pairs:         496
Davidson threshold:      2000
Diagonalization method:  LAPACK
Iter:    0   L: 674.7249796066   Grad. norm: 2.785938e-03
   *** Likely close to a maximum now. ***
       Augmented Hessian eigenvalues:  4.49e-08 -1.71e+00 -2.44e+00 -3.21e+00 ... 
Iter:    1   L: 674.7249796291   Grad. norm: 9.539745e-09
LOCALIZATION HAS CONVERGED.

Eigenvalues of the Hessian:
  0 -1.706e+00
  1 -2.437e+00
  2 -3.207e+00
  3 -5.593e+00
  4 -6.789e+00
  5 -7.324e+00
  6 -1.741e+01
  7 -1.741e+01
  8 -1.749e+01
  9 -1.749e+01
    ...


------------------------------------------------------------------------------- 
                    LOCALIZED MOLECULAR ORBITAL COMPOSITIONS                   
------------------------------------------------------------------------------- 

The Mulliken populations for each LMO on each atom are computed
The LMO`s will be ordered according to atom index and type
  (A) Strongly localized MO`s have populations of >=0.950 on one atom
  (B) Two center bond orbitals have populations of >=0.850 on two atoms
  (C) Other MO`s are considered to be `delocalized`

FOUND  -   2 strongly local MO`s
       -  30 two center bond MO`s
       -   0 significantly delocalized MO`s

Rather strongly localized orbitals:
MO  12:   7O  -   0.960506
MO  11:   7O  -   0.960507
Bond-like localized orbitals:
MO  42:  28H  -   0.500143  and   5C  -   0.501819
MO  41:  27H  -   0.486073  and   5C  -   0.518163
MO  40:  26H  -   0.507530  and   4C  -   0.508823
MO  39:  25H  -   0.501089  and   4C  -   0.508352
MO  38:  24H  -   0.486072  and  10C  -   0.518166
MO  37:  23H  -   0.500146  and  10C  -   0.501817
MO  36:  22H  -   0.503928  and   3C  -   0.505198
MO  35:  21H  -   0.492294  and   3C  -   0.522118
MO  34:  20H  -   0.510077  and   2C  -   0.500797
MO  33:  19H  -   0.507387  and   2C  -   0.502767
MO  32:  18H  -   0.501090  and   9C  -   0.508351
MO  31:  17H  -   0.507531  and   9C  -   0.508823
MO  30:  16H  -   0.511857  and   1C  -   0.501352
MO  29:  15H  -   0.505675  and   1C  -   0.503768
MO  28:  14H  -   0.492295  and   8C  -   0.522118
MO  27:  13H  -   0.503928  and   8C  -   0.505197
MO  26:  12H  -   0.510077  and   0C  -   0.500797
MO  25:  11H  -   0.507388  and   0C  -   0.502766
MO  24:  10C  -   0.522739  and   9C  -   0.518701
MO  23:  10C  -   0.497238  and   6C  -   0.557986
MO  22:   9C  -   0.534028  and   8C  -   0.509211
MO  21:   8C  -   0.533636  and   0C  -   0.514762
MO  20:   7O  -   0.642333  and   6C  -   0.362441
MO  19:   7O  -   0.633727  and   6C  -   0.374959
MO  18:   6C  -   0.557988  and   5C  -   0.497233
MO  17:   5C  -   0.522741  and   4C  -   0.518699
MO  16:   4C  -   0.534030  and   3C  -   0.509209
MO  15:   3C  -   0.533637  and   2C  -   0.514760
MO  14:   2C  -   0.518885  and   1C  -   0.527706
MO  13:   1C  -   0.527705  and   0C  -   0.518886
Localized MO's were stored in: 1_keto_cyclodecanone.proc0.loc

Localizing the core orbitals
------------------------------------------------------------------------------
                           ORCA ORBITAL LOCALIZATION
------------------------------------------------------------------------------

Input orbitals are from                  ... 1_keto_cyclodecanone.proc0.loc
Output orbitals are to                   ... 1_keto_cyclodecanone.proc0.loc
Max. number of iterations                ... 128
Localizations seeded randomly            ... off
Convergence tolerance                    ... 1.000e-06
Using relative localization threshhold   ... 1.000e-08
Treshold for strong local MOs            ... 9.500e-01
Treshold for bond MOs                    ... 8.500e-01
Operator                                 ... 0
Orbital range for localization           ... 0 to 10
Localization criterion                   ... FOSTER-BOYS (AUGMENTED HESSIAN)
Doing the dipole integrals     ... o.k.
Initial value of the localization sum :   193.956046
ITERATION   0 : L=  193.9560719013 DL=  2.64e-05 (AVERGE_DL)=    0.0006923766 
ITERATION   1 : L=  193.9560719013 DL=  0.00e+00 (AVERGE_DL)=    0.0000000000 
LOCALIZATION SUM CONVERGED

------------------------------------------------------
AUGMENTED HESSIAN OPTIMIZATION OF FOSTER-BOYS ORBITALS
------------------------------------------------------

Spin operator:           0
Orbital window:          0 to 10
Number of iterations:    128
Gradient tolerance:      1.000e-06
Number of pairs:         55
Davidson threshold:      2000
Diagonalization method:  LAPACK
Iter:    0   L: 193.9560719013   Grad. norm: 8.344463e-06
   *** Likely close to a maximum now. ***
       Augmented Hessian eigenvalues:  4.15e-13 -2.14e+01 -3.34e+01 -3.34e+01 ... 
Iter:    1   L: 193.9560719013   Grad. norm: 3.214616e-16
LOCALIZATION HAS CONVERGED.

Eigenvalues of the Hessian:
  0 -2.135e+01
  1 -3.344e+01
  2 -3.345e+01
  3 -3.407e+01
  4 -3.407e+01
  5 -3.408e+01
  6 -3.408e+01
  7 -3.412e+01
  8 -3.412e+01
  9 -3.432e+01
    ...


------------------------------------------------------------------------------- 
                    LOCALIZED MOLECULAR ORBITAL COMPOSITIONS                   
------------------------------------------------------------------------------- 

The Mulliken populations for each LMO on each atom are computed
The LMO`s will be ordered according to atom index and type
  (A) Strongly localized MO`s have populations of >=0.950 on one atom
  (B) Two center bond orbitals have populations of >=0.850 on two atoms
  (C) Other MO`s are considered to be `delocalized`

FOUND  -  11 strongly local MO`s
       -   0 two center bond MO`s
       -   0 significantly delocalized MO`s

Rather strongly localized orbitals:
MO  10:  10C  -   0.999092
MO   9:   9C  -   0.999178
MO   8:   8C  -   0.999174
MO   7:   7O  -   0.999601
MO   6:   6C  -   0.999761
MO   5:   5C  -   0.999092
MO   4:   4C  -   0.999178
MO   3:   3C  -   0.999174
MO   2:   2C  -   0.999264
MO   1:   1C  -   0.999260
MO   0:   0C  -   0.999264
Localized MO's were stored in: 1_keto_cyclodecanone.proc0.loc

Warning: internal orbitals are localized - no re-canonicalization of internal orbitals

--------------------------
CLOSED-SHELL FOCK OPERATOR
--------------------------

RI-JK section for the Fock operator:
  RHF full Fock operator         ... done
  RHF frozen core Fock operator  ... done
Time needed for Fock operator              ...           14.835 sec
Reference energy                           ...   -464.050257507

--------------
DLPNO SETTINGS (2015 fully linear scaling implementation)
--------------

TCutMKN:           1.000e-03
TCutPAO:           1.000e-03
TCutPNO:           1.000e-07
TCutPNOSingles:    3.000e-09
TCutEN:            9.700e-01
TCutPAOExt:        1.000e-01
TCutPairs:         1.000e-05
TCutPre:           1.000e-07
TCutOSV:           1.000e-06
TCutDOij:          1.000e-05
TCutDO:            5.000e-03
TCutC:             1.000e-04
TCutCPAO:          1.000e-03
TCutCMO:           1.000e-03
TScaleDOMP2PreScr: 2.000e+00
TScaleMKNMP2PreScr:1.000e+01
TScalePNOMP2PreScr:1.000e+00
PAO overlap thresh 1.000e-08
Using PNOs for Singles Fock computation
Use new domains
Use fully linear algorithm
TCutTNO:           1.000e-09
TCutMP2Pairs:      1.000e-06
TCutDOStrong:      2.000e-03
TCutMKNStrong:     1.000e-02
TCutMKNWeak:       1.000e-01
TCutDOWeak:        4.000e-03
NTCutTNO:          1

--------------------------
Calculating differential overlap integrals ... ok
--------------------------
ELECTRON PAIR PRESCREENING
--------------------------

Dipole-based pair screening          .... used

   TCutDOij = 1.000000e-05
   TCutPre  = 1.000000e-07
   .... Finished loop over pairs
Total time spent in the prescreening                  ...     0.000 sec
sum of pair energies estimated for screened out pairs ...       0.000000000000 Eh
Thresholds for map construction and integral transformation for crude MP2:
   TCutMKN                    ...     1.0e-02
   TCutDO                     ...     1.0e-02
   TCutPairs                  ...     1.0e-05
   TCutPNO_CrudeMP2           ...     1.0e-07
   TCutPNOSingles_CrudeMP2    ...     3.0e-09
--------------------------------
LOCAL RI TRANSFORMATION (IAVPAO)
--------------------------------

Orbital window:      11 to 42
Number of PAOs:     244
Basis functions:    244 (120 shells)
Aux. functions:     868 (306 shells)

Processing maps (0.0 sec)
Average map sizes:
   Aux shells -> MOs              32.0
   Aux shells -> PAOs            244.0
   MOs        -> AO shells       112.3
   PAOs       -> AO shells       119.1

Calculating integrals (1.0 sec, 51.717 MB)
Sorting integrals (0.1 sec, 51.707 MB)
Total time for the integral transformation: 1.1 sec
--------------------------------
INITIAL GUESS AND PNO GENERATION
--------------------------------

PNO truncation parameters                   .... 
    PAOOverlapThresh   =        1.000e-08

    TCutPairs          =        1.000e-05
    TCutPNO            =        1.000e-07
    TCutPNOSingles     =        3.000e-09
    TCutMP2Pairs       =        1.000e-06
    TCutMKN            =        1.000e-02
    TCutDO             =        1.000e-02

Pair selection                          .... not used
Type of local MP2 treatment                 .... semi-local MP2
Strategy for PNO selection                  .... occupation number selection
Pair density normalization                  .... MP2 norm
Spin component scaling                      .... not used

   .... Finished loop over pairs
Making pair pair interaction lists          ... done

                       ===========================
                        487 OF  528 PAIRS ARE KEPT CCSD PAIRS
                         41 OF  528 PAIRS ARE KEPT MP2 PAIRS FOR (T)
                          0 OF  528 PAIRS ARE SKIPPED
                       ===========================

Total time spent in the initial guess                 ...     3.103 sec
SL-MP2 correlation energy (all non-screened pairs)    ...      -1.537308238319 Eh

Initial PNO correlation energy                        ...      -1.536151371683 Eh
sum of pair energies prescreened and skipped MP2 pairs...       0.000000000000 Eh
sum of pair energies of crude MP2 skipped pairs only  ...       0.000000000000 Eh
sum of MP2 pair energies for pairs that were not kept ...      -0.000257919469 Eh
sum of PNO error estimates for the kept pairs         ...      -0.000898947167 Eh
                                                          --------------------
sum of all corrections                                         -0.001156866636
Initial total correlation energy                               -1.537308238319
Thresholds for map construction and integral transformation for fine MP2 and CCSD(T) calculation:
   TCutMKN   ...     1.0e-03
   TCutDO    ...     5.0e-03
   TCutPairs ...     1.0e-05
   TCutCMO   ...     1.0e-03
   TCutCPAO  ...     1.0e-03

Thresholds for map construction and integral transformation for strong Triples:
   TCutMKN   ...     1.0e-02
   TCutDO    ...     1.0e-02
   TCutCMO   ...     1.0e-03
   TCutCPAO  ...     1.0e-03

Thresholds for map construction and integral transformation for weak Triples:
   TCutMKN   ...     1.0e-01
   TCutDO    ...     2.0e-02
   TCutCMO   ...     1.0e-03
   TCutCPAO  ...     1.0e-03

--------------------------------
LOCAL RI TRANSFORMATION (IAVPAO)
--------------------------------

Orbital window:      11 to 42
Number of PAOs:     244
Basis functions:    244 (120 shells)
Aux. functions:     868 (306 shells)

Processing maps (0.0 sec)
Average map sizes:
   Aux shells -> MOs              32.0
   Aux shells -> PAOs            244.0
   MOs        -> AO shells       112.3
   PAOs       -> AO shells       119.1

Calculating integrals (1.0 sec, 51.717 MB)
Sorting integrals (0.1 sec, 51.707 MB)
Total time for the integral transformation: 1.1 sec
--------------------------------
INITIAL GUESS AND PNO GENERATION
--------------------------------

PNO truncation parameters                   .... 
    ScaleTCutPNO       =        1.000e-02
    PAOOverlapThresh   =        1.000e-08

    TCutPairs          =        1.000e-05
    TCutPNO            =        1.000e-07
    TCutPNOSingles     =        3.000e-09
    TCutMP2Pairs       =        1.000e-06
    TCutMKN            =        1.000e-03
    TCutDO             =        5.000e-03

Pair selection                          .... not used
Type of local MP2 treatment                 .... full local PMP2
Strategy for PNO selection                  .... occupation number selection
Pair density normalization                  .... MP2 norm
Spin component scaling                      .... not used

PASS-1: Formation of initial guess LMP2 amplitudes
Initial amplitudes guess done. Entering LMP2 iteration loop:
   Max. no of iterations          ...  50
   Energy convergence tolerance   ...    1.0e-07
   Residual convergence tolerance ...    5.0e-07
   Fock matrix cutoff             ...    1.0e-05 Eh
   DIIS convergence acceleration parameters:
        Max # vectors in DIIS     ... 7
        Start iteration of DIIS   ... 0
        Levelshift                ... 2.000e-01
        Damping factor 1          ... 5.000e-01
        Damping factor 2          ... 1.000e+00
   L-MP2 PNO cut-off              ...   1.0e-09
   L-MP2 PNO cut-off (core)       ...   1.0e-11
                           *** Turning on DIIS ***
LMP2-Iter=   0:  ELMP2= -1.574368910964  DE=   3.6e-02 RMAX=   2.3e-02
LMP2-Iter=   1:  ELMP2= -1.592327645346  DE=   1.8e-02 RMAX=   1.0e-02
LMP2-Iter=   2:  ELMP2= -1.595401439636  DE=   3.1e-03 RMAX=   4.3e-03
LMP2-Iter=   3:  ELMP2= -1.595750520445  DE=   3.5e-04 RMAX=   1.6e-03
LMP2-Iter=   4:  ELMP2= -1.595746954220  DE=   3.6e-06 RMAX=   4.5e-04
LMP2-Iter=   5:  ELMP2= -1.595735404736  DE=   1.2e-05 RMAX=   1.0e-04
LMP2-Iter=   6:  ELMP2= -1.595733220185  DE=   2.2e-06 RMAX=   1.3e-05
LMP2-Iter=   7:  ELMP2= -1.595733249020  DE=   2.9e-08 RMAX=   1.5e-06
LMP2-Iter=   8:  ELMP2= -1.595733307834  DE=   5.9e-08 RMAX=   2.1e-07
LMP2-Iter=   9:  ELMP2= -1.595733306887  DE=   9.5e-10 RMAX=   3.5e-08 => CONVERGED
PASS-2: Formation of Pair natural orbitals
   .... Finished loop over pairs

 PNO Occupation Number Statistics: 
  | Av. % of trace(Dij) retained        ...  99.151134244873
  | sigma^2 in % of trace(Dij) retained ...   9.63e-01
  | Av. % of trace(Di) retained         ...  99.999843111903
  | sigma^2 in % of trace(Di) retained  ...   4.90e-10
 Distributions of % trace(Dij) recovered:
  |       >= 99.9  ...   147 ( 27.8 % of all pairs)
  |   [90.0, 99.0) ...   188 ( 35.6 % of all pairs)
  |   [99.0, 99.9) ...   193 ( 36.6 % of all pairs)
 Distributions of % trace(Di) recovered :
  |       >= 99.9  ...    32 (100.0 % of all I-pairs )

Making pair pair interaction lists          ... done

                       ===========================
                        487 OF  528 PAIRS ARE KEPT
                       ===========================

Total time spent in the initial guess                 ...    21.442 sec
L-MP2 correlation energy (all non-screened pairs)     ...      -1.595733306887 Eh
L-MP2 PNO error correction                            ...      -0.000020537049 Eh
                                                          --------------------
Initial total L-MP2 energy (non-screened pairs)       ...      -1.595753843936 Eh

Initial PNO correlation energy                        ...      -1.594761143385 Eh
sum of pair energies estimated for screened out pairs ...       0.000000000000 Eh
sum of MP2 pair energies for pairs that were not kept ...      -0.000312084634 Eh
sum of PNO error estimates for the kept pairs         ...      -0.000846782727 Eh
                                                          --------------------
sum of all corrections                                         -0.001158867361
Initial total correlation energy                               -1.595920010747
Thresholds for map construction and integral transformation for fine MP2 and CCSD(T) calculation:
   TCutMKN   ...     1.0e-03
   TCutDO    ...     5.0e-03
   TCutPairs ...     1.0e-05
   TCutCMO   ...     1.0e-03
   TCutCPAO  ...     1.0e-03

Time for aux screen maps:            0.010
Time for maps after fine MP2:            0.033
-----------------------------
LOCAL RI TRANSFORMATION (IJV)
-----------------------------

Orbital window:      11 to 42
Basis functions:    244 (120 shells)
Aux. functions:     868 (306 shells)

Processing maps (0.0 sec)
Average map sizes:
   Aux shells -> MOs(i)           32.0
   Aux shells -> MOs(j)           32.0
   MOs        -> AO shells       112.3

Calculating integrals (0.8 sec, 6.791 MB)
Sorting integrals (0.0 sec, 6.782 MB)
Total time for the integral transformation: 0.8 sec
--------------------------------
LOCAL RI TRANSFORMATION (VABPAO)
--------------------------------

Number of PAOs:     244
Basis functions:    244 (120 shells)
Aux. functions:     868 (306 shells)

Processing maps (0.0 sec)
Average map sizes:
   Aux shells -> PAOs            244.0
   PAOs       -> AO shells       119.1

Calculating integrals (1.6 sec, 699.068 MB)
Finished


-------------------------------------
Pair Pair Term precalculation with     
RI-(ij|mn) and (im|jn) transformation  
ON THE FLY                             
-------------------------------------

   IBatch   1 (of   2)              ... done (   43.040 sec)
   IBatch   2 (of   2)              ... done (   35.841 sec)
Total EXT                           ...          78.882 sec

---------------------
RI-PNO TRANSFORMATION
---------------------

Total Number of PNOs                   ... 11211
Average number of PNOs per pair        ...    23
Maximal number of PNOs per pair        ...    45
   #pairs with  1 -  5 PNOs   :    0
   #pairs with  6 - 10 PNOs   :  113
   #pairs with 11 - 15 PNOs   :   50
   #pairs with 16 - 20 PNOs   :   51
   #pairs with 21 - 25 PNOs   :   55
   #pairs with 26 - 30 PNOs   :   56
   #pairs with 31 - 35 PNOs   :   80
   #pairs with 36 - 40 PNOs   :   66
   #pairs with 41 - 45 PNOs   :   16
   #pairs with 46 - 50 PNOs   :    0

Generation of (ij|ab)[P] integrals            ... on
Generation of (ia|bc)[P],(ja|bc)[P] integrals ... on
Storage of 3 and 4 external integrals         ... on
Generation of ALL (ka|bc)[P] integrals        ... on
Keep RI integrals in memory                   ... off

Ibatch:  1 (of  1)
Starting 2-4 index PNO integral generation ... done

Timings:
Total PNO integral transformation time     ...         23.825 sec
Size of the 3-external file                ...        82 MB
Size of the 4-external file                ...       364 MB
Size of the IKJL file                      ...         0 MB
Size of the all 3-external file            ...      1313 MB
Size of the 1-external file                ...         8 MB

Making pair/pair overlap matrices          ... done (    7.110 sec)
Size of the pair overlap file              ... 620 MB
Redoing the guess amplitudes               ... done (    0.003 sec)

-------------------------
FINAL STARTUP INFORMATION
-------------------------

E(0)                                       ...   -464.050257507
E(L-MP2)                                   ...     -1.595753844
E(L-MP2) including corrections             ...     -1.595920011
Initial E(tot)                             ...   -465.646177518
<T|T>                                      ...      0.490161982
Number of pairs included                   ... 487
Total number of pairs                      ... 528

------------------------------------------------
                  RHF COUPLED CLUSTER ITERATIONS
------------------------------------------------

Number of PNO amplitudes to be optimized   ...       322343
Number of non-PNO amplitudes               ...     19675287
Untruncated number of regular amplitudes   ...     21331728

Iter       E(tot)           E(Corr)          Delta-E          Residual     Time
  0   -465.588071593     -1.536655219      0.059098625      0.019180263   11.08
                           *** Turning on DIIS ***
  1   -465.698970948     -1.647554574     -0.110899355      0.015429393   19.58
  2   -465.752478930     -1.701062555     -0.053507981      0.008398338   10.20
  3   -465.760699847     -1.709283473     -0.008220917      0.005166161    9.98
  4   -465.762926820     -1.711510445     -0.002226973      0.002707330    9.68
  5   -465.763578749     -1.712162375     -0.000651929      0.001235568   11.13
  6   -465.763751763     -1.712335389     -0.000173014      0.000457854   10.72
  7   -465.763777826     -1.712361452     -0.000026062      0.000175410   10.21
  8   -465.763774144     -1.712357770      0.000003682      0.000067506   10.00
  9   -465.763770450     -1.712354076      0.000003694      0.000023421    9.71
 10   -465.763769674     -1.712353300      0.000000776      0.000007230   11.16
               --- The Coupled-Cluster iterations have converged ---

----------------------
COUPLED CLUSTER ENERGY
----------------------

E(0)                                       ...   -464.050257507
E(CORR)(strong-pairs)                      ...     -1.712353300
E(CORR)(weak-pairs)                        ...     -0.001158867
E(CORR)(corrected)                         ...     -1.713512167
E(TOT)                                     ...   -465.763769674
Singles Norm <S|S>**1/2                    ...      0.081620740  
T1 diagnostic                              ...      0.010202592  

------------------
LARGEST AMPLITUDES
------------------
  19-> 43  19-> 43       0.061493
  20-> 43  20-> 43       0.061408
  20-> 43  19-> 43       0.053328
  26-> 52  26-> 52       0.041310
  34-> 52  34-> 52       0.041310
  30-> 52  30-> 52       0.040649
  27-> 52  27-> 52       0.038386
  36-> 52  36-> 52       0.038385
  38-> 52  38-> 52       0.038377
  41-> 52  41-> 52       0.038377
  31-> 43  31-> 43       0.038367
  40-> 43  40-> 43       0.038366
  28-> 43  28-> 43       0.037969
  35-> 43  35-> 43       0.037969
  39-> 52  39-> 52       0.037900
  32-> 52  32-> 52       0.037899


-------------------------------------------
DLPNO BASED TRIPLES CORRECTION
-------------------------------------------

Singles multiplier          ...  1.000000
TCutTNO                     ... 1.000e-09
TCutMP2Pairs                ... 1.000e-06
TCutDOStrong                ... 1.000e-02
TCutMKNStrong               ... 1.000e-02
TCutDOWeak                  ... 2.000e-02
TCutMKNWeak                 ... 1.000e-01

Fragment selection                          .... not used
Number of Triples that are to be computed   ...      5683

 . . . . . . . . .
10% done  
20% done  
30% done  
40% done  
50% done  
60% done  
70% done  
80% done  
90% done               (    240.364 sec)
Triples timings:
Total time for T0               ...   267.649 sec
Total time for Iterative (T)    ...     0.000 sec
Total time of overall (T)       ...   267.653 sec

Triples List generation         ...     0.000 sec
TNO generation                  ...    27.277 sec
Pair density generation         ...     0.004 sec
Look up tables                  ...     0.000 sec
Generating 3-index integrals    ...   142.568 sec
  Make 4-ind.int. from 3-ind.int...    25.706 sec
  Projecting amplitudes (D + S) ...    46.492 sec
  Downprojecting integrals      ...     0.010 sec
  Energy contr. (sum over a,b,c)...     6.873 sec
Fitting ET(->0)                 ...     0.000 sec

Everything after 3-index        ...    97.796 sec

Timing details:
 TNO integrals                  ...   164.040 sec
   Reading 3-index integrals    ...     0.139 sec
   Sorting integrals            ...    25.027 sec
       Sorting integrals 1      ...     0.007 sec
       Sorting integrals 2      ...    14.071 sec
       Sorting integrals 3      ...     1.043 sec
       Sorting integrals 4      ...     0.229 sec
       Sorting integrals 5      ...     0.481 sec
       Sorting integrals 6      ...     9.196 sec
   Calculating local VM**-1/2   ...     1.235 sec
   Orthogonal. integrals        ...     1.764 sec
   Multipl. 3-index integrals   ...   135.874 sec
   All concerning IRIab (w/TNO) ...    12.225 sec

 Calculate W0/W1                ...    18.674 sec
 W 3-ext contribution           ...     8.768 sec
 W 3-int contribution           ...     4.813 sec
 Sorting W                      ...     4.697 sec

 V exchange contribution        ...     2.625 sec

 Timings for Triples without generation
     of 3-index integrals       ...    97.778 sec
       0 weak pairs             ...    88.582 sec
       1 weak pair              ...     9.196 sec
       2 weak pairs             ...     0.000 sec
       3 weak pairs             ...     0.000 sec
  Extra time for extrapolation  ...     0.000 sec

Number of Triples   (0, 1, 2, 3 weak pairs; overall):   4827     856       0       0  (  5683)
Number of Atoms     (0, 1, 2, 3 weak pairs; overall):   24.5    20.6     0.0     0.0  (    29)
Number of PAOs      (0, 1, 2, 3 weak pairs; overall):  212.7   191.8     0.0     0.0  (   244)
Number of AuxFcns   (0, 1, 2, 3 weak pairs; overall):  268.2   238.6     0.0     0.0  (   868)
Number of TNOs      (0, 1, 2, 3 weak pairs         ):   58.3    46.5     0.0     0.0
Aver. Number of NTNO, Atoms, PAOs, AuxFcns / Triples:   5683    56.5    23.9   209.6   263.7

Triples Correction (T)                     ...     -0.054788520
Final correlation energy                   ...     -1.768300687
E(CCSD)                                    ...   -465.763769674
E(CCSD(T))                                 ...   -465.818558193


Maximum memory used throughout the entire calculation: 7978.3 MB


------------------------------------------------------------------------------- 
                                     TIMINGS                                   
------------------------------------------------------------------------------- 


Total execution time                   ...      551.807 sec

Localization of occupied MO's          ...        0.650 sec (  0.1%)
Fock Matrix Formation                  ...       14.835 sec (  2.7%)
Global overlap, Fock, MKN matrices     ...        0.227 sec (  0.0%)
Differential overlap integrals         ...        0.348 sec (  0.1%)
Organizing maps                        ...        0.102 sec (  0.0%)
RI 3-index integral generations        ...        4.580 sec (  0.8%)
RI-PNO integral transformation         ...      114.479 sec ( 20.7%)
Initial Guess                          ...       24.581 sec (  4.5%)
DIIS Solver                            ...        1.378 sec (  0.2%)
State Vector Update                    ...        0.031 sec (  0.0%)
Sigma-vector construction              ...      123.151 sec ( 22.3%)
  <0|H|D>                              ...        0.001 sec (  0.0% of sigma)
  <D|H|D>(0-ext)                       ...       10.926 sec (  8.9% of sigma)
  <D|H|D>(2-ext Fock)                  ...        0.031 sec (  0.0% of sigma)
  <D|H|D>(2-ext)                       ...       25.499 sec ( 20.7% of sigma)
  <D|H|D>(4-ext)                       ...        5.443 sec (  4.4% of sigma)
  <D|H|D>(4-ext-corr)                  ...       35.634 sec ( 28.9% of sigma)
  CCSD doubles correction              ...        0.733 sec (  0.6% of sigma)
  <S|H|S>                              ...        0.805 sec (  0.7% of sigma)
  <S|H|D>(1-ext)                       ...        1.160 sec (  0.9% of sigma)
  <D|H|S>(1-ext)                       ...        0.037 sec (  0.0% of sigma)
  <S|H|D>(3-ext)                       ...        0.374 sec (  0.3% of sigma)
  Fock-dressing                        ...       22.019 sec ( 17.9% of sigma)
  Singles amplitudes                   ...        0.799 sec (  0.6% of sigma)
  (ik|jl)-dressing                     ...        7.978 sec (  6.5% of sigma)
  (ij|ab),(ia|jb)-dressing             ...       10.992 sec (  8.9% of sigma)
  Pair energies                        ...        0.010 sec (  0.0% of sigma)
Total Time for computing (T)           ...      267.953 sec ( 48.6% of ALL)


-------------------------   --------------------
FINAL SINGLE POINT ENERGY      -465.818558193434
-------------------------   --------------------


                            ***************************************
                            *     ORCA property calculations      *
                            ***************************************

                                    ---------------------
                                    Active property flags
                                    ---------------------
   (+) Dipole Moment


------------------------------------------------------------------------------
                       ORCA ELECTRIC PROPERTIES CALCULATION
------------------------------------------------------------------------------

Dipole Moment Calculation                       ... on
Quadrupole Moment Calculation                   ... off
Polarizability Calculation                      ... off
GBWName                                         ... 1_keto_cyclodecanone.gbw
Electron density file                           ... 1_keto_cyclodecanone.scfp.tmp
The origin for moment calculation is the CENTER OF MASS  = (-0.099812,  0.000000  0.045354)

-------------
DIPOLE MOMENT
-------------
                                X             Y             Z
Electronic contribution:     -7.96530      -0.00001       2.83714
Nuclear contribution   :      8.58399      -0.00002      -3.90065
                        -----------------------------------------
Total Dipole Moment    :      0.61868      -0.00003      -1.06352
                        -----------------------------------------
Magnitude (a.u.)       :      1.23038
Magnitude (Debye)      :      3.12738



--------------------
Rotational spectrum 
--------------------
 
Rotational constants in cm-1:     0.046591     0.030701     0.022640 
Rotational constants in MHz :  1396.777388   920.388665   678.727467 

 Dipole components along the rotational axes: 
x,y,z [a.u.] :     0.641386     0.000027    -1.049982 
x,y,z [Debye]:     1.630274     0.000068    -2.668842 

 

Timings for individual modules:

Sum of individual times         ...      578.194 sec (=   9.637 min)
GTO integral calculation        ...        1.036 sec (=   0.017 min)   0.2 %
SCF iterations                  ...       24.881 sec (=   0.415 min)   4.3 %
MDCI module                     ...      552.276 sec (=   9.205 min)  95.5 %
                             ****ORCA TERMINATED NORMALLY****
TOTAL RUN TIME: 0 days 0 hours 9 minutes 38 seconds 800 msec
1_keto_cyclodecanone.gbw -> /home1/pantazis/klk/VDZ/Oxygen_compounds/1_keto_cyclodecanone.gbw
1_keto_cyclodecanone.ges -> /home1/pantazis/klk/VDZ/Oxygen_compounds/1_keto_cyclodecanone.ges
1_keto_cyclodecanone.job -> /home1/pantazis/klk/VDZ/Oxygen_compounds/1_keto_cyclodecanone.job
1_keto_cyclodecanone.loc -> /home1/pantazis/klk/VDZ/Oxygen_compounds/1_keto_cyclodecanone.loc
1_keto_cyclodecanone.nodes -> /home1/pantazis/klk/VDZ/Oxygen_compounds/1_keto_cyclodecanone.nodes
1_keto_cyclodecanone.prop -> /home1/pantazis/klk/VDZ/Oxygen_compounds/1_keto_cyclodecanone.prop
1_keto_cyclodecanone_property.txt -> /home1/pantazis/klk/VDZ/Oxygen_compounds/1_keto_cyclodecanone_property.txt
1_keto_cyclodecanone.xyz -> /home1/pantazis/klk/VDZ/Oxygen_compounds/1_keto_cyclodecanone.xyz
cp: cannot stat 1_keto_cyclodecanone.asa.inp: No such file or directory
