! Job execution by suborca V 6.07 on ZEUS !
Job started from zeus1, running /scratch/pantazis/2_butanone_skew__R4Av2E/orca/orca copied from /opt/orca on zeussn149 in /scratch/pantazis/2_butanone_skew__R4Av2E
Job execution start: Sat Jun 29 11:39:06 CEST 2019
Shared library path: /scratch/pantazis/2_butanone_skew__R4Av2E/orca:/opt/openmpi_1.10.2/lib:/opt/intel/mkl/lib/intel64:/opt/intel/lib/intel64:
PBS Job ID is: 158882.icqc
izeussn149
izeussn149
izeussn149
izeussn149

                                 *****************
                                 * O   R   C   A *
                                 *****************

           --- An Ab Initio, DFT and Semiempirical electronic structure package ---

                  #######################################################
                  #                        -***-                        #
                  #          Department of theory and spectroscopy      #
                  #               Directorship: Frank Neese             #
                  #        Max Planck Institute fuer Kohlenforschung    #
                  #                Kaiser Wilhelm Platz 1               #
                  #                 D-45470 Muelheim/Ruhr               #
                  #                      Germany                        #
                  #                                                     #
                  #                  All rights reserved                #
                  #                        -***-                        #
                  #######################################################


                         Program Version 4.1.x  -  STABLE  -
                                (SVN: $Rev: 14094$)
                ($Date: 2019-06-14 15:01:15 +0200 (Fri, 14 Jun 2019) $)

                         (BUILD: $Sun Jun 23 06:18:31 CEST 2019$)


 With contributions from (in alphabetic order):
   Daniel Aravena         : Magnetic Properties
   Michael Atanasov       : Ab Initio Ligand Field Theory
   Alexander A. Auer      : GIAO ZORA
   Ute Becker             : Parallelization
   Giovanni Bistoni       : ED, Open-shell LED
   Martin Brehm           : Molecular dynamics
   Dmytro Bykov           : SCF Hessian
   Vijay G. Chilkuri      : MRCI spin determinant printing
   Dipayan Datta          : RHF DLPNO-CCSD density
   Achintya Kumar Dutta   : EOM-CC, STEOM-CC
   Dmitry Ganyushin       : Spin-Orbit,Spin-Spin,Magnetic field MRCI
   Miquel Garcia          : C-PCM Hessian
   Yang Guo               : DLPNO-NEVPT2, CIM, IAO-localization
   Andreas Hansen         : Spin unrestricted coupled pair/coupled cluster methods
   Benjamin Helmich-Paris : CASSCF linear response (MC-RPA)
   Lee Huntington         : MR-EOM, pCC
   Robert Izsak           : Overlap fitted RIJCOSX, COSX-SCS-MP3, EOM
   Christian Kollmar      : KDIIS, OOCD, Brueckner-CCSD(T), CCSD density
   Simone Kossmann        : Meta GGA functionals, TD-DFT gradient, OOMP2, MP2 Hessian
   Martin Krupicka        : AUTO-CI
   Lucas Lang             : DCDCAS
   Dagmar Lenk            : GEPOL surface, SMD
   Dimitrios Liakos       : Extrapolation schemes; parallel MDCI
   Dimitrios Manganas     : ROCIS; embedding schemes
   Dimitrios Pantazis     : SARC Basis sets
   Taras Petrenko         : DFT Hessian,TD-DFT gradient, ASA, ECA, R-Raman, ABS, FL, XAS/XES, NRVS
   Peter Pinski           : DLPNO-MP2, DLPNO-MP2 Gradient
   Christoph Reimann      : Effective Core Potentials
   Marius Retegan         : Local ZFS, SOC
   Christoph Riplinger    : Optimizer, TS searches, QM/MM, DLPNO-CCSD(T), (RO)-DLPNO pert. Triples
   Tobias Risthaus        : Range-separated hybrids, TD-DFT gradient, RPA, STAB
   Michael Roemelt        : Restricted open shell CIS
   Masaaki Saitow         : Open-shell DLPNO
   Barbara Sandhoefer     : DKH picture change effects
   Avijit Sen             : IP-ROCIS
   Kantharuban Sivalingam : CASSCF convergence, NEVPT2, FIC-MRCI
   Bernardo de Souza      : ESD, SOC TD-DFT
   Georgi Stoychev        : AutoAux, RI-MP2 NMR
   Willem Van den Heuvel  : Paramagnetic NMR
   Boris Wezisla          : Elementary symmetry handling
   Frank Wennmohs         : Technical directorship


 We gratefully acknowledge several colleagues who have allowed us to
 interface, adapt or use parts of their codes:
   Stefan Grimme, W. Hujo, H. Kruse,             : VdW corrections, initial TS optimization,
                  C. Bannwarth                     DFT functionals, gCP, sTDA/sTD-DF
   Ed Valeev                                     : LibInt (2-el integral package), F12 methods
   Garnet Chan, S. Sharma, J. Yang, R. Olivares  : DMRG
   Ulf Ekstrom                                   : XCFun DFT Library
   Mihaly Kallay                                 : mrcc  (arbitrary order and MRCC methods)
   Andreas Klamt, Michael Diedenhofen            : otool_cosmo (COSMO solvation model)
   Jiri Pittner, Ondrej Demel                    : Mk-CCSD
   Frank Weinhold                                : gennbo (NPA and NBO analysis)
   Christopher J. Cramer and Donald G. Truhlar   : smd solvation model
   Lars Goerigk                                  : TD-DFT with DH, B97 family of functionals
   V. Asgeirsson, H. Jonsson                     : NEB implementation
   FAccTs GmbH                                   : IRC, NEB, NEB-TS, Multilevel


 Your calculation uses the libint2 library for the computation of 2-el integrals
 For citations please refer to: http://libint.valeyev.net

 This ORCA versions uses:
   CBLAS   interface :  Fast vector & matrix operations
   LAPACKE interface :  Fast linear algebra routines
   SCALAPACK package :  Parallel linear algebra routines




***************************************
The coordinates will be read from file: 2_butanone_skew.xyz
***************************************


----- Orbital basis set information -----
Your calculation utilizes the basis: cc-pVDZ 
       H, B-Ne : Obtained from the ccRepo (grant-hill.group.shef.ac.uk/ccrepo) Feb. 2017
                 T. H. Dunning, Jr., J. Chem. Phys. 90, 1007 (1989)
            He : Obtained from the ccRepo (grant-hill.group.shef.ac.uk/ccrepo) Feb. 2017
                 D. E. Woon, T. H. Dunning, Jr., J. Chem. Phys. 100, 2975 (1994)
  Li-Be, Na-Mg : Obtained from the ccRepo (grant-hill.group.shef.ac.uk/ccrepo) Feb. 2017
                 B. P. Prascher, D. E. Woon, K. A. Peterson, T. H. Dunning, Jr., A. K. Wilson, Theor. Chem. Acc. 128, 69 (2011)
         Al-Ar : Obtained from the ccRepo (grant-hill.group.shef.ac.uk/ccrepo) Feb. 2017
                 D. E. Woon, T. H. Dunning, Jr., J. Chem. Phys. 98, 1358 (1993)
            Ca : Obtained from the Peterson Research Group Website (tyr0.chem.wsu.edu/~kipeters) Feb. 2017
                 J. Koput, K. A. Peterson, J. Phys. Chem. 106, 9595 (2002)
         Sc-Zn : Obtained from the ccRepo (grant-hill.group.shef.ac.uk/ccrepo) Feb. 2017
                 N. B. Balabanov, K. A. Peterson, J. Chem. Phys. 123, 064107 (2005)
                 N. B. Balabanov, K. A. Peterson, J. Chem. Phys. 125, 074110 (2006)
         Ga-Kr : Obtained from the ccRepo (grant-hill.group.shef.ac.uk/ccrepo) Feb. 2017
                 A. K. Wilson, D. E. Woon, K. A. Peterson, T. H. Dunning, Jr., J. Chem. Phys. 110, 7667 (1999)

----- AuxC basis set information -----
Your calculation utilizes the auxiliary basis: cc-pVDZ/C 
  H-He, B, Ne, Al-Ar, Ga-Br : Obtained from the EMSL Basis Set Exchange (bse.pnl.gov) Feb. 2017
                              F. Weigend, A. Kohn, C. Hattig, J. Chem. Phys. 116, 3175 (2002)
               Li-Be, Na-Mg : Obtained from the EMSL Basis Set Exchange (bse.pnl.gov) Feb. 2017
                              C. Haettig, Phys. Chem. Chem. Phys. 7, 59 (2005)
                        C-F : Obtained from the EMSL Basis Set Exchange (bse.pnl.gov) Feb. 2017
                              C. Haettig, Phys. Chem. Chem. Phys. 7, 59 (2005)
                              F. Weigend, A. Kohn, C. Hattig, J. Chem. Phys. 116, 3175 (2002)
                         Kr : Obtained from the TURBOMOLE 7.0 basis set library
                              F. Weigend, A. Kohn, C. Hattig, J. Chem. Phys. 116, 3175 (2002)
                              S function revised in Sep. 2009

----- AuxJK basis set information -----
Your calculation utilizes the auxiliary basis: cc-pVTZ/JK 
  H, B-F, Al-Cl, Ga-Br : Obtained from the TURBOMOLE 7.0 basis set library

================================================================================
                                        WARNINGS
                       Please study these warnings very carefully!
================================================================================


WARNING: MDCI localization with Augmented Hessian Foster-Boys
  ===> : Switching off randomization!

WARNING: Post HF methods need fully converged wavefunctions
  ===> : Setting SCFConvForced true
         You can overwrite this default with %scf ConvForced false 


INFO   : the flag for use of LIBINT has been found!

================================================================================
                                       INPUT FILE
================================================================================
NAME = 2_butanone_skew.inp
|  1> ! RHF DLPNO-CCSD(T) cc-pVDZ RIJK cc-pVTZ/JK cc-pVDZ/C
|  2> ! KDIIS SOSCF TightSCF TightPNO
|  3> 
|  4> %pal nprocs 4 end
|  5> 
|  6> %maxcore 8000
|  7> 
|  8> %scf maxiter 300
|  9>      shift shift 0.2 erroff 0.1 end
| 10> end
| 11> 
| 12> * xyzfile 0 1 2_butanone_skew.xyz 
| 13> 
| 14> 
| 15>                          ****END OF INPUT****
================================================================================

                       ****************************
                       * Single Point Calculation *
                       ****************************

---------------------------------
CARTESIAN COORDINATES (ANGSTROEM)
---------------------------------
  C     -1.031460    1.262650    0.071760
  C     -0.620150   -0.199880    0.054230
  O     -1.405760   -1.070470   -0.282540
  C      0.804810   -0.541750    0.472010
  C      1.891790    0.212890   -0.313450
  H     -2.118230    1.338460    0.008540
  H     -0.667580    1.771960    0.970910
  H     -0.592840    1.779190   -0.790750
  H      0.901820   -0.305590    1.541650
  H      0.923800   -1.623100    0.360940
  H      1.812210    0.015270   -1.387810
  H      1.831550    1.295220   -0.161480
  H      2.885400   -0.111140    0.010960

----------------------------
CARTESIAN COORDINATES (A.U.)
----------------------------
  NO LB      ZA    FRAG     MASS         X           Y           Z
   0 C     6.0000    0    12.011   -1.949177    2.386063    0.135607
   1 C     6.0000    0    12.011   -1.171914   -0.377718    0.102480
   2 O     8.0000    0    15.999   -2.656501   -2.022895   -0.533923
   3 C     6.0000    0    12.011    1.520870   -1.023759    0.891970
   4 C     6.0000    0    12.011    3.574965    0.402304   -0.592335
   5 H     1.0000    0     1.008   -4.002875    2.529323    0.016138
   6 H     1.0000    0     1.008   -1.261543    3.348519    1.834754
   7 H     1.0000    0     1.008   -1.120305    3.362182   -1.494301
   8 H     1.0000    0     1.008    1.704193   -0.577481    2.913296
   9 H     1.0000    0     1.008    1.745729   -3.067214    0.682078
  10 H     1.0000    0     1.008    3.424581    0.028856   -2.622581
  11 H     1.0000    0     1.008    3.461128    2.447611   -0.305153
  12 H     1.0000    0     1.008    5.452616   -0.210024    0.020711

--------------------------------
INTERNAL COORDINATES (ANGSTROEM)
--------------------------------
 C      0   0   0     0.000000000000     0.00000000     0.00000000
 C      1   0   0     1.519367374238     0.00000000     0.00000000
 O      2   1   0     1.220050840375   121.04722907     0.00000000
 C      2   1   3     1.523786804937   117.77194700   180.04241700
 C      4   2   1     1.538815928433   114.24195881   305.30466051
 H      1   2   3     1.091243766259   109.62152534    14.61390459
 H      1   2   3     1.095571108144   111.53355792   136.99829671
 H      1   2   3     1.096870355192   109.63212437   255.41545275
 H      4   2   1     1.099687326152   107.51735800    66.65880233
 H      4   2   1     1.093532344058   107.20334620   182.04732291
 H      5   4   2     1.095278982908   111.15403138   301.52000677
 H      5   4   2     1.094605850249   112.03439049    62.57650693
 H      5   4   2     1.094302572920   110.17241402   182.26685983

---------------------------
INTERNAL COORDINATES (A.U.)
---------------------------
 C      0   0   0     0.000000000000     0.00000000     0.00000000
 C      1   0   0     2.871188234126     0.00000000     0.00000000
 O      2   1   0     2.305561957769   121.04722907     0.00000000
 C      2   1   3     2.879539747814   117.77194700   180.04241700
 C      4   2   1     2.907940675255   114.24195881   305.30466051
 H      1   2   3     2.062151863579   109.62152534    14.61390459
 H      1   2   3     2.070329354629   111.53355792   136.99829671
 H      1   2   3     2.072784575731   109.63212437   255.41545275
 H      4   2   1     2.078107879372   107.51735800    66.65880233
 H      4   2   1     2.066476648854   107.20334620   182.04732291
 H      5   4   2     2.069777317936   111.15403138   301.52000677
 H      5   4   2     2.068505281559   112.03439049    62.57650693
 H      5   4   2     2.067932170465   110.17241402   182.26685983

---------------------
BASIS SET INFORMATION
---------------------
There are 3 groups of distinct atoms

 Group   1 Type C   : 17s4p1d contracted to 3s2p1d pattern {881/31/1}
 Group   2 Type O   : 17s4p1d contracted to 3s2p1d pattern {881/31/1}
 Group   3 Type H   : 4s1p contracted to 2s1p pattern {31/1}

Atom   0C    basis set group =>   1
Atom   1C    basis set group =>   1
Atom   2O    basis set group =>   2
Atom   3C    basis set group =>   1
Atom   4C    basis set group =>   1
Atom   5H    basis set group =>   3
Atom   6H    basis set group =>   3
Atom   7H    basis set group =>   3
Atom   8H    basis set group =>   3
Atom   9H    basis set group =>   3
Atom  10H    basis set group =>   3
Atom  11H    basis set group =>   3
Atom  12H    basis set group =>   3
-------------------------------
AUXILIARY BASIS SET INFORMATION
-------------------------------
There are 3 groups of distinct atoms

 Group   1 Type C   : 7s5p4d2f contracted to 7s5p4d2f pattern {1111111/11111/1111/11}
 Group   2 Type O   : 7s5p4d2f contracted to 7s5p4d2f pattern {1111111/11111/1111/11}
 Group   3 Type H   : 3s2p1d contracted to 3s2p1d pattern {111/11/1}

Atom   0C    basis set group =>   1
Atom   1C    basis set group =>   1
Atom   2O    basis set group =>   2
Atom   3C    basis set group =>   1
Atom   4C    basis set group =>   1
Atom   5H    basis set group =>   3
Atom   6H    basis set group =>   3
Atom   7H    basis set group =>   3
Atom   8H    basis set group =>   3
Atom   9H    basis set group =>   3
Atom  10H    basis set group =>   3
Atom  11H    basis set group =>   3
Atom  12H    basis set group =>   3
-------------------------------
AUXILIARY BASIS SET INFORMATION
-------------------------------
There are 3 groups of distinct atoms

 Group   1 Type C   : 10s7p5d2f1g contracted to 10s7p5d2f1g pattern {1111111111/1111111/11111/11/1}
 Group   2 Type O   : 10s7p5d2f1g contracted to 10s7p5d2f1g pattern {1111111111/1111111/11111/11/1}
 Group   3 Type H   : 4s3p2d1f contracted to 4s3p2d1f pattern {1111/111/11/1}

Atom   0C    basis set group =>   1
Atom   1C    basis set group =>   1
Atom   2O    basis set group =>   2
Atom   3C    basis set group =>   1
Atom   4C    basis set group =>   1
Atom   5H    basis set group =>   3
Atom   6H    basis set group =>   3
Atom   7H    basis set group =>   3
Atom   8H    basis set group =>   3
Atom   9H    basis set group =>   3
Atom  10H    basis set group =>   3
Atom  11H    basis set group =>   3
Atom  12H    basis set group =>   3

Checking for AutoStart:
The File: 2_butanone_skew.gbw exists
Trying to determine its content:
     ... Fine, the file contains calculation information
     ... Fine, the calculation information was read
     ... Fine, the file contains a basis set
     ... Fine, the basis set was read
     ... Fine, the file contains a geometry
     ... Fine, the geometry was read
     ... Fine, the file contains a set of orbitals
     ... Fine, the orbitals can be read
     => possible old guess file was deleted
     => GBW file was renamed to GES file
     => GES file is set as startup file
     => Guess is set to MORead
     ... now leaving AutoStart



           ************************************************************
           *        Program running with 4 parallel MPI-processes     *
           *              working on a common directory               *
           ************************************************************
------------------------------------------------------------------------------
                           ORCA GTO INTEGRAL CALCULATION
                           -- RI-GTO INTEGRALS CHOSEN --
------------------------------------------------------------------------------

                         BASIS SET STATISTICS AND STARTUP INFO

Gaussian basis set:
 # of primitive gaussian shells          ...  150
 # of primitive gaussian functions       ...  226
 # of contracted shells                  ...   54
 # of contracted basis functions         ...  110
 Highest angular momentum                ...    2
 Maximum contraction depth               ...    8
Auxiliary gaussian basis set:
 # of primitive gaussian shells          ...  205
 # of primitive gaussian functions       ...  635
 # of contracted shells                  ...  205
 # of contracted aux-basis functions     ...  635
 Highest angular momentum                ...    4
 Maximum contraction depth               ...    1
Ratio of auxiliary to basis functions    ...  5.77
Integral package used                  ... LIBINT
 One Electron integrals                  ... done
 Ordering auxiliary basis shells         ... done
 Integral threshhold             Thresh  ...  2.500e-11
 Primitive cut-off               TCut    ...  2.500e-12
 Pre-screening matrix                    ... done
 Shell pair data                         ... 
 Ordering of the shell pairs             ... done (   0.000 sec) 1483 of 1485 pairs
 Determination of significant pairs      ... done (   0.000 sec)
 Creation of shell pair data             ... done (   0.001 sec)
 Storage of shell pair data              ... done (   0.004 sec)
 Shell pair data done in (   0.005 sec)
 Computing two index integrals           ... done
 Cholesky decomposition of the V-matrix  ... done


Timings:
 Total evaluation time                   ...   3.187 sec (  0.053 min)
 One electron matrix time                ...   2.896 sec (  0.048 min) = 90.9%
 Schwartz matrix evaluation time         ...   0.146 sec (  0.002 min) =  4.6%
 Two index repulsion integral time       ...   0.045 sec (  0.001 min) =  1.4%
 Cholesky decomposition of V             ...   0.069 sec (  0.001 min) =  2.2%
 Three index repulsion integral time     ...   0.000 sec (  0.000 min) =  0.0%



           ************************************************************
           *        Program running with 4 parallel MPI-processes     *
           *              working on a common directory               *
           ************************************************************
-------------------------------------------------------------------------------
                                 ORCA SCF
-------------------------------------------------------------------------------

------------
SCF SETTINGS
------------
Hamiltonian:
 Ab initio Hamiltonian  Method          .... Hartree-Fock(GTOs)
 RI-approximation to the Coulomb term is turned on
   Number of auxiliary basis functions  .... 635
   RI-JK (J+K treated both via RI)      .... on


General Settings:
 Integral files         IntName         .... 2_butanone_skew
 Hartree-Fock type      HFTyp           .... RHF
 Total Charge           Charge          ....    0
 Multiplicity           Mult            ....    1
 Number of Electrons    NEL             ....   40
 Basis Dimension        Dim             ....  110
 Nuclear Repulsion      ENuc            ....    175.3640765527 Eh

Convergence Acceleration:
 DIIS                   CNVDIIS         .... off
 Newton-Raphson         CNVNR           .... off
 SOSCF                  CNVSOSCF        .... on
   Start iteration      SOSCFMaxIt      ....   150
   Startup grad/error   SOSCFStart      ....  0.003300
 Level Shifting         CNVShift        .... on
   Level shift para.    LevelShift      ....    0.2000
   Turn off err/grad.   ShiftErr        ....    0.1000
 Zerner damping         CNVZerner       .... off
 Static damping         CNVDamp         .... off
 Fernandez-Rico         CNVRico         .... off

SCF Procedure:
 Maximum # iterations   MaxIter         ....   300
 SCF integral mode      SCFMode         .... Direct
   Integral package                     .... LIBINT
 Reset frequency        DirectResetFreq ....    20
 Integral Threshold     Thresh          ....  2.500e-11 Eh
 Primitive CutOff       TCut            ....  2.500e-12 Eh

Convergence Tolerance:
 Convergence Check Mode ConvCheckMode   .... Total+1el-Energy
 Convergence forced     ConvForced      .... 1
 Energy Change          TolE            ....  1.000e-08 Eh
 1-El. energy change                    ....  1.000e-05 Eh
 Orbital Gradient       TolG            ....  1.000e-05
 Orbital Rotation angle TolX            ....  1.000e-05


Diagonalization of the overlap matrix:
Smallest eigenvalue                        ... 3.909e-03
Time for diagonalization                   ...    0.004 sec
Threshold for overlap eigenvalues          ... 1.000e-08
Number of eigenvalues below threshold      ... 0
Time for construction of square roots      ...    0.014 sec
Total time needed                          ...    0.018 sec

---------------------
INITIAL GUESS: MOREAD
---------------------
Guess MOs are being read from file: 2_butanone_skew.ges
Input Geometry matches current geometry (good)
Atom 0: N(Shells)= 6 and 10 - projection required
Input basis set needs projection
NBasis(read)= 262
NBasis(calc)= 110
Basis set overlap was calculated
Using GuessMode=FMatrix for the initial guess
C*T matrix was formed
Effective Fockian was calculated
Effective Fockian was diagonalized
Initial density was built
                      ------------------
                      INITIAL GUESS DONE (   0.0 sec)
                      ------------------
--------------
SCF ITERATIONS
--------------
ITER       Energy         Delta-E        Max-DP      RMS-DP      [F,P]   Gradient Norm
                             ****Turning on KDIIS(Cayley)****
  0   -231.0112873881   0.000000000000 0.00144458  0.00006817  0.0053342   0.006018281
  1   -231.0113977359  -0.000110347846 0.00297573  0.00013492  0.0048363   0.005423655
  2   -231.0115641070  -0.000166371117 0.00475301  0.00022558  0.0038838   0.004409274
                      *** Initiating the SOSCF procedure ***
                           *** Shutting down KDIIS ***
                      *** Re-Reading the Fockian *** 
                      *** Removing any level shift *** 
ITER      Energy       Delta-E        Grad      Rot      Max-DP    RMS-DP
  3   -231.01177522  -0.0002111164  0.002329  0.002329  0.006893  0.000345
  4   -231.01189895  -0.0001237299  0.000096  0.000154  0.000218  0.000006
  5   -231.01189909  -0.0000001368  0.000034  0.000121  0.000156  0.000006
  6   -231.01189916  -0.0000000658  0.000015  0.000039  0.000055  0.000001
  7   -231.01189916  -0.0000000033  0.000006  0.000006  0.000013  0.000000
                  ***Gradient check signals convergence***
              ***Rediagonalizing the Fockian in SOSCF/NRSCF***

               *****************************************************
               *                     SUCCESS                       *
               *           SCF CONVERGED AFTER   8 CYCLES          *
               *****************************************************


----------------
TOTAL SCF ENERGY
----------------

Total Energy       :         -231.01189916 Eh           -6286.15336 eV

Components:
Nuclear Repulsion  :          175.36407655 Eh            4771.89912 eV
Electronic Energy  :         -406.37597571 Eh          -11058.05248 eV
One Electron Energy:         -660.47049987 Eh          -17972.31600 eV
Two Electron Energy:          254.09452416 Eh            6914.26352 eV

Virial components:
Potential Energy   :         -461.68306822 Eh          -12563.03498 eV
Kinetic Energy     :          230.67116906 Eh            6276.88162 eV
Virial Ratio       :            2.00147712


---------------
SCF CONVERGENCE
---------------

  Last Energy change         ...   -5.0215e-10  Tolerance :   1.0000e-08
  Last MAX-Density change    ...    1.5306e-06  Tolerance :   1.0000e-07
  Last RMS-Density change    ...    7.6669e-08  Tolerance :   5.0000e-09
  Last Orbital Gradient      ...    4.8238e-07  Tolerance :   1.0000e-05
  Last Orbital Rotation      ...    4.8567e-07  Tolerance :   1.0000e-05

             **** THE GBW FILE WAS UPDATED (2_butanone_skew.gbw) ****
             **** DENSITY FILE WAS UPDATED (2_butanone_skew.scfp.tmp) ****
             **** ENERGY FILE WAS UPDATED (2_butanone_skew.en.tmp) ****
----------------
ORBITAL ENERGIES
----------------

  NO   OCC          E(Eh)            E(eV) 
   0   2.0000     -20.543717      -559.0230 
   1   2.0000     -11.331292      -308.3401 
   2   2.0000     -11.243039      -305.9387 
   3   2.0000     -11.241380      -305.8935 
   4   2.0000     -11.240425      -305.8675 
   5   2.0000      -1.377999       -37.4973 
   6   2.0000      -1.066197       -29.0127 
   7   2.0000      -0.991960       -26.9926 
   8   2.0000      -0.886594       -24.1254 
   9   2.0000      -0.732323       -19.9275 
  10   2.0000      -0.646569       -17.5940 
  11   2.0000      -0.643416       -17.5082 
  12   2.0000      -0.609157       -16.5760 
  13   2.0000      -0.586083       -15.9481 
  14   2.0000      -0.557657       -15.1746 
  15   2.0000      -0.539277       -14.6745 
  16   2.0000      -0.524895       -14.2831 
  17   2.0000      -0.502129       -13.6636 
  18   2.0000      -0.474187       -12.9033 
  19   2.0000      -0.402434       -10.9508 
  20   0.0000       0.150022         4.0823 
  21   0.0000       0.174828         4.7573 
  22   0.0000       0.215161         5.8548 
  23   0.0000       0.225682         6.1411 
  24   0.0000       0.240897         6.5551 
  25   0.0000       0.254920         6.9367 
  26   0.0000       0.261656         7.1200 
  27   0.0000       0.278235         7.5712 
  28   0.0000       0.292642         7.9632 
  29   0.0000       0.356328         9.6962 
  30   0.0000       0.375534        10.2188 
  31   0.0000       0.452655        12.3174 
  32   0.0000       0.472727        12.8636 
  33   0.0000       0.584996        15.9186 
  34   0.0000       0.606799        16.5118 
  35   0.0000       0.611530        16.6406 
  36   0.0000       0.650927        17.7126 
  37   0.0000       0.690476        18.7888 
  38   0.0000       0.713339        19.4109 
  39   0.0000       0.746285        20.3074 
  40   0.0000       0.816947        22.2303 
  41   0.0000       0.822348        22.3772 
  42   0.0000       0.848445        23.0874 
  43   0.0000       0.858200        23.3528 
  44   0.0000       0.869301        23.6549 
  45   0.0000       0.873241        23.7621 
  46   0.0000       0.883628        24.0447 
  47   0.0000       0.886993        24.1363 
  48   0.0000       0.893836        24.3225 
  49   0.0000       0.917683        24.9714 
  50   0.0000       0.922176        25.0937 
  51   0.0000       0.939218        25.5574 
  52   0.0000       0.982377        26.7318 
  53   0.0000       1.028396        27.9841 
  54   0.0000       1.102491        30.0003 
  55   0.0000       1.120094        30.4793 
  56   0.0000       1.166637        31.7458 
  57   0.0000       1.296166        35.2705 
  58   0.0000       1.334560        36.3152 
  59   0.0000       1.363577        37.1048 
  60   0.0000       1.380075        37.5537 
  61   0.0000       1.415141        38.5079 
  62   0.0000       1.440254        39.1913 
  63   0.0000       1.541890        41.9570 
  64   0.0000       1.567306        42.6486 
  65   0.0000       1.619830        44.0778 
  66   0.0000       1.656214        45.0679 
  67   0.0000       1.680154        45.7193 
  68   0.0000       1.734454        47.1969 
  69   0.0000       1.766214        48.0611 
  70   0.0000       1.817637        49.4604 
  71   0.0000       1.841488        50.1094 
  72   0.0000       1.870957        50.9113 
  73   0.0000       1.877175        51.0805 
  74   0.0000       1.903890        51.8075 
  75   0.0000       1.915681        52.1283 
  76   0.0000       1.943503        52.8854 
  77   0.0000       1.955159        53.2026 
  78   0.0000       1.960832        53.3569 
  79   0.0000       1.976284        53.7774 
  80   0.0000       1.990251        54.1575 
  81   0.0000       1.999767        54.4164 
  82   0.0000       2.037484        55.4428 
  83   0.0000       2.093479        56.9665 
  84   0.0000       2.103624        57.2425 
  85   0.0000       2.206146        60.0323 
  86   0.0000       2.237490        60.8852 
  87   0.0000       2.275617        61.9227 
  88   0.0000       2.310272        62.8657 
  89   0.0000       2.334875        63.5352 
  90   0.0000       2.389433        65.0198 
  91   0.0000       2.437695        66.3331 
  92   0.0000       2.483717        67.5854 
  93   0.0000       2.522486        68.6403 
  94   0.0000       2.535219        68.9868 
  95   0.0000       2.576292        70.1045 
  96   0.0000       2.696939        73.3874 
  97   0.0000       2.737917        74.5025 
  98   0.0000       2.751584        74.8744 
  99   0.0000       2.778635        75.6105 
 100   0.0000       2.825425        76.8837 
 101   0.0000       2.861359        77.8615 
 102   0.0000       2.864910        77.9582 
 103   0.0000       2.891579        78.6839 
 104   0.0000       3.022346        82.2422 
 105   0.0000       3.108115        84.5761 
 106   0.0000       3.153276        85.8050 
 107   0.0000       3.487622        94.9030 
 108   0.0000       3.712211       101.0144 
 109   0.0000       3.861790       105.0846 

                    ********************************
                    * MULLIKEN POPULATION ANALYSIS *
                    ********************************

-----------------------
MULLIKEN ATOMIC CHARGES
-----------------------
   0 C :   -0.040000
   1 C :    0.124596
   2 O :   -0.340161
   3 C :   -0.076761
   4 C :   -0.072200
   5 H :    0.064065
   6 H :    0.045999
   7 H :    0.062439
   8 H :    0.049177
   9 H :    0.053823
  10 H :    0.046207
  11 H :    0.037227
  12 H :    0.045591
Sum of atomic charges:   -0.0000000

--------------------------------
MULLIKEN REDUCED ORBITAL CHARGES
--------------------------------
  0 C s       :     3.021144  s :     3.021144
      pz      :     1.005758  p :     2.966492
      px      :     1.023027
      py      :     0.937707
      dz2     :     0.010126  d :     0.052363
      dxz     :     0.006846
      dyz     :     0.009798
      dx2y2   :     0.017001
      dxy     :     0.008593
  1 C s       :     3.186437  s :     3.186437
      pz      :     0.688667  p :     2.493577
      px      :     0.882505
      py      :     0.922405
      dz2     :     0.016117  d :     0.195390
      dxz     :     0.025532
      dyz     :     0.028456
      dx2y2   :     0.080927
      dxy     :     0.044359
  2 O s       :     3.767062  s :     3.767062
      pz      :     1.344556  p :     4.552522
      px      :     1.609716
      py      :     1.598249
      dz2     :     0.002737  d :     0.020578
      dxz     :     0.003101
      dyz     :     0.004035
      dx2y2   :     0.003558
      dxy     :     0.007146
  3 C s       :     3.082838  s :     3.082838
      pz      :     0.993254  p :     2.918370
      px      :     0.910195
      py      :     1.014921
      dz2     :     0.019944  d :     0.075553
      dxz     :     0.011680
      dyz     :     0.006902
      dx2y2   :     0.024455
      dxy     :     0.012573
  4 C s       :     3.057386  s :     3.057386
      pz      :     0.991153  p :     2.952894
      px      :     0.975100
      py      :     0.986641
      dz2     :     0.019415  d :     0.061921
      dxz     :     0.009783
      dyz     :     0.005556
      dx2y2   :     0.018028
      dxy     :     0.009138
  5 H s       :     0.904820  s :     0.904820
      pz      :     0.005178  p :     0.031116
      px      :     0.021923
      py      :     0.004015
  6 H s       :     0.922639  s :     0.922639
      pz      :     0.016151  p :     0.031363
      px      :     0.006638
      py      :     0.008574
  7 H s       :     0.905706  s :     0.905706
      pz      :     0.015343  p :     0.031855
      px      :     0.007648
      py      :     0.008864
  8 H s       :     0.920656  s :     0.920656
      pz      :     0.020091  p :     0.030167
      px      :     0.004552
      py      :     0.005525
  9 H s       :     0.916353  s :     0.916353
      pz      :     0.004782  p :     0.029825
      px      :     0.003578
      py      :     0.021464
 10 H s       :     0.923441  s :     0.923441
      pz      :     0.020342  p :     0.030353
      px      :     0.004510
      py      :     0.005500
 11 H s       :     0.932341  s :     0.932341
      pz      :     0.005283  p :     0.030432
      px      :     0.004683
      py      :     0.020466
 12 H s       :     0.923730  s :     0.923730
      pz      :     0.006240  p :     0.030679
      px      :     0.018072
      py      :     0.006367


                     *******************************
                     * LOEWDIN POPULATION ANALYSIS *
                     *******************************

----------------------
LOEWDIN ATOMIC CHARGES
----------------------
   0 C :   -0.063244
   1 C :    0.011975
   2 O :   -0.100523
   3 C :   -0.049968
   4 C :   -0.050321
   5 H :    0.037799
   6 H :    0.031359
   7 H :    0.040284
   8 H :    0.032668
   9 H :    0.033251
  10 H :    0.025938
  11 H :    0.021270
  12 H :    0.029513

-------------------------------
LOEWDIN REDUCED ORBITAL CHARGES
-------------------------------
  0 C s       :     2.802996  s :     2.802996
      pz      :     1.047975  p :     3.113587
      px      :     1.052856
      py      :     1.012756
      dz2     :     0.029028  d :     0.146661
      dxz     :     0.017051
      dyz     :     0.031212
      dx2y2   :     0.045693
      dxy     :     0.023677
  1 C s       :     2.861051  s :     2.861051
      pz      :     0.696455  p :     2.698678
      px      :     0.988250
      py      :     1.013973
      dz2     :     0.034147  d :     0.428297
      dxz     :     0.053519
      dyz     :     0.056786
      dx2y2   :     0.181112
      dxy     :     0.102733
  2 O s       :     3.498216  s :     3.498216
      pz      :     1.329225  p :     4.569976
      px      :     1.618521
      py      :     1.622230
      dz2     :     0.003997  d :     0.032332
      dxz     :     0.004172
      dyz     :     0.005093
      dx2y2   :     0.006353
      dxy     :     0.012716
  3 C s       :     2.801706  s :     2.801706
      pz      :     1.026120  p :     3.056981
      px      :     0.992851
      py      :     1.038010
      dz2     :     0.053681  d :     0.191281
      dxz     :     0.029146
      dyz     :     0.015353
      dx2y2   :     0.061534
      dxy     :     0.031566
  4 C s       :     2.797556  s :     2.797556
      pz      :     1.038275  p :     3.092659
      px      :     1.018543
      py      :     1.035841
      dz2     :     0.051751  d :     0.160106
      dxz     :     0.023449
      dyz     :     0.013602
      dx2y2   :     0.049255
      dxy     :     0.022048
  5 H s       :     0.881778  s :     0.881778
      pz      :     0.015322  p :     0.080422
      px      :     0.050415
      py      :     0.014685
  6 H s       :     0.888856  s :     0.888856
      pz      :     0.037429  p :     0.079785
      px      :     0.018859
      py      :     0.023497
  7 H s       :     0.878993  s :     0.878993
      pz      :     0.035879  p :     0.080723
      px      :     0.020808
      py      :     0.024036
  8 H s       :     0.887624  s :     0.887624
      pz      :     0.045730  p :     0.079708
      px      :     0.016840
      py      :     0.017138
  9 H s       :     0.886864  s :     0.886864
      pz      :     0.015523  p :     0.079884
      px      :     0.014796
      py      :     0.049565
 10 H s       :     0.895285  s :     0.895285
      pz      :     0.046725  p :     0.078777
      px      :     0.015611
      py      :     0.016441
 11 H s       :     0.899601  s :     0.899601
      pz      :     0.016226  p :     0.079128
      px      :     0.015934
      py      :     0.046968
 12 H s       :     0.891695  s :     0.891695
      pz      :     0.018299  p :     0.078792
      px      :     0.042218
      py      :     0.018276


                      *****************************
                      * MAYER POPULATION ANALYSIS *
                      *****************************

  NA   - Mulliken gross atomic population
  ZA   - Total nuclear charge
  QA   - Mulliken gross atomic charge
  VA   - Mayer's total valence
  BVA  - Mayer's bonded valence
  FA   - Mayer's free valence

  ATOM       NA         ZA         QA         VA         BVA        FA
  0 C      6.0400     6.0000    -0.0400     3.8916     3.8916    -0.0000
  1 C      5.8754     6.0000     0.1246     4.1345     4.1345    -0.0000
  2 O      8.3402     8.0000    -0.3402     2.1443     2.1443    -0.0000
  3 C      6.0768     6.0000    -0.0768     3.9466     3.9466    -0.0000
  4 C      6.0722     6.0000    -0.0722     3.9807     3.9807    -0.0000
  5 H      0.9359     1.0000     0.0641     0.9960     0.9960    -0.0000
  6 H      0.9540     1.0000     0.0460     0.9780     0.9780    -0.0000
  7 H      0.9376     1.0000     0.0624     0.9799     0.9799    -0.0000
  8 H      0.9508     1.0000     0.0492     0.9672     0.9672    -0.0000
  9 H      0.9462     1.0000     0.0538     0.9880     0.9880    -0.0000
 10 H      0.9538     1.0000     0.0462     0.9712     0.9712     0.0000
 11 H      0.9628     1.0000     0.0372     0.9756     0.9756     0.0000
 12 H      0.9544     1.0000     0.0456     0.9776     0.9776     0.0000

  Mayer bond orders larger than 0.1
B(  0-C ,  1-C ) :   1.0098 B(  0-C ,  5-H ) :   0.9749 B(  0-C ,  6-H ) :   0.9705 
B(  0-C ,  7-H ) :   0.9626 B(  1-C ,  2-O ) :   2.0934 B(  1-C ,  3-C ) :   1.0053 
B(  3-C ,  4-C ) :   1.0490 B(  3-C ,  8-H ) :   0.9537 B(  3-C ,  9-H ) :   0.9645 
B(  4-C , 10-H ) :   0.9810 B(  4-C , 11-H ) :   0.9793 B(  4-C , 12-H ) :   0.9835 


-------
TIMINGS
-------

Total SCF time: 0 days 0 hours 0 min 27 sec 

Total time                  ....      27.011 sec
Sum of individual times     ....      26.844 sec  ( 99.4%)

Fock matrix formation       ....      26.803 sec  ( 99.2%)
Diagonalization             ....       0.006 sec  (  0.0%)
Density matrix formation    ....       0.001 sec  (  0.0%)
Population analysis         ....       0.004 sec  (  0.0%)
Initial guess               ....       0.025 sec  (  0.1%)
Orbital Transformation      ....       0.000 sec  (  0.0%)
Orbital Orthonormalization  ....       0.000 sec  (  0.0%)
DIIS solution               ....       0.000 sec  (  0.0%)
SOSCF solution              ....       0.005 sec  (  0.0%)


           ************************************************************
           *        Program running with 4 parallel MPI-processes     *
           *              working on a common directory               *
           ************************************************************


------------------------------------------------------------------------------- 
                              ORCA-MATRIX DRIVEN CI                            
------------------------------------------------------------------------------- 


Wavefunction type
-----------------
Correlation treatment                      ...      CCSD     
Single excitations                         ... ON
Orbital optimization                       ... OFF
Calculation of Z vector                    ... OFF
Calculation of Brueckner orbitals          ... OFF
Perturbative triple excitations            ... ON
Calculation of F12 correction              ... OFF
Frozen core treatment                      ... chemical core (10 el)
Reference Wavefunction                     ... RHF
  Internal Orbitals:     5 ...   19 ( 15 MO's/ 30 electrons)
  Virtual  Orbitals:    20 ...  109 ( 90 MO's              )
Number of AO's                             ...    110
Number of electrons                        ...     40
Number of correlated electrons             ...     30

Algorithmic settings
--------------------
Integral transformation                    ... All integrals via the RI transformation
K(C) Formation                             ... RI-DLPNO
   PNO-Integral Storage                    ... ON DISK
   PNO occupation number cut-off           ... 1.000e-07
   Singles PNO occupation number cut-off   ... 3.000e-09
   PNO Mulliken prescreening cut-off       ... 1.000e-03
   Domain cut-off (Mulliken population)    ... 1.000e-03
   PNO Normalization                       ...    1
Maximum number of iterations               ...        50
Convergence tolerance (max. residuum)      ... 1.000e-05
Level shift for amplitude update           ... 2.000e-01
Maximum number of DIIS vectors             ...         7
DIIS turned on at iteration                ...         0
Damping before turning on DIIS             ...     0.500
Damping after turning on DIIS              ...     0.000
Pair specific amplitude update             ... OFF
Natural orbital iterations                 ... OFF
Perturbative natural orbital generation    ... OFF
Printlevel                                 ... 2

Singles Fock matrix elements calculated using PNOs.

Memory handling:
----------------
Maximum memory for working arrays          ...   8000 MB
Data storage in matrix containers          ... UNCOMPRESSED
Data type for integral storage             ... DOUBLE
In-Core Storage of quantities:
   Amplitudes+Sigma Vector      ... NO
   J+K operators                ... NO
   DIIS vectors                 ... NO
   3-external integrals         ... NO
   4-external integrals         ... NO

Localization treatment:
-----------------------
Localization option                        ...    6
Localization threshhold                    ... -1.0e+00
Using relative localization threshhold     ... 1.0e-08
Neglect threshold for strong pairs         ... 1.000e-05 Eh
Prescreening threshold for very weak pairs ... 1.000e-07 Eh

Initializing the integral package          ... done
Localizing the valence orbitals
------------------------------------------------------------------------------
                           ORCA ORBITAL LOCALIZATION
------------------------------------------------------------------------------

Input orbitals are from                  ... 2_butanone_skew.proc0.gbw
Output orbitals are to                   ... 2_butanone_skew.proc0.loc
Max. number of iterations                ... 128
Localizations seeded randomly            ... off
Convergence tolerance                    ... 1.000e-06
Using relative localization threshhold   ... 1.000e-08
Treshold for strong local MOs            ... 9.500e-01
Treshold for bond MOs                    ... 8.500e-01
Operator                                 ... 0
Orbital range for localization           ... 5 to 19
Localization criterion                   ... FOSTER-BOYS (AUGMENTED HESSIAN)
Doing the dipole integrals     ... o.k.
Initial value of the localization sum :   156.643698
ITERATION   0 : L=  163.9141920410 DL=  7.27e+00 (AVERGE_DL)=    0.2631402621 
ITERATION   1 : L=  164.7719978219 DL=  8.58e-01 (AVERGE_DL)=    0.0903857227 
ITERATION   2 : L=  164.8261194489 DL=  5.41e-02 (AVERGE_DL)=    0.0227033933 
ITERATION   3 : L=  164.8284478031 DL=  2.33e-03 (AVERGE_DL)=    0.0047090128 
ITERATION   4 : L=  164.8286824600 DL=  2.35e-04 (AVERGE_DL)=    0.0014949341 
ITERATION   5 : L=  164.8287006977 DL=  1.82e-05 (AVERGE_DL)=    0.0004167639 
ITERATION   6 : L=  164.8287021771 DL=  1.48e-06 (AVERGE_DL)=    0.0001186983 
ITERATION   7 : L=  164.8287022862 DL=  1.09e-07 (AVERGE_DL)=    0.0000322422 
LOCALIZATION SUM CONVERGED

------------------------------------------------------
AUGMENTED HESSIAN OPTIMIZATION OF FOSTER-BOYS ORBITALS
------------------------------------------------------

Spin operator:           0
Orbital window:          5 to 19
Number of iterations:    128
Gradient tolerance:      1.000e-06
Number of pairs:         105
Davidson threshold:      2000
Diagonalization method:  LAPACK
Iter:    0   L: 164.8287022862   Grad. norm: 7.915154e-04
   *** Likely close to a maximum now. ***
       Augmented Hessian eigenvalues:  2.14e-08 -1.63e+00 -2.47e+00 -3.16e+00 ... 
Iter:    1   L: 164.8287022969   Grad. norm: 9.157864e-09
LOCALIZATION HAS CONVERGED.

Eigenvalues of the Hessian:
  0 -1.630e+00
  1 -2.466e+00
  2 -3.164e+00
  3 -5.535e+00
  4 -6.789e+00
  5 -7.304e+00
  6 -1.642e+01
  7 -1.674e+01
  8 -1.714e+01
  9 -1.718e+01
    ...


------------------------------------------------------------------------------- 
                    LOCALIZED MOLECULAR ORBITAL COMPOSITIONS                   
------------------------------------------------------------------------------- 

The Mulliken populations for each LMO on each atom are computed
The LMO`s will be ordered according to atom index and type
  (A) Strongly localized MO`s have populations of >=0.950 on one atom
  (B) Two center bond orbitals have populations of >=0.850 on two atoms
  (C) Other MO`s are considered to be `delocalized`

FOUND  -   2 strongly local MO`s
       -  13 two center bond MO`s
       -   0 significantly delocalized MO`s

Rather strongly localized orbitals:
MO   6:   2O  -   0.957022
MO   5:   2O  -   0.956698
Bond-like localized orbitals:
MO  19:  12H  -   0.492779  and   4C  -   0.518283
MO  18:  11H  -   0.498919  and   4C  -   0.513756
MO  17:  10H  -   0.494902  and   4C  -   0.519269
MO  16:   9H  -   0.483983  and   3C  -   0.523809
MO  15:   8H  -   0.495107  and   3C  -   0.505997
MO  14:   7H  -   0.483201  and   0C  -   0.513581
MO  13:   6H  -   0.492939  and   0C  -   0.511193
MO  12:   5H  -   0.475777  and   0C  -   0.529890
MO  11:   4C  -   0.502992  and   3C  -   0.529254
MO  10:   3C  -   0.514699  and   1C  -   0.544103
MO   9:   2O  -   0.637053  and   1C  -   0.373783
MO   8:   2O  -   0.639163  and   1C  -   0.368246
MO   7:   1C  -   0.543327  and   0C  -   0.505446
Localized MO's were stored in: 2_butanone_skew.proc0.loc

Localizing the core orbitals
------------------------------------------------------------------------------
                           ORCA ORBITAL LOCALIZATION
------------------------------------------------------------------------------

Input orbitals are from                  ... 2_butanone_skew.proc0.loc
Output orbitals are to                   ... 2_butanone_skew.proc0.loc
Max. number of iterations                ... 128
Localizations seeded randomly            ... off
Convergence tolerance                    ... 1.000e-06
Using relative localization threshhold   ... 1.000e-08
Treshold for strong local MOs            ... 9.500e-01
Treshold for bond MOs                    ... 8.500e-01
Operator                                 ... 0
Orbital range for localization           ... 0 to 4
Localization criterion                   ... FOSTER-BOYS (AUGMENTED HESSIAN)
Doing the dipole integrals     ... o.k.
Initial value of the localization sum :    39.920130
ITERATION   0 : L=   39.9201354381 DL=  5.06e-06 (AVERGE_DL)=    0.0007110587 
ITERATION   1 : L=   39.9201354381 DL=  0.00e+00 (AVERGE_DL)=    0.0000000000 
LOCALIZATION SUM CONVERGED

------------------------------------------------------
AUGMENTED HESSIAN OPTIMIZATION OF FOSTER-BOYS ORBITALS
------------------------------------------------------

Spin operator:           0
Orbital window:          0 to 4
Number of iterations:    128
Gradient tolerance:      1.000e-06
Number of pairs:         10
Davidson threshold:      2000
Diagonalization method:  LAPACK
Iter:    0   L: 39.9201354381   Grad. norm: 2.587663e-05
   *** Likely close to a maximum now. ***
       Augmented Hessian eigenvalues:  1.97e-11 -2.13e+01 -3.30e+01 -3.32e+01 ... 
Iter:    1   L: 39.9201354381   Grad. norm: 6.837795e-17
LOCALIZATION HAS CONVERGED.

Eigenvalues of the Hessian:
  0 -2.126e+01
  1 -3.298e+01
  2 -3.317e+01
  3 -3.382e+01
  4 -8.154e+01
  5 -8.192e+01
  6 -9.450e+01
  7 -9.696e+01
  8 -1.399e+02
  9 -1.789e+02


------------------------------------------------------------------------------- 
                    LOCALIZED MOLECULAR ORBITAL COMPOSITIONS                   
------------------------------------------------------------------------------- 

The Mulliken populations for each LMO on each atom are computed
The LMO`s will be ordered according to atom index and type
  (A) Strongly localized MO`s have populations of >=0.950 on one atom
  (B) Two center bond orbitals have populations of >=0.850 on two atoms
  (C) Other MO`s are considered to be `delocalized`

FOUND  -   5 strongly local MO`s
       -   0 two center bond MO`s
       -   0 significantly delocalized MO`s

Rather strongly localized orbitals:
MO   4:   4C  -   0.999565
MO   3:   3C  -   0.999143
MO   2:   2O  -   0.999662
MO   1:   1C  -   0.999845
MO   0:   0C  -   0.999444
Localized MO's were stored in: 2_butanone_skew.proc0.loc

Warning: internal orbitals are localized - no re-canonicalization of internal orbitals

--------------------------
CLOSED-SHELL FOCK OPERATOR
--------------------------

RI-JK section for the Fock operator:
  RHF full Fock operator         ... done
  RHF frozen core Fock operator  ... done
Time needed for Fock operator              ...            0.769 sec
Reference energy                           ...   -231.011899160

--------------
DLPNO SETTINGS (2015 fully linear scaling implementation)
--------------

TCutMKN:           1.000e-03
TCutPAO:           1.000e-03
TCutPNO:           1.000e-07
TCutPNOSingles:    3.000e-09
TCutEN:            9.700e-01
TCutPAOExt:        1.000e-01
TCutPairs:         1.000e-05
TCutPre:           1.000e-07
TCutOSV:           1.000e-06
TCutDOij:          1.000e-05
TCutDO:            5.000e-03
TCutC:             1.000e-04
TCutCPAO:          1.000e-03
TCutCMO:           1.000e-03
TScaleDOMP2PreScr: 2.000e+00
TScaleMKNMP2PreScr:1.000e+01
TScalePNOMP2PreScr:1.000e+00
PAO overlap thresh 1.000e-08
Using PNOs for Singles Fock computation
Use new domains
Use fully linear algorithm
TCutTNO:           1.000e-09
TCutMP2Pairs:      1.000e-06
TCutDOStrong:      2.000e-03
TCutMKNStrong:     1.000e-02
TCutMKNWeak:       1.000e-01
TCutDOWeak:        4.000e-03
NTCutTNO:          1

--------------------------
Calculating differential overlap integrals ... ok
--------------------------
ELECTRON PAIR PRESCREENING
--------------------------

Dipole-based pair screening          .... used

   TCutDOij = 1.000000e-05
   TCutPre  = 1.000000e-07
   .... Finished loop over pairs
Total time spent in the prescreening                  ...     0.000 sec
sum of pair energies estimated for screened out pairs ...       0.000000000000 Eh
Thresholds for map construction and integral transformation for crude MP2:
   TCutMKN                    ...     1.0e-02
   TCutDO                     ...     1.0e-02
   TCutPairs                  ...     1.0e-05
   TCutPNO_CrudeMP2           ...     1.0e-07
   TCutPNOSingles_CrudeMP2    ...     3.0e-09
--------------------------------
LOCAL RI TRANSFORMATION (IAVPAO)
--------------------------------

Orbital window:       5 to 19
Number of PAOs:     110
Basis functions:    110 (54 shells)
Aux. functions:     392 (138 shells)

Processing maps (0.0 sec)
Average map sizes:
   Aux shells -> MOs              15.0
   Aux shells -> PAOs            110.0
   MOs        -> AO shells        53.0
   PAOs       -> AO shells        54.0

Calculating integrals (0.3 sec, 4.939 MB)
Sorting integrals (0.0 sec, 4.935 MB)
Total time for the integral transformation: 0.3 sec
--------------------------------
INITIAL GUESS AND PNO GENERATION
--------------------------------

PNO truncation parameters                   .... 
    PAOOverlapThresh   =        1.000e-08

    TCutPairs          =        1.000e-05
    TCutPNO            =        1.000e-07
    TCutPNOSingles     =        3.000e-09
    TCutMP2Pairs       =        1.000e-06
    TCutMKN            =        1.000e-02
    TCutDO             =        1.000e-02

Pair selection                          .... not used
Type of local MP2 treatment                 .... semi-local MP2
Strategy for PNO selection                  .... occupation number selection
Pair density normalization                  .... MP2 norm
Spin component scaling                      .... not used

   .... Finished loop over pairs
Making pair pair interaction lists          ... done

                       ===========================
                        120 OF  120 PAIRS ARE KEPT CCSD PAIRS
                          0 OF  120 PAIRS ARE KEPT MP2 PAIRS FOR (T)
                          0 OF  120 PAIRS ARE SKIPPED
                       ===========================

Total time spent in the initial guess                 ...     0.180 sec
SL-MP2 correlation energy (all non-screened pairs)    ...      -0.714779228750 Eh

Initial PNO correlation energy                        ...      -0.714545397689 Eh
sum of pair energies prescreened and skipped MP2 pairs...       0.000000000000 Eh
sum of pair energies of crude MP2 skipped pairs only  ...       0.000000000000 Eh
sum of MP2 pair energies for pairs that were not kept ...       0.000000000000 Eh
sum of PNO error estimates for the kept pairs         ...      -0.000233831061 Eh
                                                          --------------------
sum of all corrections                                         -0.000233831061
Initial total correlation energy                               -0.714779228750
Thresholds for map construction and integral transformation for fine MP2 and CCSD(T) calculation:
   TCutMKN   ...     1.0e-03
   TCutDO    ...     5.0e-03
   TCutPairs ...     1.0e-05
   TCutCMO   ...     1.0e-03
   TCutCPAO  ...     1.0e-03

Thresholds for map construction and integral transformation for strong Triples:
   TCutMKN   ...     1.0e-02
   TCutDO    ...     1.0e-02
   TCutCMO   ...     1.0e-03
   TCutCPAO  ...     1.0e-03

Thresholds for map construction and integral transformation for weak Triples:
   TCutMKN   ...     1.0e-01
   TCutDO    ...     2.0e-02
   TCutCMO   ...     1.0e-03
   TCutCPAO  ...     1.0e-03

--------------------------------
LOCAL RI TRANSFORMATION (IAVPAO)
--------------------------------

Orbital window:       5 to 19
Number of PAOs:     110
Basis functions:    110 (54 shells)
Aux. functions:     392 (138 shells)

Processing maps (0.0 sec)
Average map sizes:
   Aux shells -> MOs              15.0
   Aux shells -> PAOs            110.0
   MOs        -> AO shells        53.0
   PAOs       -> AO shells        54.0

Calculating integrals (0.3 sec, 4.939 MB)
Sorting integrals (0.0 sec, 4.935 MB)
Total time for the integral transformation: 0.3 sec
--------------------------------
INITIAL GUESS AND PNO GENERATION
--------------------------------

PNO truncation parameters                   .... 
    ScaleTCutPNO       =        1.000e-02
    PAOOverlapThresh   =        1.000e-08

    TCutPairs          =        1.000e-05
    TCutPNO            =        1.000e-07
    TCutPNOSingles     =        3.000e-09
    TCutMP2Pairs       =        1.000e-06
    TCutMKN            =        1.000e-03
    TCutDO             =        5.000e-03

Pair selection                          .... not used
Type of local MP2 treatment                 .... full local PMP2
Strategy for PNO selection                  .... occupation number selection
Pair density normalization                  .... MP2 norm
Spin component scaling                      .... not used

PASS-1: Formation of initial guess LMP2 amplitudes
Initial amplitudes guess done. Entering LMP2 iteration loop:
   Max. no of iterations          ...  50
   Energy convergence tolerance   ...    1.0e-07
   Residual convergence tolerance ...    5.0e-07
   Fock matrix cutoff             ...    1.0e-05 Eh
   DIIS convergence acceleration parameters:
        Max # vectors in DIIS     ... 7
        Start iteration of DIIS   ... 0
        Levelshift                ... 2.000e-01
        Damping factor 1          ... 5.000e-01
        Damping factor 2          ... 1.000e+00
   L-MP2 PNO cut-off              ...   1.0e-09
   L-MP2 PNO cut-off (core)       ...   1.0e-11
                           *** Turning on DIIS ***
LMP2-Iter=   0:  ELMP2= -0.732870162663  DE=   1.8e-02 RMAX=   2.2e-02
LMP2-Iter=   1:  ELMP2= -0.741955702503  DE=   9.1e-03 RMAX=   1.0e-02
LMP2-Iter=   2:  ELMP2= -0.743688770027  DE=   1.7e-03 RMAX=   4.2e-03
LMP2-Iter=   3:  ELMP2= -0.743928399943  DE=   2.4e-04 RMAX=   1.5e-03
LMP2-Iter=   4:  ELMP2= -0.743922745226  DE=   5.7e-06 RMAX=   3.7e-04
LMP2-Iter=   5:  ELMP2= -0.743916709684  DE=   6.0e-06 RMAX=   7.4e-05
LMP2-Iter=   6:  ELMP2= -0.743915460810  DE=   1.2e-06 RMAX=   9.3e-06
LMP2-Iter=   7:  ELMP2= -0.743915460928  DE=   1.2e-10 RMAX=   1.0e-06
LMP2-Iter=   8:  ELMP2= -0.743915490718  DE=   3.0e-08 RMAX=   1.5e-07
LMP2-Iter=   9:  ELMP2= -0.743915488846  DE=   1.9e-09 RMAX=   2.7e-08 => CONVERGED
PASS-2: Formation of Pair natural orbitals
   .... Finished loop over pairs

 PNO Occupation Number Statistics: 
  | Av. % of trace(Dij) retained        ...  99.731412769439
  | sigma^2 in % of trace(Dij) retained ...   1.86e-01
  | Av. % of trace(Di) retained         ...  99.999898643142
  | sigma^2 in % of trace(Di) retained  ...   1.19e-09
 Distributions of % trace(Dij) recovered:
  |       >= 99.9  ...    65 ( 54.2 % of all pairs)
  |   [90.0, 99.0) ...    10 (  8.3 % of all pairs)
  |   [99.0, 99.9) ...    45 ( 37.5 % of all pairs)
 Distributions of % trace(Di) recovered :
  |       >= 99.9  ...    15 (100.0 % of all I-pairs )

Making pair pair interaction lists          ... done

                       ===========================
                        120 OF  120 PAIRS ARE KEPT
                       ===========================

Total time spent in the initial guess                 ...     1.670 sec
L-MP2 correlation energy (all non-screened pairs)     ...      -0.743915488846 Eh
L-MP2 PNO error correction                            ...      -0.000003008457 Eh
                                                          --------------------
Initial total L-MP2 energy (non-screened pairs)       ...      -0.743918497303 Eh

Initial PNO correlation energy                        ...      -0.743703500776 Eh
sum of pair energies estimated for screened out pairs ...       0.000000000000 Eh
sum of MP2 pair energies for pairs that were not kept ...       0.000000000000 Eh
sum of PNO error estimates for the kept pairs         ...      -0.000214996527 Eh
                                                          --------------------
sum of all corrections                                         -0.000214996527
Initial total correlation energy                               -0.743918497303
Thresholds for map construction and integral transformation for fine MP2 and CCSD(T) calculation:
   TCutMKN   ...     1.0e-03
   TCutDO    ...     5.0e-03
   TCutPairs ...     1.0e-05
   TCutCMO   ...     1.0e-03
   TCutCPAO  ...     1.0e-03

Time for aux screen maps:            0.001
Time for maps after fine MP2:            0.005
-----------------------------
LOCAL RI TRANSFORMATION (IJV)
-----------------------------

Orbital window:       5 to 19
Basis functions:    110 (54 shells)
Aux. functions:     392 (138 shells)

Processing maps (0.0 sec)
Average map sizes:
   Aux shells -> MOs(i)           15.0
   Aux shells -> MOs(j)           15.0
   MOs        -> AO shells        53.0

Calculating integrals (0.3 sec, 0.677 MB)
Sorting integrals (0.0 sec, 0.673 MB)
Total time for the integral transformation: 0.3 sec
--------------------------------
LOCAL RI TRANSFORMATION (VABPAO)
--------------------------------

Number of PAOs:     110
Basis functions:    110 (54 shells)
Aux. functions:     392 (138 shells)

Processing maps (0.0 sec)
Average map sizes:
   Aux shells -> PAOs            110.0
   PAOs       -> AO shells        54.0

Calculating integrals (0.3 sec, 63.983 MB)
Finished


-------------------------------------
Pair Pair Term precalculation with     
RI-(ij|mn) and (im|jn) transformation  
ON THE FLY                             
-------------------------------------

   IBatch   1 (of   1)              ... done (    5.527 sec)
Total EXT                           ...           5.527 sec

---------------------
RI-PNO TRANSFORMATION
---------------------

Total Number of PNOs                   ...  3370
Average number of PNOs per pair        ...    28
Maximal number of PNOs per pair        ...    42
   #pairs with  1 -  5 PNOs   :    0
   #pairs with  6 - 10 PNOs   :    1
   #pairs with 11 - 15 PNOs   :    9
   #pairs with 16 - 20 PNOs   :   13
   #pairs with 21 - 25 PNOs   :   13
   #pairs with 26 - 30 PNOs   :   29
   #pairs with 31 - 35 PNOs   :   33
   #pairs with 36 - 40 PNOs   :   20
   #pairs with 41 - 45 PNOs   :    2
   #pairs with 46 - 50 PNOs   :    0

Generation of (ij|ab)[P] integrals            ... on
Generation of (ia|bc)[P],(ja|bc)[P] integrals ... on
Storage of 3 and 4 external integrals         ... on
Generation of ALL (ka|bc)[P] integrals        ... on
Keep RI integrals in memory                   ... off

Ibatch:  1 (of  1)
Starting 2-4 index PNO integral generation ... done

Timings:
Total PNO integral transformation time     ...          1.815 sec
Size of the 3-external file                ...        25 MB
Size of the 4-external file                ...       106 MB
Size of the IKJL file                      ...         0 MB
Size of the all 3-external file            ...       189 MB
Size of the 1-external file                ...         1 MB

Making pair/pair overlap matrices          ... done (    0.261 sec)
Size of the pair overlap file              ... 60 MB
Redoing the guess amplitudes               ... done (    0.001 sec)

-------------------------
FINAL STARTUP INFORMATION
-------------------------

E(0)                                       ...   -231.011899160
E(L-MP2)                                   ...     -0.743918497
E(L-MP2) including corrections             ...     -0.743918497
Initial E(tot)                             ...   -231.755817657
<T|T>                                      ...      0.219230055
Number of pairs included                   ... 120
Total number of pairs                      ... 120

------------------------------------------------
                  RHF COUPLED CLUSTER ITERATIONS
------------------------------------------------

Number of PNO amplitudes to be optimized   ...       101504
Number of non-PNO amplitudes               ...       972000
Untruncated number of regular amplitudes   ...       972000

Iter       E(tot)           E(Corr)          Delta-E          Residual     Time
  0   -231.726760830     -0.714646673      0.029271824      0.019565019    1.40
                           *** Turning on DIIS ***
  1   -231.777093439     -0.764979283     -0.050332610      0.015621776    1.43
  2   -231.802726780     -0.790612624     -0.025633341      0.008501733    1.37
  3   -231.807280740     -0.795166584     -0.004553960      0.005134127    1.39
  4   -231.808779074     -0.796664917     -0.001498334      0.002574092    1.43
  5   -231.809305866     -0.797191710     -0.000526792      0.000999826    1.40
  6   -231.809430125     -0.797315969     -0.000124259      0.000357234    1.39
  7   -231.809447890     -0.797333733     -0.000017765      0.000143846    1.43
  8   -231.809446239     -0.797332083      0.000001651      0.000057726    1.43
  9   -231.809443998     -0.797329841      0.000002241      0.000020393    1.41
 10   -231.809443807     -0.797329650      0.000000191      0.000006170    1.41
               --- The Coupled-Cluster iterations have converged ---

----------------------
COUPLED CLUSTER ENERGY
----------------------

E(0)                                       ...   -231.011899160
E(CORR)(strong-pairs)                      ...     -0.797329650
E(CORR)(weak-pairs)                        ...     -0.000214997
E(CORR)(corrected)                         ...     -0.797544647
E(TOT)                                     ...   -231.809443807
Singles Norm <S|S>**1/2                    ...      0.067962794  
T1 diagnostic                              ...      0.012408252  

------------------
LARGEST AMPLITUDES
------------------
   9-> 20   9-> 20       0.062078
   8-> 20   8-> 20       0.062015
   9-> 20   8-> 20       0.053394
  17-> 29  17-> 29       0.042608
  14-> 29  14-> 29       0.041963
  12-> 29  12-> 29       0.041469
  16-> 29  16-> 29       0.041273
  19-> 29  19-> 29       0.040627
  13-> 29  13-> 29       0.038774
  18-> 29  18-> 29       0.037672
  18-> 20  18-> 20       0.036092
  16-> 20  16-> 20       0.035711
  15-> 29  15-> 29       0.035623
  17-> 20  17-> 20       0.034840
  19-> 20  19-> 20       0.034691
  12-> 20  12-> 20       0.033937


-------------------------------------------
DLPNO BASED TRIPLES CORRECTION
-------------------------------------------

Singles multiplier          ...  1.000000
TCutTNO                     ... 1.000e-09
TCutMP2Pairs                ... 1.000e-06
TCutDOStrong                ... 1.000e-02
TCutMKNStrong               ... 1.000e-02
TCutDOWeak                  ... 2.000e-02
TCutMKNWeak                 ... 1.000e-01

Fragment selection                          .... not used
Number of Triples that are to be computed   ...       665

 . . . . . . . . .
10% done  
20% done  
30% done  
40% done  
50% done  
60% done  
70% done  
80% done  
90% done               (     11.406 sec)
Triples timings:
Total time for T0               ...    12.190 sec
Total time for Iterative (T)    ...     0.000 sec
Total time of overall (T)       ...    12.190 sec

Triples List generation         ...     0.000 sec
TNO generation                  ...     0.782 sec
Pair density generation         ...     0.001 sec
Look up tables                  ...     0.000 sec
Generating 3-index integrals    ...     5.005 sec
  Make 4-ind.int. from 3-ind.int...     2.685 sec
  Projecting amplitudes (D + S) ...     0.889 sec
  Downprojecting integrals      ...     0.001 sec
  Energy contr. (sum over a,b,c)...     0.852 sec
Fitting ET(->0)                 ...     0.000 sec

Everything after 3-index        ...     6.401 sec

Timing details:
 TNO integrals                  ...     7.347 sec
   Reading 3-index integrals    ...     0.013 sec
   Sorting integrals            ...     1.600 sec
       Sorting integrals 1      ...     0.000 sec
       Sorting integrals 2      ...     0.394 sec
       Sorting integrals 3      ...     0.084 sec
       Sorting integrals 4      ...     0.009 sec
       Sorting integrals 5      ...     0.022 sec
       Sorting integrals 6      ...     1.092 sec
   Calculating local VM**-1/2   ...     0.085 sec
   Orthogonal. integrals        ...     0.165 sec
   Multipl. 3-index integrals   ...     5.484 sec
   All concerning IRIab (w/TNO) ...     1.234 sec

 Calculate W0/W1                ...     1.970 sec
 W 3-ext contribution           ...     1.101 sec
 W 3-int contribution           ...     0.324 sec
 Sorting W                      ...     0.497 sec

 V exchange contribution        ...     0.342 sec

 Timings for Triples without generation
     of 3-index integrals       ...     6.399 sec
       0 weak pairs             ...     6.399 sec
       1 weak pair              ...     0.000 sec
       2 weak pairs             ...     0.000 sec
       3 weak pairs             ...     0.000 sec
  Extra time for extrapolation  ...     0.000 sec

Number of Triples   (0, 1, 2, 3 weak pairs; overall):    665       0       0       0  (   665)
Number of Atoms     (0, 1, 2, 3 weak pairs; overall):   12.7     0.0     0.0     0.0  (    13)
Number of PAOs      (0, 1, 2, 3 weak pairs; overall):  108.6     0.0     0.0     0.0  (   110)
Number of AuxFcns   (0, 1, 2, 3 weak pairs; overall):  220.7     0.0     0.0     0.0  (   392)
Number of TNOs      (0, 1, 2, 3 weak pairs         ):   58.7     0.0     0.0     0.0
Aver. Number of NTNO, Atoms, PAOs, AuxFcns / Triples:    665    58.7    12.7   108.6   220.7

Triples Correction (T)                     ...     -0.023655745
Final correlation energy                   ...     -0.821200392
E(CCSD)                                    ...   -231.809443807
E(CCSD(T))                                 ...   -231.833099552


Maximum memory used throughout the entire calculation: 1867.2 MB


------------------------------------------------------------------------------- 
                                     TIMINGS                                   
------------------------------------------------------------------------------- 


Total execution time                   ...       42.082 sec

Localization of occupied MO's          ...        0.375 sec (  0.9%)
Fock Matrix Formation                  ...        0.769 sec (  1.8%)
Global overlap, Fock, MKN matrices     ...        0.111 sec (  0.3%)
Differential overlap integrals         ...        0.069 sec (  0.2%)
Organizing maps                        ...        0.013 sec (  0.0%)
RI 3-index integral generations        ...        1.226 sec (  2.9%)
RI-PNO integral transformation         ...        8.238 sec ( 19.6%)
Initial Guess                          ...        1.860 sec (  4.4%)
DIIS Solver                            ...        0.346 sec (  0.8%)
State Vector Update                    ...        0.009 sec (  0.0%)
Sigma-vector construction              ...       15.394 sec ( 36.6%)
  <D|H|D>(0-ext)                       ...        0.941 sec (  6.1% of sigma)
  <D|H|D>(2-ext Fock)                  ...        0.008 sec (  0.1% of sigma)
  <D|H|D>(2-ext)                       ...        1.891 sec ( 12.3% of sigma)
  <D|H|D>(4-ext)                       ...        1.427 sec (  9.3% of sigma)
  <D|H|D>(4-ext-corr)                  ...        6.424 sec ( 41.7% of sigma)
  CCSD doubles correction              ...        0.095 sec (  0.6% of sigma)
  <S|H|S>                              ...        0.113 sec (  0.7% of sigma)
  <S|H|D>(1-ext)                       ...        0.139 sec (  0.9% of sigma)
  <D|H|S>(1-ext)                       ...        0.006 sec (  0.0% of sigma)
  <S|H|D>(3-ext)                       ...        0.111 sec (  0.7% of sigma)
  Fock-dressing                        ...        2.439 sec ( 15.8% of sigma)
  Singles amplitudes                   ...        0.112 sec (  0.7% of sigma)
  (ik|jl)-dressing                     ...        0.669 sec (  4.3% of sigma)
  (ij|ab),(ia|jb)-dressing             ...        0.849 sec (  5.5% of sigma)
  Pair energies                        ...        0.003 sec (  0.0% of sigma)
Total Time for computing (T)           ...       12.215 sec ( 29.0% of ALL)


-------------------------   --------------------
FINAL SINGLE POINT ENERGY      -231.833099552057
-------------------------   --------------------


                            ***************************************
                            *     ORCA property calculations      *
                            ***************************************

                                    ---------------------
                                    Active property flags
                                    ---------------------
   (+) Dipole Moment


------------------------------------------------------------------------------
                       ORCA ELECTRIC PROPERTIES CALCULATION
------------------------------------------------------------------------------

Dipole Moment Calculation                       ... on
Quadrupole Moment Calculation                   ... off
Polarizability Calculation                      ... off
GBWName                                         ... 2_butanone_skew.gbw
Electron density file                           ... 2_butanone_skew.scfp.tmp
The origin for moment calculation is the CENTER OF MASS  = (-0.129030, -0.107919 -0.014289)

-------------
DIPOLE MOMENT
-------------
                                X             Y             Z
Electronic contribution:     -4.29164      -3.41880      -0.25988
Nuclear contribution   :      5.16117       4.31670       0.57146
                        -----------------------------------------
Total Dipole Moment    :      0.86954       0.89790       0.31158
                        -----------------------------------------
Magnitude (a.u.)       :      1.28818
Magnitude (Debye)      :      3.27429



--------------------
Rotational spectrum 
--------------------
 
Rotational constants in cm-1:     0.257734     0.126644     0.095795 
Rotational constants in MHz :  7726.667357  3796.677293  2871.858554 

 Dipole components along the rotational axes: 
x,y,z [a.u.] :     0.930205    -0.844508     0.284489 
x,y,z [Debye]:     2.364394    -2.146568     0.723114 

 

Timings for individual modules:

Sum of individual times         ...       72.606 sec (=   1.210 min)
GTO integral calculation        ...        3.290 sec (=   0.055 min)   4.5 %
SCF iterations                  ...       27.103 sec (=   0.452 min)  37.3 %
MDCI module                     ...       42.212 sec (=   0.704 min)  58.1 %
                             ****ORCA TERMINATED NORMALLY****
TOTAL RUN TIME: 0 days 0 hours 1 minutes 12 seconds 835 msec
2_butanone_skew.gbw -> /home1/pantazis/klk/VDZ/Oxygen_compounds/2_butanone_skew.gbw
2_butanone_skew.ges -> /home1/pantazis/klk/VDZ/Oxygen_compounds/2_butanone_skew.ges
2_butanone_skew.job -> /home1/pantazis/klk/VDZ/Oxygen_compounds/2_butanone_skew.job
2_butanone_skew.loc -> /home1/pantazis/klk/VDZ/Oxygen_compounds/2_butanone_skew.loc
2_butanone_skew.nodes -> /home1/pantazis/klk/VDZ/Oxygen_compounds/2_butanone_skew.nodes
2_butanone_skew.prop -> /home1/pantazis/klk/VDZ/Oxygen_compounds/2_butanone_skew.prop
2_butanone_skew_property.txt -> /home1/pantazis/klk/VDZ/Oxygen_compounds/2_butanone_skew_property.txt
2_butanone_skew.xyz -> /home1/pantazis/klk/VDZ/Oxygen_compounds/2_butanone_skew.xyz
cp: cannot stat 2_butanone_skew.asa.inp: No such file or directory
