! Job execution by suborca V 6.07 on ZEUS !
Job started from zeus1, running /scratch/pantazis/2_keto_cyclodecanone__bp4OQF/orca/orca copied from /opt/orca on zeussn149 in /scratch/pantazis/2_keto_cyclodecanone__bp4OQF
Job execution start: Sat Jun 29 11:39:06 CEST 2019
Shared library path: /scratch/pantazis/2_keto_cyclodecanone__bp4OQF/orca:/opt/openmpi_1.10.2/lib:/opt/intel/mkl/lib/intel64:/opt/intel/lib/intel64:
PBS Job ID is: 158883.icqc
izeussn149
izeussn149
izeussn149
izeussn149

                                 *****************
                                 * O   R   C   A *
                                 *****************

           --- An Ab Initio, DFT and Semiempirical electronic structure package ---

                  #######################################################
                  #                        -***-                        #
                  #          Department of theory and spectroscopy      #
                  #               Directorship: Frank Neese             #
                  #        Max Planck Institute fuer Kohlenforschung    #
                  #                Kaiser Wilhelm Platz 1               #
                  #                 D-45470 Muelheim/Ruhr               #
                  #                      Germany                        #
                  #                                                     #
                  #                  All rights reserved                #
                  #                        -***-                        #
                  #######################################################


                         Program Version 4.1.x  -  STABLE  -
                                (SVN: $Rev: 14094$)
                ($Date: 2019-06-14 15:01:15 +0200 (Fri, 14 Jun 2019) $)

                         (BUILD: $Sun Jun 23 06:18:31 CEST 2019$)


 With contributions from (in alphabetic order):
   Daniel Aravena         : Magnetic Properties
   Michael Atanasov       : Ab Initio Ligand Field Theory
   Alexander A. Auer      : GIAO ZORA
   Ute Becker             : Parallelization
   Giovanni Bistoni       : ED, Open-shell LED
   Martin Brehm           : Molecular dynamics
   Dmytro Bykov           : SCF Hessian
   Vijay G. Chilkuri      : MRCI spin determinant printing
   Dipayan Datta          : RHF DLPNO-CCSD density
   Achintya Kumar Dutta   : EOM-CC, STEOM-CC
   Dmitry Ganyushin       : Spin-Orbit,Spin-Spin,Magnetic field MRCI
   Miquel Garcia          : C-PCM Hessian
   Yang Guo               : DLPNO-NEVPT2, CIM, IAO-localization
   Andreas Hansen         : Spin unrestricted coupled pair/coupled cluster methods
   Benjamin Helmich-Paris : CASSCF linear response (MC-RPA)
   Lee Huntington         : MR-EOM, pCC
   Robert Izsak           : Overlap fitted RIJCOSX, COSX-SCS-MP3, EOM
   Christian Kollmar      : KDIIS, OOCD, Brueckner-CCSD(T), CCSD density
   Simone Kossmann        : Meta GGA functionals, TD-DFT gradient, OOMP2, MP2 Hessian
   Martin Krupicka        : AUTO-CI
   Lucas Lang             : DCDCAS
   Dagmar Lenk            : GEPOL surface, SMD
   Dimitrios Liakos       : Extrapolation schemes; parallel MDCI
   Dimitrios Manganas     : ROCIS; embedding schemes
   Dimitrios Pantazis     : SARC Basis sets
   Taras Petrenko         : DFT Hessian,TD-DFT gradient, ASA, ECA, R-Raman, ABS, FL, XAS/XES, NRVS
   Peter Pinski           : DLPNO-MP2, DLPNO-MP2 Gradient
   Christoph Reimann      : Effective Core Potentials
   Marius Retegan         : Local ZFS, SOC
   Christoph Riplinger    : Optimizer, TS searches, QM/MM, DLPNO-CCSD(T), (RO)-DLPNO pert. Triples
   Tobias Risthaus        : Range-separated hybrids, TD-DFT gradient, RPA, STAB
   Michael Roemelt        : Restricted open shell CIS
   Masaaki Saitow         : Open-shell DLPNO
   Barbara Sandhoefer     : DKH picture change effects
   Avijit Sen             : IP-ROCIS
   Kantharuban Sivalingam : CASSCF convergence, NEVPT2, FIC-MRCI
   Bernardo de Souza      : ESD, SOC TD-DFT
   Georgi Stoychev        : AutoAux, RI-MP2 NMR
   Willem Van den Heuvel  : Paramagnetic NMR
   Boris Wezisla          : Elementary symmetry handling
   Frank Wennmohs         : Technical directorship


 We gratefully acknowledge several colleagues who have allowed us to
 interface, adapt or use parts of their codes:
   Stefan Grimme, W. Hujo, H. Kruse,             : VdW corrections, initial TS optimization,
                  C. Bannwarth                     DFT functionals, gCP, sTDA/sTD-DF
   Ed Valeev                                     : LibInt (2-el integral package), F12 methods
   Garnet Chan, S. Sharma, J. Yang, R. Olivares  : DMRG
   Ulf Ekstrom                                   : XCFun DFT Library
   Mihaly Kallay                                 : mrcc  (arbitrary order and MRCC methods)
   Andreas Klamt, Michael Diedenhofen            : otool_cosmo (COSMO solvation model)
   Jiri Pittner, Ondrej Demel                    : Mk-CCSD
   Frank Weinhold                                : gennbo (NPA and NBO analysis)
   Christopher J. Cramer and Donald G. Truhlar   : smd solvation model
   Lars Goerigk                                  : TD-DFT with DH, B97 family of functionals
   V. Asgeirsson, H. Jonsson                     : NEB implementation
   FAccTs GmbH                                   : IRC, NEB, NEB-TS, Multilevel


 Your calculation uses the libint2 library for the computation of 2-el integrals
 For citations please refer to: http://libint.valeyev.net

 This ORCA versions uses:
   CBLAS   interface :  Fast vector & matrix operations
   LAPACKE interface :  Fast linear algebra routines
   SCALAPACK package :  Parallel linear algebra routines




***************************************
The coordinates will be read from file: 2_keto_cyclodecanone.xyz
***************************************


----- Orbital basis set information -----
Your calculation utilizes the basis: cc-pVDZ 
       H, B-Ne : Obtained from the ccRepo (grant-hill.group.shef.ac.uk/ccrepo) Feb. 2017
                 T. H. Dunning, Jr., J. Chem. Phys. 90, 1007 (1989)
            He : Obtained from the ccRepo (grant-hill.group.shef.ac.uk/ccrepo) Feb. 2017
                 D. E. Woon, T. H. Dunning, Jr., J. Chem. Phys. 100, 2975 (1994)
  Li-Be, Na-Mg : Obtained from the ccRepo (grant-hill.group.shef.ac.uk/ccrepo) Feb. 2017
                 B. P. Prascher, D. E. Woon, K. A. Peterson, T. H. Dunning, Jr., A. K. Wilson, Theor. Chem. Acc. 128, 69 (2011)
         Al-Ar : Obtained from the ccRepo (grant-hill.group.shef.ac.uk/ccrepo) Feb. 2017
                 D. E. Woon, T. H. Dunning, Jr., J. Chem. Phys. 98, 1358 (1993)
            Ca : Obtained from the Peterson Research Group Website (tyr0.chem.wsu.edu/~kipeters) Feb. 2017
                 J. Koput, K. A. Peterson, J. Phys. Chem. 106, 9595 (2002)
         Sc-Zn : Obtained from the ccRepo (grant-hill.group.shef.ac.uk/ccrepo) Feb. 2017
                 N. B. Balabanov, K. A. Peterson, J. Chem. Phys. 123, 064107 (2005)
                 N. B. Balabanov, K. A. Peterson, J. Chem. Phys. 125, 074110 (2006)
         Ga-Kr : Obtained from the ccRepo (grant-hill.group.shef.ac.uk/ccrepo) Feb. 2017
                 A. K. Wilson, D. E. Woon, K. A. Peterson, T. H. Dunning, Jr., J. Chem. Phys. 110, 7667 (1999)

----- AuxC basis set information -----
Your calculation utilizes the auxiliary basis: cc-pVDZ/C 
  H-He, B, Ne, Al-Ar, Ga-Br : Obtained from the EMSL Basis Set Exchange (bse.pnl.gov) Feb. 2017
                              F. Weigend, A. Kohn, C. Hattig, J. Chem. Phys. 116, 3175 (2002)
               Li-Be, Na-Mg : Obtained from the EMSL Basis Set Exchange (bse.pnl.gov) Feb. 2017
                              C. Haettig, Phys. Chem. Chem. Phys. 7, 59 (2005)
                        C-F : Obtained from the EMSL Basis Set Exchange (bse.pnl.gov) Feb. 2017
                              C. Haettig, Phys. Chem. Chem. Phys. 7, 59 (2005)
                              F. Weigend, A. Kohn, C. Hattig, J. Chem. Phys. 116, 3175 (2002)
                         Kr : Obtained from the TURBOMOLE 7.0 basis set library
                              F. Weigend, A. Kohn, C. Hattig, J. Chem. Phys. 116, 3175 (2002)
                              S function revised in Sep. 2009

----- AuxJK basis set information -----
Your calculation utilizes the auxiliary basis: cc-pVTZ/JK 
  H, B-F, Al-Cl, Ga-Br : Obtained from the TURBOMOLE 7.0 basis set library

================================================================================
                                        WARNINGS
                       Please study these warnings very carefully!
================================================================================


WARNING: MDCI localization with Augmented Hessian Foster-Boys
  ===> : Switching off randomization!

WARNING: Post HF methods need fully converged wavefunctions
  ===> : Setting SCFConvForced true
         You can overwrite this default with %scf ConvForced false 


INFO   : the flag for use of LIBINT has been found!

================================================================================
                                       INPUT FILE
================================================================================
NAME = 2_keto_cyclodecanone.inp
|  1> ! RHF DLPNO-CCSD(T) cc-pVDZ RIJK cc-pVTZ/JK cc-pVDZ/C
|  2> ! KDIIS SOSCF TightSCF TightPNO
|  3> 
|  4> %pal nprocs 4 end
|  5> 
|  6> %maxcore 8000
|  7> 
|  8> %scf maxiter 300
|  9>      shift shift 0.2 erroff 0.1 end
| 10> end
| 11> 
| 12> * xyzfile 0 1 2_keto_cyclodecanone.xyz 
| 13> 
| 14> 
| 15>                          ****END OF INPUT****
================================================================================

                       ****************************
                       * Single Point Calculation *
                       ****************************

---------------------------------
CARTESIAN COORDINATES (ANGSTROEM)
---------------------------------
  C      2.517710    0.769740    0.000420
  C      2.303800   -0.615280   -0.650190
  C      1.742380   -1.761790    0.218230
  C      0.290400   -1.639230    0.731110
  C     -0.781930   -1.457530   -0.367670
  C     -1.994560   -0.576020   -0.056230
  O     -3.094630   -0.896950   -0.481710
  C      1.273480    1.548140    0.481760
  C      0.190100    1.785520   -0.591980
  C     -1.247440    1.927330   -0.055450
  C     -1.839550    0.726180    0.731150
  H      3.201340    0.656160    0.853370
  H      3.054450    1.390700   -0.730770
  H      1.608780    2.518390    0.871300
  H      0.841830    1.031580    1.343540
  H      3.284840   -0.947530   -1.014600
  H      1.695660   -0.507140   -1.556680
  H      0.212860    0.983300   -1.335160
  H      0.433040    2.697550   -1.152540
  H      2.397410   -1.898590    1.089900
  H      1.827260   -2.687780   -0.367500
  H      0.239380   -0.823390    1.453540
  H      0.053250   -2.544990    1.302500
  H     -1.917080    2.149090   -0.895560
  H     -1.297960    2.797090    0.613030
  H     -1.179720   -2.422070   -0.697070
  H     -0.328680   -1.005130   -1.259180
  H     -2.848570    0.997830    1.054120
  H     -1.247360    0.548220    1.634560

----------------------------
CARTESIAN COORDINATES (A.U.)
----------------------------
  NO LB      ZA    FRAG     MASS         X           Y           Z
   0 C     6.0000    0    12.011    4.757782    1.454598    0.000794
   1 C     6.0000    0    12.011    4.353551   -1.162711   -1.228681
   2 C     6.0000    0    12.011    3.292621   -3.329301    0.412395
   3 C     6.0000    0    12.011    0.548776   -3.097696    1.381598
   4 C     6.0000    0    12.011   -1.477634   -2.754333   -0.694796
   5 C     6.0000    0    12.011   -3.769172   -1.088520   -0.106259
   6 O     8.0000    0    15.999   -5.848003   -1.694990   -0.910300
   7 C     6.0000    0    12.011    2.406528    2.925561    0.910394
   8 C     6.0000    0    12.011    0.359237    3.374144   -1.118680
   9 C     6.0000    0    12.011   -2.357320    3.642126   -0.104785
  10 C     6.0000    0    12.011   -3.476246    1.372281    1.381673
  11 H     1.0000    0     1.008    6.049656    1.239963    1.612636
  12 H     1.0000    0     1.008    5.772074    2.628042   -1.380955
  13 H     1.0000    0     1.008    3.040154    4.759067    1.646518
  14 H     1.0000    0     1.008    1.590828    1.949404    2.538923
  15 H     1.0000    0     1.008    6.207448   -1.790572   -1.917316
  16 H     1.0000    0     1.008    3.204333   -0.958356   -2.941699
  17 H     1.0000    0     1.008    0.402247    1.858168   -2.523087
  18 H     1.0000    0     1.008    0.818327    5.097631   -2.177985
  19 H     1.0000    0     1.008    4.530448   -3.587815    2.059613
  20 H     1.0000    0     1.008    3.453021   -5.079168   -0.694474
  21 H     1.0000    0     1.008    0.452363   -1.555982    2.746793
  22 H     1.0000    0     1.008    0.100628   -4.809334    2.461368
  23 H     1.0000    0     1.008   -3.622756    4.061192   -1.692363
  24 H     1.0000    0     1.008   -2.452789    5.285734    1.158459
  25 H     1.0000    0     1.008   -2.229348   -4.577049   -1.317271
  26 H     1.0000    0     1.008   -0.621115   -1.899420   -2.379505
  27 H     1.0000    0     1.008   -5.383017    1.885625    1.991998
  28 H     1.0000    0     1.008   -2.357169    1.035986    3.088871

--------------------------------
INTERNAL COORDINATES (ANGSTROEM)
--------------------------------
 C      0   0   0     0.000000000000     0.00000000     0.00000000
 C      1   0   0     1.545099110284     0.00000000     0.00000000
 C      2   1   0     1.543965962352   118.62932810     0.00000000
 C      3   2   1     1.544769487140   118.00887942    66.75785330
 C      4   3   2     1.546034930815   115.16961081    57.05635982
 C      5   4   3     1.531184597167   118.19047141   214.59185714
 O      6   5   4     1.222367907056   119.39132542   217.54375470
 C      1   2   3     1.544572124732   118.12812009   294.40698877
 C      8   1   2     1.543690084311   115.21895284   304.60288830
 C      9   8   1     1.540939897790   115.25739860   152.32275748
 C      6   5   4     1.529614397324   120.96781748    39.97392884
 H      1   2   3     1.098987759622   108.68031007    58.00596477
 H      1   2   3     1.099236082605   107.09047139   171.78007164
 H      8   1   2     1.097976577209   108.05294866   182.48995161
 H      8   1   2     1.093535881670   108.99610687    68.93597026
 H      2   1   3     1.098009194952   106.69614989   239.67310613
 H      2   1   3     1.096928730274   109.65519910   127.01133060
 H      9   8   1     1.093796808553   110.19505170    28.63668001
 H      9   8   1     1.097745907804   109.12505946   273.91145105
 H      3   2   1     1.098902693508   108.77479124   303.53919468
 H      3   2   1     1.098973033063   107.32705753   189.53407933
 H      4   3   2     1.090918443744   108.85393420   292.34242975
 H      4   3   2     1.096871839460   108.09882875   178.55223221
 H     10   9   8     1.096986799966   108.74926841   176.75921163
 H     10   9   8     1.098134890803   109.13296043    61.38658063
 H      5   4   3     1.094110897350   111.25607747    91.19888280
 H      5   4   3     1.097675454130   109.83185011   334.64366974
 H     11   6   5     1.093720578484   105.66186446   195.71324214
 H     11   6   5     1.094764077690   109.95075130   311.08681360

---------------------------
INTERNAL COORDINATES (A.U.)
---------------------------
 C      0   0   0     0.000000000000     0.00000000     0.00000000
 C      1   0   0     2.919814168202     0.00000000     0.00000000
 C      2   1   0     2.917672828941   118.62932810     0.00000000
 C      3   2   1     2.919191270733   118.00887942    66.75785330
 C      4   3   2     2.921582612716   115.16961081    57.05635982
 C      5   4   3     2.893519549123   118.19047141   214.59185714
 O      6   5   4     2.309940579230   119.39132542   217.54375470
 C      1   2   3     2.918818309833   118.12812009   294.40698877
 C      8   1   2     2.917151494998   115.21895284   304.60288830
 C      9   8   1     2.911954395655   115.25739860   152.32275748
 C      6   5   4     2.890552301445   120.96781748    39.97392884
 H      1   2   3     2.076785890218   108.68031007    58.00596477
 H      1   2   3     2.077255152647   107.09047139   171.78007164
 H      8   1   2     2.074875032386   108.05294866   182.48995161
 H      8   1   2     2.066483333973   108.99610687    68.93597026
 H      2   1   3     2.074936670987   106.69614989   239.67310613
 H      2   1   3     2.072894888647   109.65519910   127.01133060
 H      9   8   1     2.066976414322   110.19505170    28.63668001
 H      9   8   1     2.074439130382   109.12505946   273.91145105
 H      3   2   1     2.076625138559   108.77479124   303.53919468
 H      3   2   1     2.076758061054   107.32705753   189.53407933
 H      4   3   2     2.061537093119   108.85393420   292.34242975
 H      4   3   2     2.072787380590   108.09882875   178.55223221
 H     10   9   8     2.073004624463   108.74926841   176.75921163
 H     10   9   8     2.075174201722   109.13296043    61.38658063
 H      5   4   3     2.067569956130   111.25607747    91.19888280
 H      5   4   3     2.074305992234   109.83185011   334.64366974
 H     11   6   5     2.066832360369   105.66186446   195.71324214
 H     11   6   5     2.068804288089   109.95075130   311.08681360

---------------------
BASIS SET INFORMATION
---------------------
There are 3 groups of distinct atoms

 Group   1 Type C   : 17s4p1d contracted to 3s2p1d pattern {881/31/1}
 Group   2 Type O   : 17s4p1d contracted to 3s2p1d pattern {881/31/1}
 Group   3 Type H   : 4s1p contracted to 2s1p pattern {31/1}

Atom   0C    basis set group =>   1
Atom   1C    basis set group =>   1
Atom   2C    basis set group =>   1
Atom   3C    basis set group =>   1
Atom   4C    basis set group =>   1
Atom   5C    basis set group =>   1
Atom   6O    basis set group =>   2
Atom   7C    basis set group =>   1
Atom   8C    basis set group =>   1
Atom   9C    basis set group =>   1
Atom  10C    basis set group =>   1
Atom  11H    basis set group =>   3
Atom  12H    basis set group =>   3
Atom  13H    basis set group =>   3
Atom  14H    basis set group =>   3
Atom  15H    basis set group =>   3
Atom  16H    basis set group =>   3
Atom  17H    basis set group =>   3
Atom  18H    basis set group =>   3
Atom  19H    basis set group =>   3
Atom  20H    basis set group =>   3
Atom  21H    basis set group =>   3
Atom  22H    basis set group =>   3
Atom  23H    basis set group =>   3
Atom  24H    basis set group =>   3
Atom  25H    basis set group =>   3
Atom  26H    basis set group =>   3
Atom  27H    basis set group =>   3
Atom  28H    basis set group =>   3
-------------------------------
AUXILIARY BASIS SET INFORMATION
-------------------------------
There are 3 groups of distinct atoms

 Group   1 Type C   : 7s5p4d2f contracted to 7s5p4d2f pattern {1111111/11111/1111/11}
 Group   2 Type O   : 7s5p4d2f contracted to 7s5p4d2f pattern {1111111/11111/1111/11}
 Group   3 Type H   : 3s2p1d contracted to 3s2p1d pattern {111/11/1}

Atom   0C    basis set group =>   1
Atom   1C    basis set group =>   1
Atom   2C    basis set group =>   1
Atom   3C    basis set group =>   1
Atom   4C    basis set group =>   1
Atom   5C    basis set group =>   1
Atom   6O    basis set group =>   2
Atom   7C    basis set group =>   1
Atom   8C    basis set group =>   1
Atom   9C    basis set group =>   1
Atom  10C    basis set group =>   1
Atom  11H    basis set group =>   3
Atom  12H    basis set group =>   3
Atom  13H    basis set group =>   3
Atom  14H    basis set group =>   3
Atom  15H    basis set group =>   3
Atom  16H    basis set group =>   3
Atom  17H    basis set group =>   3
Atom  18H    basis set group =>   3
Atom  19H    basis set group =>   3
Atom  20H    basis set group =>   3
Atom  21H    basis set group =>   3
Atom  22H    basis set group =>   3
Atom  23H    basis set group =>   3
Atom  24H    basis set group =>   3
Atom  25H    basis set group =>   3
Atom  26H    basis set group =>   3
Atom  27H    basis set group =>   3
Atom  28H    basis set group =>   3
-------------------------------
AUXILIARY BASIS SET INFORMATION
-------------------------------
There are 3 groups of distinct atoms

 Group   1 Type C   : 10s7p5d2f1g contracted to 10s7p5d2f1g pattern {1111111111/1111111/11111/11/1}
 Group   2 Type O   : 10s7p5d2f1g contracted to 10s7p5d2f1g pattern {1111111111/1111111/11111/11/1}
 Group   3 Type H   : 4s3p2d1f contracted to 4s3p2d1f pattern {1111/111/11/1}

Atom   0C    basis set group =>   1
Atom   1C    basis set group =>   1
Atom   2C    basis set group =>   1
Atom   3C    basis set group =>   1
Atom   4C    basis set group =>   1
Atom   5C    basis set group =>   1
Atom   6O    basis set group =>   2
Atom   7C    basis set group =>   1
Atom   8C    basis set group =>   1
Atom   9C    basis set group =>   1
Atom  10C    basis set group =>   1
Atom  11H    basis set group =>   3
Atom  12H    basis set group =>   3
Atom  13H    basis set group =>   3
Atom  14H    basis set group =>   3
Atom  15H    basis set group =>   3
Atom  16H    basis set group =>   3
Atom  17H    basis set group =>   3
Atom  18H    basis set group =>   3
Atom  19H    basis set group =>   3
Atom  20H    basis set group =>   3
Atom  21H    basis set group =>   3
Atom  22H    basis set group =>   3
Atom  23H    basis set group =>   3
Atom  24H    basis set group =>   3
Atom  25H    basis set group =>   3
Atom  26H    basis set group =>   3
Atom  27H    basis set group =>   3
Atom  28H    basis set group =>   3

Checking for AutoStart:
The File: 2_keto_cyclodecanone.gbw exists
Trying to determine its content:
     ... Fine, the file contains calculation information
     ... Fine, the calculation information was read
     ... Fine, the file contains a basis set
     ... Fine, the basis set was read
     ... Fine, the file contains a geometry
     ... Fine, the geometry was read
     ... Fine, the file contains a set of orbitals
     ... Fine, the orbitals can be read
     => possible old guess file was deleted
     => GBW file was renamed to GES file
     => GES file is set as startup file
     => Guess is set to MORead
     ... now leaving AutoStart



           ************************************************************
           *        Program running with 4 parallel MPI-processes     *
           *              working on a common directory               *
           ************************************************************
------------------------------------------------------------------------------
                           ORCA GTO INTEGRAL CALCULATION
                           -- RI-GTO INTEGRALS CHOSEN --
------------------------------------------------------------------------------

                         BASIS SET STATISTICS AND STARTUP INFO

Gaussian basis set:
 # of primitive gaussian shells          ...  332
 # of primitive gaussian functions       ...  500
 # of contracted shells                  ...  120
 # of contracted basis functions         ...  244
 Highest angular momentum                ...    2
 Maximum contraction depth               ...    8
Auxiliary gaussian basis set:
 # of primitive gaussian shells          ...  455
 # of primitive gaussian functions       ... 1409
 # of contracted shells                  ...  455
 # of contracted aux-basis functions     ... 1409
 Highest angular momentum                ...    4
 Maximum contraction depth               ...    1
Ratio of auxiliary to basis functions    ...  5.77
Integral package used                  ... LIBINT
 One Electron integrals                  ... done
 Ordering auxiliary basis shells         ... done
 Integral threshhold             Thresh  ...  2.500e-11
 Primitive cut-off               TCut    ...  2.500e-12
 Pre-screening matrix                    ... done
 Shell pair data                         ... 
 Ordering of the shell pairs             ... done (   0.001 sec) 6964 of 7260 pairs
 Determination of significant pairs      ... done (   0.000 sec)
 Creation of shell pair data             ... done (   0.003 sec)
 Storage of shell pair data              ... done (   0.004 sec)
 Shell pair data done in (   0.008 sec)
 Computing two index integrals           ... done
 Cholesky decomposition of the V-matrix  ... done


Timings:
 Total evaluation time                   ...   3.481 sec (  0.058 min)
 One electron matrix time                ...   2.899 sec (  0.048 min) = 83.3%
 Schwartz matrix evaluation time         ...   0.245 sec (  0.004 min) =  7.0%
 Two index repulsion integral time       ...   0.121 sec (  0.002 min) =  3.5%
 Cholesky decomposition of V             ...   0.182 sec (  0.003 min) =  5.2%
 Three index repulsion integral time     ...   0.000 sec (  0.000 min) =  0.0%



           ************************************************************
           *        Program running with 4 parallel MPI-processes     *
           *              working on a common directory               *
           ************************************************************
-------------------------------------------------------------------------------
                                 ORCA SCF
-------------------------------------------------------------------------------

------------
SCF SETTINGS
------------
Hamiltonian:
 Ab initio Hamiltonian  Method          .... Hartree-Fock(GTOs)
 RI-approximation to the Coulomb term is turned on
   Number of auxiliary basis functions  .... 1409
   RI-JK (J+K treated both via RI)      .... on


General Settings:
 Integral files         IntName         .... 2_keto_cyclodecanone
 Hartree-Fock type      HFTyp           .... RHF
 Total Charge           Charge          ....    0
 Multiplicity           Mult            ....    1
 Number of Electrons    NEL             ....   86
 Basis Dimension        Dim             ....  244
 Nuclear Repulsion      ENuc            ....    659.0127087831 Eh

Convergence Acceleration:
 DIIS                   CNVDIIS         .... off
 Newton-Raphson         CNVNR           .... off
 SOSCF                  CNVSOSCF        .... on
   Start iteration      SOSCFMaxIt      ....   150
   Startup grad/error   SOSCFStart      ....  0.003300
 Level Shifting         CNVShift        .... on
   Level shift para.    LevelShift      ....    0.2000
   Turn off err/grad.   ShiftErr        ....    0.1000
 Zerner damping         CNVZerner       .... off
 Static damping         CNVDamp         .... off
 Fernandez-Rico         CNVRico         .... off

SCF Procedure:
 Maximum # iterations   MaxIter         ....   300
 SCF integral mode      SCFMode         .... Direct
   Integral package                     .... LIBINT
 Reset frequency        DirectResetFreq ....    20
 Integral Threshold     Thresh          ....  2.500e-11 Eh
 Primitive CutOff       TCut            ....  2.500e-12 Eh

Convergence Tolerance:
 Convergence Check Mode ConvCheckMode   .... Total+1el-Energy
 Convergence forced     ConvForced      .... 1
 Energy Change          TolE            ....  1.000e-08 Eh
 1-El. energy change                    ....  1.000e-05 Eh
 Orbital Gradient       TolG            ....  1.000e-05
 Orbital Rotation angle TolX            ....  1.000e-05


Diagonalization of the overlap matrix:
Smallest eigenvalue                        ... 2.358e-03
Time for diagonalization                   ...    0.013 sec
Threshold for overlap eigenvalues          ... 1.000e-08
Number of eigenvalues below threshold      ... 0
Time for construction of square roots      ...    0.024 sec
Total time needed                          ...    0.037 sec

---------------------
INITIAL GUESS: MOREAD
---------------------
Guess MOs are being read from file: 2_keto_cyclodecanone.ges
Input Geometry matches current geometry (good)
Atom 0: N(Shells)= 6 and 10 - projection required
Input basis set needs projection
NBasis(read)= 582
NBasis(calc)= 244
Basis set overlap was calculated
Using GuessMode=FMatrix for the initial guess
C*T matrix was formed
Effective Fockian was calculated
Effective Fockian was diagonalized
Initial density was built
                      ------------------
                      INITIAL GUESS DONE (   0.1 sec)
                      ------------------
--------------
SCF ITERATIONS
--------------
ITER       Energy         Delta-E        Max-DP      RMS-DP      [F,P]   Gradient Norm
                             ****Turning on KDIIS(Cayley)****
                      *** Initiating the SOSCF procedure ***
                           *** Shutting down KDIIS ***
                      *** Re-Reading the Fockian *** 
                      *** Removing any level shift *** 
ITER      Energy       Delta-E        Grad      Rot      Max-DP    RMS-DP
  0   -464.04593396 -464.0459339639  0.003154  0.003154  0.002249  0.000053
  1   -464.04614543  -0.0002114613  0.002852  0.002785  0.019306  0.000475
  2   -464.04706321  -0.0009177859  0.001053  0.000886  0.005119  0.000104
  3   -464.04710556  -0.0000423471  0.000691  0.000647  0.001677  0.000041
  4   -464.04712282  -0.0000172663  0.000092  0.000173  0.000270  0.000007
  5   -464.04712348  -0.0000006544  0.000040  0.000140  0.000226  0.000005
  6   -464.04712367  -0.0000001871  0.000011  0.000037  0.000087  0.000002
  7   -464.04712368  -0.0000000184  0.000004  0.000008  0.000015  0.000000
                  ***Gradient check signals convergence***
              ***Rediagonalizing the Fockian in SOSCF/NRSCF***

               *****************************************************
               *                     SUCCESS                       *
               *           SCF CONVERGED AFTER   8 CYCLES          *
               *****************************************************


----------------
TOTAL SCF ENERGY
----------------

Total Energy       :         -464.04712369 Eh          -12627.36420 eV

Components:
Nuclear Repulsion  :          659.01270878 Eh           17932.64748 eV
Electronic Energy  :        -1123.05983247 Eh          -30560.01168 eV
One Electron Energy:        -1936.61272667 Eh          -52697.91140 eV
Two Electron Energy:          813.55289420 Eh           22137.89972 eV

Virial components:
Potential Energy   :         -927.46672498 Eh          -25237.65264 eV
Kinetic Energy     :          463.41960130 Eh           12610.28845 eV
Virial Ratio       :            2.00135411


---------------
SCF CONVERGENCE
---------------

  Last Energy change         ...   -1.7399e-09  Tolerance :   1.0000e-08
  Last MAX-Density change    ...    6.1392e-06  Tolerance :   1.0000e-07
  Last RMS-Density change    ...    1.2686e-07  Tolerance :   5.0000e-09
  Last Orbital Gradient      ...    6.9295e-07  Tolerance :   1.0000e-05
  Last Orbital Rotation      ...    1.1095e-06  Tolerance :   1.0000e-05

             **** THE GBW FILE WAS UPDATED (2_keto_cyclodecanone.gbw) ****
             **** DENSITY FILE WAS UPDATED (2_keto_cyclodecanone.scfp.tmp) ****
             **** ENERGY FILE WAS UPDATED (2_keto_cyclodecanone.en.tmp) ****
----------------
ORBITAL ENERGIES
----------------

  NO   OCC          E(Eh)            E(eV) 
   0   2.0000     -20.538651      -558.8851 
   1   2.0000     -11.326932      -308.2215 
   2   2.0000     -11.240960      -305.8821 
   3   2.0000     -11.237200      -305.7798 
   4   2.0000     -11.236843      -305.7700 
   5   2.0000     -11.236358      -305.7568 
   6   2.0000     -11.234393      -305.7034 
   7   2.0000     -11.232499      -305.6518 
   8   2.0000     -11.232390      -305.6489 
   9   2.0000     -11.231524      -305.6253 
  10   2.0000     -11.230782      -305.6051 
  11   2.0000      -1.372917       -37.3590 
  12   2.0000      -1.108201       -30.1557 
  13   2.0000      -1.072815       -29.1928 
  14   2.0000      -1.055278       -28.7156 
  15   2.0000      -0.985160       -26.8076 
  16   2.0000      -0.960746       -26.1432 
  17   2.0000      -0.897296       -24.4167 
  18   2.0000      -0.847561       -23.0633 
  19   2.0000      -0.798186       -21.7198 
  20   2.0000      -0.765423       -20.8282 
  21   2.0000      -0.716836       -19.5061 
  22   2.0000      -0.665873       -18.1193 
  23   2.0000      -0.663365       -18.0511 
  24   2.0000      -0.624517       -16.9940 
  25   2.0000      -0.614778       -16.7290 
  26   2.0000      -0.612272       -16.6608 
  27   2.0000      -0.596907       -16.2427 
  28   2.0000      -0.582431       -15.8488 
  29   2.0000      -0.570416       -15.5218 
  30   2.0000      -0.545031       -14.8311 
  31   2.0000      -0.539064       -14.6687 
  32   2.0000      -0.533224       -14.5098 
  33   2.0000      -0.515126       -14.0173 
  34   2.0000      -0.501450       -13.6451 
  35   2.0000      -0.496668       -13.5150 
  36   2.0000      -0.472662       -12.8618 
  37   2.0000      -0.471652       -12.8343 
  38   2.0000      -0.459762       -12.5108 
  39   2.0000      -0.452180       -12.3044 
  40   2.0000      -0.445132       -12.1127 
  41   2.0000      -0.439472       -11.9587 
  42   2.0000      -0.392604       -10.6833 
  43   0.0000       0.149819         4.0768 
  44   0.0000       0.170885         4.6500 
  45   0.0000       0.185660         5.0521 
  46   0.0000       0.200266         5.4495 
  47   0.0000       0.201138         5.4732 
  48   0.0000       0.206777         5.6267 
  49   0.0000       0.231847         6.3089 
  50   0.0000       0.239971         6.5299 
  51   0.0000       0.248867         6.7720 
  52   0.0000       0.252641         6.8747 
  53   0.0000       0.257742         7.0135 
  54   0.0000       0.266951         7.2641 
  55   0.0000       0.278448         7.5770 
  56   0.0000       0.288053         7.8383 
  57   0.0000       0.290921         7.9164 
  58   0.0000       0.307512         8.3678 
  59   0.0000       0.320752         8.7281 
  60   0.0000       0.326960         8.8970 
  61   0.0000       0.353754         9.6261 
  62   0.0000       0.364655         9.9228 
  63   0.0000       0.379816        10.3353 
  64   0.0000       0.384931        10.4745 
  65   0.0000       0.392380        10.6772 
  66   0.0000       0.407254        11.0820 
  67   0.0000       0.414508        11.2793 
  68   0.0000       0.424549        11.5526 
  69   0.0000       0.448815        12.2129 
  70   0.0000       0.480150        13.0655 
  71   0.0000       0.498750        13.5717 
  72   0.0000       0.519516        14.1367 
  73   0.0000       0.559891        15.2354 
  74   0.0000       0.595099        16.1935 
  75   0.0000       0.602355        16.3909 
  76   0.0000       0.624656        16.9978 
  77   0.0000       0.627598        17.0778 
  78   0.0000       0.634019        17.2525 
  79   0.0000       0.648663        17.6510 
  80   0.0000       0.674935        18.3659 
  81   0.0000       0.680605        18.5202 
  82   0.0000       0.717739        19.5307 
  83   0.0000       0.736033        20.0285 
  84   0.0000       0.761958        20.7339 
  85   0.0000       0.778284        21.1782 
  86   0.0000       0.797393        21.6982 
  87   0.0000       0.811169        22.0730 
  88   0.0000       0.816621        22.2214 
  89   0.0000       0.820470        22.3261 
  90   0.0000       0.827098        22.5065 
  91   0.0000       0.831315        22.6212 
  92   0.0000       0.844404        22.9774 
  93   0.0000       0.856791        23.3145 
  94   0.0000       0.866136        23.5688 
  95   0.0000       0.873107        23.7584 
  96   0.0000       0.877466        23.8771 
  97   0.0000       0.880859        23.9694 
  98   0.0000       0.884639        24.0722 
  99   0.0000       0.889765        24.2117 
 100   0.0000       0.898972        24.4623 
 101   0.0000       0.900620        24.5071 
 102   0.0000       0.906860        24.6769 
 103   0.0000       0.915355        24.9081 
 104   0.0000       0.923192        25.1213 
 105   0.0000       0.928970        25.2786 
 106   0.0000       0.934458        25.4279 
 107   0.0000       0.937169        25.5017 
 108   0.0000       0.944852        25.7107 
 109   0.0000       0.950097        25.8535 
 110   0.0000       0.957843        26.0642 
 111   0.0000       0.966082        26.2884 
 112   0.0000       0.976986        26.5851 
 113   0.0000       0.981454        26.7067 
 114   0.0000       0.988908        26.9095 
 115   0.0000       1.001819        27.2609 
 116   0.0000       1.033168        28.1139 
 117   0.0000       1.039575        28.2883 
 118   0.0000       1.080279        29.3959 
 119   0.0000       1.086731        29.5714 
 120   0.0000       1.099577        29.9210 
 121   0.0000       1.124018        30.5861 
 122   0.0000       1.150763        31.3138 
 123   0.0000       1.218619        33.1603 
 124   0.0000       1.239697        33.7339 
 125   0.0000       1.252260        34.0757 
 126   0.0000       1.262340        34.3500 
 127   0.0000       1.294298        35.2196 
 128   0.0000       1.322467        35.9862 
 129   0.0000       1.344377        36.5823 
 130   0.0000       1.362776        37.0830 
 131   0.0000       1.385097        37.6904 
 132   0.0000       1.391868        37.8747 
 133   0.0000       1.410998        38.3952 
 134   0.0000       1.432853        38.9899 
 135   0.0000       1.455725        39.6123 
 136   0.0000       1.499440        40.8018 
 137   0.0000       1.525278        41.5049 
 138   0.0000       1.533528        41.7294 
 139   0.0000       1.541147        41.9367 
 140   0.0000       1.567093        42.6428 
 141   0.0000       1.591869        43.3169 
 142   0.0000       1.601364        43.5753 
 143   0.0000       1.630360        44.3644 
 144   0.0000       1.646508        44.8038 
 145   0.0000       1.655224        45.0409 
 146   0.0000       1.696814        46.1727 
 147   0.0000       1.725206        46.9453 
 148   0.0000       1.737501        47.2798 
 149   0.0000       1.767996        48.1096 
 150   0.0000       1.781707        48.4827 
 151   0.0000       1.784571        48.5607 
 152   0.0000       1.802047        49.0362 
 153   0.0000       1.817397        49.4539 
 154   0.0000       1.822804        49.6010 
 155   0.0000       1.842661        50.1414 
 156   0.0000       1.854257        50.4569 
 157   0.0000       1.866308        50.7848 
 158   0.0000       1.875219        51.0273 
 159   0.0000       1.889072        51.4043 
 160   0.0000       1.904028        51.8112 
 161   0.0000       1.907708        51.9114 
 162   0.0000       1.916333        52.1461 
 163   0.0000       1.927527        52.4507 
 164   0.0000       1.930107        52.5209 
 165   0.0000       1.937313        52.7170 
 166   0.0000       1.950073        53.0642 
 167   0.0000       1.955312        53.2067 
 168   0.0000       1.961888        53.3857 
 169   0.0000       1.967357        53.5345 
 170   0.0000       1.976956        53.7957 
 171   0.0000       1.986800        54.0636 
 172   0.0000       1.990434        54.1625 
 173   0.0000       2.000363        54.4326 
 174   0.0000       2.006115        54.5892 
 175   0.0000       2.013520        54.7907 
 176   0.0000       2.020522        54.9812 
 177   0.0000       2.038780        55.4780 
 178   0.0000       2.040110        55.5142 
 179   0.0000       2.046462        55.6871 
 180   0.0000       2.060638        56.0728 
 181   0.0000       2.076515        56.5049 
 182   0.0000       2.081740        56.6470 
 183   0.0000       2.099782        57.1380 
 184   0.0000       2.125062        57.8259 
 185   0.0000       2.131142        57.9913 
 186   0.0000       2.136694        58.1424 
 187   0.0000       2.155890        58.6647 
 188   0.0000       2.173795        59.1520 
 189   0.0000       2.193955        59.7005 
 190   0.0000       2.206762        60.0491 
 191   0.0000       2.227466        60.6124 
 192   0.0000       2.245606        61.1060 
 193   0.0000       2.260191        61.5029 
 194   0.0000       2.266195        61.6663 
 195   0.0000       2.305267        62.7295 
 196   0.0000       2.322701        63.2039 
 197   0.0000       2.343420        63.7677 
 198   0.0000       2.363555        64.3156 
 199   0.0000       2.370852        64.5142 
 200   0.0000       2.372783        64.5667 
 201   0.0000       2.395685        65.1899 
 202   0.0000       2.407318        65.5065 
 203   0.0000       2.418189        65.8023 
 204   0.0000       2.445354        66.5415 
 205   0.0000       2.459601        66.9292 
 206   0.0000       2.472036        67.2675 
 207   0.0000       2.480435        67.4961 
 208   0.0000       2.521459        68.6124 
 209   0.0000       2.526251        68.7428 
 210   0.0000       2.542219        69.1773 
 211   0.0000       2.551852        69.4394 
 212   0.0000       2.562368        69.7256 
 213   0.0000       2.580336        70.2145 
 214   0.0000       2.596304        70.6490 
 215   0.0000       2.612249        71.0829 
 216   0.0000       2.621003        71.3211 
 217   0.0000       2.631888        71.6173 
 218   0.0000       2.656849        72.2965 
 219   0.0000       2.691294        73.2338 
 220   0.0000       2.743133        74.6444 
 221   0.0000       2.788437        75.8772 
 222   0.0000       2.802720        76.2659 
 223   0.0000       2.804357        76.3104 
 224   0.0000       2.826032        76.9002 
 225   0.0000       2.858878        77.7940 
 226   0.0000       2.877900        78.3116 
 227   0.0000       2.885857        78.5282 
 228   0.0000       2.892479        78.7083 
 229   0.0000       2.927020        79.6483 
 230   0.0000       2.933086        79.8133 
 231   0.0000       2.985888        81.2501 
 232   0.0000       3.001634        81.6786 
 233   0.0000       3.010981        81.9330 
 234   0.0000       3.035230        82.5928 
 235   0.0000       3.040841        82.7455 
 236   0.0000       3.060983        83.2936 
 237   0.0000       3.080195        83.8164 
 238   0.0000       3.097864        84.2972 
 239   0.0000       3.136330        85.3439 
 240   0.0000       3.170740        86.2802 
 241   0.0000       3.490199        94.9731 
 242   0.0000       3.711161       100.9858 
 243   0.0000       3.876268       105.4786 

                    ********************************
                    * MULLIKEN POPULATION ANALYSIS *
                    ********************************

-----------------------
MULLIKEN ATOMIC CHARGES
-----------------------
   0 C :   -0.021883
   1 C :   -0.071403
   2 C :   -0.026945
   3 C :   -0.071212
   4 C :   -0.043308
   5 C :    0.178918
   6 O :   -0.349510
   7 C :   -0.060313
   8 C :   -0.061431
   9 C :   -0.039465
  10 C :   -0.045027
  11 H :    0.023127
  12 H :    0.026769
  13 H :    0.029391
  14 H :    0.020175
  15 H :    0.030954
  16 H :    0.024028
  17 H :    0.023773
  18 H :    0.033085
  19 H :    0.024264
  20 H :    0.029492
  21 H :    0.027631
  22 H :    0.039300
  23 H :    0.039949
  24 H :    0.034198
  25 H :    0.055697
  26 H :    0.054760
  27 H :    0.055300
  28 H :    0.039684
Sum of atomic charges:    0.0000000

--------------------------------
MULLIKEN REDUCED ORBITAL CHARGES
--------------------------------
  0 C s       :     3.059670  s :     3.059670
      pz      :     0.972885  p :     2.879431
      px      :     0.971553
      py      :     0.934993
      dz2     :     0.008941  d :     0.082783
      dxz     :     0.021565
      dyz     :     0.018145
      dx2y2   :     0.016150
      dxy     :     0.017982
  1 C s       :     3.073478  s :     3.073478
      pz      :     0.993941  p :     2.914497
      px      :     0.983422
      py      :     0.937134
      dz2     :     0.012636  d :     0.083428
      dxz     :     0.016774
      dyz     :     0.019853
      dx2y2   :     0.020480
      dxy     :     0.013685
  2 C s       :     3.063605  s :     3.063605
      pz      :     0.970343  p :     2.880480
      px      :     0.937559
      py      :     0.972578
      dz2     :     0.009206  d :     0.082860
      dxz     :     0.021772
      dyz     :     0.019424
      dx2y2   :     0.021165
      dxy     :     0.011293
  3 C s       :     3.075550  s :     3.075550
      pz      :     0.986278  p :     2.913640
      px      :     0.925698
      py      :     1.001664
      dz2     :     0.008484  d :     0.082022
      dxz     :     0.021578
      dyz     :     0.021300
      dx2y2   :     0.021399
      dxy     :     0.009261
  4 C s       :     3.057506  s :     3.057506
      pz      :     0.999715  p :     2.912656
      px      :     0.918683
      py      :     0.994258
      dz2     :     0.011873  d :     0.073146
      dxz     :     0.017146
      dyz     :     0.013505
      dx2y2   :     0.011294
      dxy     :     0.019328
  5 C s       :     3.164384  s :     3.164384
      pz      :     0.738988  p :     2.465255
      px      :     0.869318
      py      :     0.856948
      dz2     :     0.020904  d :     0.191443
      dxz     :     0.040362
      dyz     :     0.020490
      dx2y2   :     0.050492
      dxy     :     0.059195
  6 O s       :     3.768891  s :     3.768891
      pz      :     1.419645  p :     4.560204
      px      :     1.442631
      py      :     1.697928
      dz2     :     0.002889  d :     0.020414
      dxz     :     0.006387
      dyz     :     0.000777
      dx2y2   :     0.005439
      dxy     :     0.004923
  7 C s       :     3.074800  s :     3.074800
      pz      :     0.989237  p :     2.903382
      px      :     0.930168
      py      :     0.983977
      dz2     :     0.011234  d :     0.082131
      dxz     :     0.023248
      dyz     :     0.016046
      dx2y2   :     0.015101
      dxy     :     0.016501
  8 C s       :     3.076399  s :     3.076399
      pz      :     0.991782  p :     2.902994
      px      :     0.915846
      py      :     0.995366
      dz2     :     0.008484  d :     0.082038
      dxz     :     0.021057
      dyz     :     0.021987
      dx2y2   :     0.021218
      dxy     :     0.009293
  9 C s       :     3.070931  s :     3.070931
      pz      :     0.975822  p :     2.885261
      px      :     0.950350
      py      :     0.959089
      dz2     :     0.008248  d :     0.083273
      dxz     :     0.021247
      dyz     :     0.020925
      dx2y2   :     0.020119
      dxy     :     0.012733
 10 C s       :     3.058383  s :     3.058383
      pz      :     0.994496  p :     2.912889
      px      :     1.004520
      py      :     0.913872
      dz2     :     0.009787  d :     0.073754
      dxz     :     0.014090
      dyz     :     0.019504
      dx2y2   :     0.019853
      dxy     :     0.010520
 11 H s       :     0.947934  s :     0.947934
      pz      :     0.014165  p :     0.028939
      px      :     0.010606
      py      :     0.004168
 12 H s       :     0.944313  s :     0.944313
      pz      :     0.011653  p :     0.028918
      px      :     0.008158
      py      :     0.009106
 13 H s       :     0.941691  s :     0.941691
      pz      :     0.006473  p :     0.028918
      px      :     0.005352
      py      :     0.017094
 14 H s       :     0.950235  s :     0.950235
      pz      :     0.014342  p :     0.029590
      px      :     0.006553
      py      :     0.008695
 15 H s       :     0.939948  s :     0.939948
      pz      :     0.006466  p :     0.029098
      px      :     0.017382
      py      :     0.005249
 16 H s       :     0.946626  s :     0.946626
      pz      :     0.015233  p :     0.029346
      px      :     0.010031
      py      :     0.004082
 17 H s       :     0.946567  s :     0.946567
      pz      :     0.011974  p :     0.029660
      px      :     0.004003
      py      :     0.013684
 18 H s       :     0.937889  s :     0.937889
      pz      :     0.008604  p :     0.029026
      px      :     0.004531
      py      :     0.015890
 19 H s       :     0.946766  s :     0.946766
      pz      :     0.014449  p :     0.028970
      px      :     0.009792
      py      :     0.004729
 20 H s       :     0.941556  s :     0.941556
      pz      :     0.009079  p :     0.028952
      px      :     0.004118
      py      :     0.015755
 21 H s       :     0.942227  s :     0.942227
      pz      :     0.011638  p :     0.030142
      px      :     0.004185
      py      :     0.014319
 22 H s       :     0.931687  s :     0.931687
      pz      :     0.008714  p :     0.029013
      px      :     0.004408
      py      :     0.015891
 23 H s       :     0.930896  s :     0.930896
      pz      :     0.014008  p :     0.029155
      px      :     0.010308
      py      :     0.004839
 24 H s       :     0.936682  s :     0.936682
      pz      :     0.010424  p :     0.029120
      px      :     0.004165
      py      :     0.014531
 25 H s       :     0.914503  s :     0.914503
      pz      :     0.006010  p :     0.029800
      px      :     0.006371
      py      :     0.017419
 26 H s       :     0.914007  s :     0.914007
      pz      :     0.015419  p :     0.031233
      px      :     0.008048
      py      :     0.007767
 27 H s       :     0.914909  s :     0.914909
      pz      :     0.005725  p :     0.029791
      px      :     0.019556
      py      :     0.004509
 28 H s       :     0.929754  s :     0.929754
      pz      :     0.015780  p :     0.030562
      px      :     0.010076
      py      :     0.004706


                     *******************************
                     * LOEWDIN POPULATION ANALYSIS *
                     *******************************

----------------------
LOEWDIN ATOMIC CHARGES
----------------------
   0 C :   -0.031276
   1 C :   -0.039542
   2 C :   -0.030704
   3 C :   -0.036986
   4 C :   -0.047940
   5 C :    0.025700
   6 O :   -0.105448
   7 C :   -0.037449
   8 C :   -0.038593
   9 C :   -0.023129
  10 C :   -0.047274
  11 H :    0.020185
  12 H :    0.021718
  13 H :    0.022524
  14 H :    0.011154
  15 H :    0.027030
  16 H :    0.012910
  17 H :    0.012568
  18 H :    0.024573
  19 H :    0.021258
  20 H :    0.022460
  21 H :    0.012834
  22 H :    0.026189
  23 H :    0.026621
  24 H :    0.024543
  25 H :    0.035187
  26 H :    0.032856
  27 H :    0.036831
  28 H :    0.021201

-------------------------------
LOEWDIN REDUCED ORBITAL CHARGES
-------------------------------
  0 C s       :     2.795434  s :     2.795434
      pz      :     1.028185  p :     3.032846
      px      :     1.007242
      py      :     0.997419
      dz2     :     0.021667  d :     0.202996
      dxz     :     0.055380
      dyz     :     0.043841
      dx2y2   :     0.038698
      dxy     :     0.043410
  1 C s       :     2.794989  s :     2.794989
      pz      :     1.020005  p :     3.041968
      px      :     1.028242
      py      :     0.993720
      dz2     :     0.030101  d :     0.202585
      dxz     :     0.044438
      dyz     :     0.046234
      dx2y2   :     0.048823
      dxy     :     0.032989
  2 C s       :     2.795547  s :     2.795547
      pz      :     1.024626  p :     3.031967
      px      :     0.993581
      py      :     1.013760
      dz2     :     0.022781  d :     0.203190
      dxz     :     0.053710
      dyz     :     0.047654
      dx2y2   :     0.053053
      dxy     :     0.025992
  3 C s       :     2.792635  s :     2.792635
      pz      :     1.013919  p :     3.043618
      px      :     0.988756
      py      :     1.040943
      dz2     :     0.019699  d :     0.200733
      dxz     :     0.050047
      dyz     :     0.057348
      dx2y2   :     0.052054
      dxy     :     0.021585
  4 C s       :     2.800767  s :     2.800767
      pz      :     1.024601  p :     3.059965
      px      :     1.002510
      py      :     1.032853
      dz2     :     0.031941  d :     0.187208
      dxz     :     0.044857
      dyz     :     0.032698
      dx2y2   :     0.029815
      dxy     :     0.047896
  5 C s       :     2.863513  s :     2.863513
      pz      :     0.758452  p :     2.689768
      px      :     1.001296
      py      :     0.930021
      dz2     :     0.046090  d :     0.421019
      dxz     :     0.083876
      dyz     :     0.045298
      dx2y2   :     0.117426
      dxy     :     0.128329
  6 O s       :     3.498401  s :     3.498401
      pz      :     1.405447  p :     4.574937
      px      :     1.514685
      py      :     1.654805
      dz2     :     0.003927  d :     0.032111
      dxz     :     0.009096
      dyz     :     0.001444
      dx2y2   :     0.009980
      dxy     :     0.007664
  7 C s       :     2.793551  s :     2.793551
      pz      :     1.018284  p :     3.042339
      px      :     0.996745
      py      :     1.027309
      dz2     :     0.028637  d :     0.201559
      dxz     :     0.055632
      dyz     :     0.040699
      dx2y2   :     0.036930
      dxy     :     0.039661
  8 C s       :     2.792771  s :     2.792771
      pz      :     1.019143  p :     3.044031
      px      :     0.987216
      py      :     1.037672
      dz2     :     0.020098  d :     0.201792
      dxz     :     0.049494
      dyz     :     0.058464
      dx2y2   :     0.051690
      dxy     :     0.022046
  9 C s       :     2.794946  s :     2.794946
      pz      :     1.027012  p :     3.025155
      px      :     1.001133
      py      :     0.997009
      dz2     :     0.019835  d :     0.203028
      dxz     :     0.052060
      dyz     :     0.051922
      dx2y2   :     0.050028
      dxy     :     0.029184
 10 C s       :     2.800625  s :     2.800625
      pz      :     1.022114  p :     3.059074
      px      :     1.040132
      py      :     0.996827
      dz2     :     0.025438  d :     0.187575
      dxz     :     0.038643
      dyz     :     0.047761
      dx2y2   :     0.049259
      dxy     :     0.026474
 11 H s       :     0.901887  s :     0.901887
      pz      :     0.033993  p :     0.077928
      px      :     0.028050
      py      :     0.015885
 12 H s       :     0.900377  s :     0.900377
      pz      :     0.028965  p :     0.077905
      px      :     0.023424
      py      :     0.025516
 13 H s       :     0.898800  s :     0.898800
      pz      :     0.019980  p :     0.078676
      px      :     0.019061
      py      :     0.039634
 14 H s       :     0.906945  s :     0.906945
      pz      :     0.035970  p :     0.081902
      px      :     0.021433
      py      :     0.024499
 15 H s       :     0.894635  s :     0.894635
      pz      :     0.019887  p :     0.078335
      px      :     0.039928
      py      :     0.018520
 16 H s       :     0.906418  s :     0.906418
      pz      :     0.037513  p :     0.080672
      px      :     0.026372
      py      :     0.016788
 17 H s       :     0.905540  s :     0.905540
      pz      :     0.031301  p :     0.081892
      px      :     0.016630
      py      :     0.033961
 18 H s       :     0.896622  s :     0.896622
      pz      :     0.024282  p :     0.078805
      px      :     0.017584
      py      :     0.036939
 19 H s       :     0.900783  s :     0.900783
      pz      :     0.034949  p :     0.077959
      px      :     0.026757
      py      :     0.016253
 20 H s       :     0.899517  s :     0.899517
      pz      :     0.024216  p :     0.078022
      px      :     0.015874
      py      :     0.037933
 21 H s       :     0.903288  s :     0.903288
      pz      :     0.030862  p :     0.083877
      px      :     0.017174
      py      :     0.035842
 22 H s       :     0.894618  s :     0.894618
      pz      :     0.024520  p :     0.079193
      px      :     0.017585
      py      :     0.037088
 23 H s       :     0.894509  s :     0.894509
      pz      :     0.034171  p :     0.078870
      px      :     0.027845
      py      :     0.016854
 24 H s       :     0.897040  s :     0.897040
      pz      :     0.026987  p :     0.078417
      px      :     0.015868
      py      :     0.035562
 25 H s       :     0.884015  s :     0.884015
      pz      :     0.019609  p :     0.080798
      px      :     0.019577
      py      :     0.041612
 26 H s       :     0.883521  s :     0.883521
      pz      :     0.038148  p :     0.083623
      px      :     0.023073
      py      :     0.022402
 27 H s       :     0.882726  s :     0.882726
      pz      :     0.018286  p :     0.080442
      px      :     0.044759
      py      :     0.017397
 28 H s       :     0.895751  s :     0.895751
      pz      :     0.038409  p :     0.083048
      px      :     0.026773
      py      :     0.017866


                      *****************************
                      * MAYER POPULATION ANALYSIS *
                      *****************************

  NA   - Mulliken gross atomic population
  ZA   - Total nuclear charge
  QA   - Mulliken gross atomic charge
  VA   - Mayer's total valence
  BVA  - Mayer's bonded valence
  FA   - Mayer's free valence

  ATOM       NA         ZA         QA         VA         BVA        FA
  0 C      6.0219     6.0000    -0.0219     4.0012     4.0012    -0.0000
  1 C      6.0714     6.0000    -0.0714     4.0006     4.0006    -0.0000
  2 C      6.0269     6.0000    -0.0269     4.0009     4.0009    -0.0000
  3 C      6.0712     6.0000    -0.0712     3.9693     3.9693    -0.0000
  4 C      6.0433     6.0000    -0.0433     3.8779     3.8779     0.0000
  5 C      5.8211     6.0000     0.1789     4.0858     4.0858     0.0000
  6 O      8.3495     8.0000    -0.3495     2.1363     2.1363    -0.0000
  7 C      6.0603     6.0000    -0.0603     3.9706     3.9706     0.0000
  8 C      6.0614     6.0000    -0.0614     3.9658     3.9658     0.0000
  9 C      6.0395     6.0000    -0.0395     4.0152     4.0152     0.0000
 10 C      6.0450     6.0000    -0.0450     3.9089     3.9089     0.0000
 11 H      0.9769     1.0000     0.0231     0.9681     0.9681     0.0000
 12 H      0.9732     1.0000     0.0268     0.9640     0.9640    -0.0000
 13 H      0.9706     1.0000     0.0294     0.9673     0.9673     0.0000
 14 H      0.9798     1.0000     0.0202     0.9645     0.9645     0.0000
 15 H      0.9690     1.0000     0.0310     0.9683     0.9683     0.0000
 16 H      0.9760     1.0000     0.0240     0.9668     0.9668    -0.0000
 17 H      0.9762     1.0000     0.0238     0.9669     0.9669     0.0000
 18 H      0.9669     1.0000     0.0331     0.9682     0.9682     0.0000
 19 H      0.9757     1.0000     0.0243     0.9690     0.9690    -0.0000
 20 H      0.9705     1.0000     0.0295     0.9639     0.9639    -0.0000
 21 H      0.9724     1.0000     0.0276     0.9678     0.9678     0.0000
 22 H      0.9607     1.0000     0.0393     0.9665     0.9665     0.0000
 23 H      0.9601     1.0000     0.0399     0.9691     0.9691     0.0000
 24 H      0.9658     1.0000     0.0342     0.9656     0.9656     0.0000
 25 H      0.9443     1.0000     0.0557     0.9906     0.9906     0.0000
 26 H      0.9452     1.0000     0.0548     0.9786     0.9786     0.0000
 27 H      0.9447     1.0000     0.0553     0.9895     0.9895     0.0000
 28 H      0.9603     1.0000     0.0397     0.9687     0.9687    -0.0000

  Mayer bond orders larger than 0.1
B(  0-C ,  1-C ) :   1.0460 B(  0-C ,  7-C ) :   1.0585 B(  0-C , 11-H ) :   0.9663 
B(  0-C , 12-H ) :   0.9658 B(  1-C ,  2-C ) :   1.0453 B(  1-C , 15-H ) :   0.9685 
B(  1-C , 16-H ) :   0.9648 B(  2-C ,  3-C ) :   1.0581 B(  2-C , 19-H ) :   0.9663 
B(  2-C , 20-H ) :   0.9667 B(  3-C ,  4-C ) :   1.0056 B(  3-C , 21-H ) :   0.9707 
B(  3-C , 22-H ) :   0.9691 B(  4-C ,  5-C ) :   1.0107 B(  4-C , 25-H ) :   0.9575 
B(  4-C , 26-H ) :   0.9512 B(  5-C ,  6-O ) :   2.0781 B(  5-C , 10-C ) :   0.9909 
B(  7-C ,  8-C ) :   1.0141 B(  7-C , 13-H ) :   0.9678 B(  7-C , 14-H ) :   0.9707 
B(  8-C ,  9-C ) :   1.0590 B(  8-C , 17-H ) :   0.9677 B(  8-C , 18-H ) :   0.9676 
B(  9-C , 10-C ) :   1.0430 B(  9-C , 23-H ) :   0.9666 B(  9-C , 24-H ) :   0.9656 
B( 10-C , 27-H ) :   0.9595 B( 10-C , 28-H ) :   0.9560 

-------
TIMINGS
-------

Total SCF time: 0 days 0 hours 0 min 44 sec 

Total time                  ....      44.727 sec
Sum of individual times     ....      44.517 sec  ( 99.5%)

Fock matrix formation       ....      44.305 sec  ( 99.1%)
Diagonalization             ....       0.008 sec  (  0.0%)
Density matrix formation    ....       0.006 sec  (  0.0%)
Population analysis         ....       0.028 sec  (  0.1%)
Initial guess               ....       0.118 sec  (  0.3%)
Orbital Transformation      ....       0.000 sec  (  0.0%)
Orbital Orthonormalization  ....       0.000 sec  (  0.0%)
DIIS solution               ....       0.000 sec  (  0.0%)
SOSCF solution              ....       0.052 sec  (  0.1%)


           ************************************************************
           *        Program running with 4 parallel MPI-processes     *
           *              working on a common directory               *
           ************************************************************


------------------------------------------------------------------------------- 
                              ORCA-MATRIX DRIVEN CI                            
------------------------------------------------------------------------------- 


Wavefunction type
-----------------
Correlation treatment                      ...      CCSD     
Single excitations                         ... ON
Orbital optimization                       ... OFF
Calculation of Z vector                    ... OFF
Calculation of Brueckner orbitals          ... OFF
Perturbative triple excitations            ... ON
Calculation of F12 correction              ... OFF
Frozen core treatment                      ... chemical core (22 el)
Reference Wavefunction                     ... RHF
  Internal Orbitals:    11 ...   42 ( 32 MO's/ 64 electrons)
  Virtual  Orbitals:    43 ...  243 (201 MO's              )
Number of AO's                             ...    244
Number of electrons                        ...     86
Number of correlated electrons             ...     64

Algorithmic settings
--------------------
Integral transformation                    ... All integrals via the RI transformation
K(C) Formation                             ... RI-DLPNO
   PNO-Integral Storage                    ... ON DISK
   PNO occupation number cut-off           ... 1.000e-07
   Singles PNO occupation number cut-off   ... 3.000e-09
   PNO Mulliken prescreening cut-off       ... 1.000e-03
   Domain cut-off (Mulliken population)    ... 1.000e-03
   PNO Normalization                       ...    1
Maximum number of iterations               ...        50
Convergence tolerance (max. residuum)      ... 1.000e-05
Level shift for amplitude update           ... 2.000e-01
Maximum number of DIIS vectors             ...         7
DIIS turned on at iteration                ...         0
Damping before turning on DIIS             ...     0.500
Damping after turning on DIIS              ...     0.000
Pair specific amplitude update             ... OFF
Natural orbital iterations                 ... OFF
Perturbative natural orbital generation    ... OFF
Printlevel                                 ... 2

Singles Fock matrix elements calculated using PNOs.

Memory handling:
----------------
Maximum memory for working arrays          ...   8000 MB
Data storage in matrix containers          ... UNCOMPRESSED
Data type for integral storage             ... DOUBLE
In-Core Storage of quantities:
   Amplitudes+Sigma Vector      ... NO
   J+K operators                ... NO
   DIIS vectors                 ... NO
   3-external integrals         ... NO
   4-external integrals         ... NO

Localization treatment:
-----------------------
Localization option                        ...    6
Localization threshhold                    ... -1.0e+00
Using relative localization threshhold     ... 1.0e-08
Neglect threshold for strong pairs         ... 1.000e-05 Eh
Prescreening threshold for very weak pairs ... 1.000e-07 Eh

Initializing the integral package          ... done
Localizing the valence orbitals
------------------------------------------------------------------------------
                           ORCA ORBITAL LOCALIZATION
------------------------------------------------------------------------------

Input orbitals are from                  ... 2_keto_cyclodecanone.proc0.gbw
Output orbitals are to                   ... 2_keto_cyclodecanone.proc0.loc
Max. number of iterations                ... 128
Localizations seeded randomly            ... off
Convergence tolerance                    ... 1.000e-06
Using relative localization threshhold   ... 1.000e-08
Treshold for strong local MOs            ... 9.500e-01
Treshold for bond MOs                    ... 8.500e-01
Operator                                 ... 0
Orbital range for localization           ... 11 to 42
Localization criterion                   ... FOSTER-BOYS (AUGMENTED HESSIAN)
Doing the dipole integrals     ... o.k.
Initial value of the localization sum :   678.263300
ITERATION   0 : L=  707.6151943561 DL=  2.94e+01 (AVERGE_DL)=    0.2432636543 
ITERATION   1 : L=  710.1067559366 DL=  2.49e+00 (AVERGE_DL)=    0.0708753105 
ITERATION   2 : L=  710.1676252961 DL=  6.09e-02 (AVERGE_DL)=    0.0110779277 
ITERATION   3 : L=  710.1686558381 DL=  1.03e-03 (AVERGE_DL)=    0.0014414248 
ITERATION   4 : L=  710.1687455422 DL=  8.97e-05 (AVERGE_DL)=    0.0004252707 
ITERATION   5 : L=  710.1687519649 DL=  6.42e-06 (AVERGE_DL)=    0.0001137938 
ITERATION   6 : L=  710.1687524612 DL=  4.96e-07 (AVERGE_DL)=    0.0000316309 
LOCALIZATION SUM CONVERGED

------------------------------------------------------
AUGMENTED HESSIAN OPTIMIZATION OF FOSTER-BOYS ORBITALS
------------------------------------------------------

Spin operator:           0
Orbital window:          11 to 42
Number of iterations:    128
Gradient tolerance:      1.000e-06
Number of pairs:         496
Davidson threshold:      2000
Diagonalization method:  LAPACK
Iter:    0   L: 710.1687524612   Grad. norm: 2.779334e-03
   *** Likely close to a maximum now. ***
       Augmented Hessian eigenvalues:  9.96e-08 -1.66e+00 -2.43e+00 -3.15e+00 ... 
Iter:    1   L: 710.1687525110   Grad. norm: 3.980520e-08
LOCALIZATION HAS CONVERGED.

Eigenvalues of the Hessian:
  0 -1.662e+00
  1 -2.435e+00
  2 -3.151e+00
  3 -5.558e+00
  4 -6.758e+00
  5 -7.301e+00
  6 -1.640e+01
  7 -1.724e+01
  8 -1.736e+01
  9 -1.746e+01
    ...


------------------------------------------------------------------------------- 
                    LOCALIZED MOLECULAR ORBITAL COMPOSITIONS                   
------------------------------------------------------------------------------- 

The Mulliken populations for each LMO on each atom are computed
The LMO`s will be ordered according to atom index and type
  (A) Strongly localized MO`s have populations of >=0.950 on one atom
  (B) Two center bond orbitals have populations of >=0.850 on two atoms
  (C) Other MO`s are considered to be `delocalized`

FOUND  -   2 strongly local MO`s
       -  30 two center bond MO`s
       -   0 significantly delocalized MO`s

Rather strongly localized orbitals:
MO  12:   6O  -   0.957767
MO  11:   6O  -   0.957398
Bond-like localized orbitals:
MO  42:  28H  -   0.500363  and  10C  -   0.504936
MO  41:  27H  -   0.482938  and  10C  -   0.519657
MO  40:  26H  -   0.488787  and   4C  -   0.510562
MO  39:  25H  -   0.482041  and   4C  -   0.520216
MO  38:  24H  -   0.503303  and   9C  -   0.506597
MO  37:  23H  -   0.498782  and   9C  -   0.512356
MO  36:  22H  -   0.500175  and   3C  -   0.509827
MO  35:  21H  -   0.507503  and   3C  -   0.509175
MO  34:  20H  -   0.506702  and   2C  -   0.504264
MO  33:  19H  -   0.507553  and   2C  -   0.502601
MO  32:  18H  -   0.502916  and   8C  -   0.506021
MO  31:  17H  -   0.509573  and   8C  -   0.506655
MO  30:  16H  -   0.509373  and   1C  -   0.503420
MO  29:  15H  -   0.504221  and   1C  -   0.504932
MO  28:  14H  -   0.512580  and   7C  -   0.504524
MO  27:  13H  -   0.505320  and   7C  -   0.504050
MO  26:  12H  -   0.508218  and   0C  -   0.502294
MO  25:  11H  -   0.508592  and   0C  -   0.501669
MO  24:  10C  -   0.537819  and   9C  -   0.500867
MO  23:  10C  -   0.509350  and   5C  -   0.545428
MO  22:   9C  -   0.517949  and   8C  -   0.531423
MO  21:   8C  -   0.523733  and   7C  -   0.520394
MO  20:   7C  -   0.536762  and   0C  -   0.512458
MO  19:   6O  -   0.640001  and   5C  -   0.370951
MO  18:   6O  -   0.639657  and   5C  -   0.368563
MO  17:   5C  -   0.535359  and   4C  -   0.522700
MO  16:   4C  -   0.526308  and   3C  -   0.511847
MO  15:   3C  -   0.540522  and   2C  -   0.509024
MO  14:   2C  -   0.521757  and   1C  -   0.524552
MO  13:   1C  -   0.527671  and   0C  -   0.518912
Localized MO's were stored in: 2_keto_cyclodecanone.proc0.loc

Localizing the core orbitals
------------------------------------------------------------------------------
                           ORCA ORBITAL LOCALIZATION
------------------------------------------------------------------------------

Input orbitals are from                  ... 2_keto_cyclodecanone.proc0.loc
Output orbitals are to                   ... 2_keto_cyclodecanone.proc0.loc
Max. number of iterations                ... 128
Localizations seeded randomly            ... off
Convergence tolerance                    ... 1.000e-06
Using relative localization threshhold   ... 1.000e-08
Treshold for strong local MOs            ... 9.500e-01
Treshold for bond MOs                    ... 8.500e-01
Operator                                 ... 0
Orbital range for localization           ... 0 to 10
Localization criterion                   ... FOSTER-BOYS (AUGMENTED HESSIAN)
Doing the dipole integrals     ... o.k.
Initial value of the localization sum :   206.676994
ITERATION   0 : L=  206.6770190008 DL=  2.55e-05 (AVERGE_DL)=    0.0006805684 
ITERATION   1 : L=  206.6770190008 DL=  0.00e+00 (AVERGE_DL)=    0.0000000000 
LOCALIZATION SUM CONVERGED

------------------------------------------------------
AUGMENTED HESSIAN OPTIMIZATION OF FOSTER-BOYS ORBITALS
------------------------------------------------------

Spin operator:           0
Orbital window:          0 to 10
Number of iterations:    128
Gradient tolerance:      1.000e-06
Number of pairs:         55
Davidson threshold:      2000
Diagonalization method:  LAPACK
Iter:    0   L: 206.6770190008   Grad. norm: 7.986499e-06
   *** Likely close to a maximum now. ***
       Augmented Hessian eigenvalues:  3.88e-13 -2.13e+01 -3.34e+01 -3.35e+01 ... 
Iter:    1   L: 206.6770190008   Grad. norm: 7.185349e-16
LOCALIZATION HAS CONVERGED.

Eigenvalues of the Hessian:
  0 -2.134e+01
  1 -3.342e+01
  2 -3.349e+01
  3 -3.392e+01
  4 -3.404e+01
  5 -3.405e+01
  6 -3.408e+01
  7 -3.409e+01
  8 -3.410e+01
  9 -3.414e+01
    ...


------------------------------------------------------------------------------- 
                    LOCALIZED MOLECULAR ORBITAL COMPOSITIONS                   
------------------------------------------------------------------------------- 

The Mulliken populations for each LMO on each atom are computed
The LMO`s will be ordered according to atom index and type
  (A) Strongly localized MO`s have populations of >=0.950 on one atom
  (B) Two center bond orbitals have populations of >=0.850 on two atoms
  (C) Other MO`s are considered to be `delocalized`

FOUND  -  11 strongly local MO`s
       -   0 two center bond MO`s
       -   0 significantly delocalized MO`s

Rather strongly localized orbitals:
MO  10:  10C  -   0.999085
MO   9:   9C  -   0.999272
MO   8:   8C  -   0.999157
MO   7:   7C  -   0.999166
MO   6:   6O  -   0.999633
MO   5:   5C  -   0.999874
MO   4:   4C  -   0.998994
MO   3:   3C  -   0.999136
MO   2:   2C  -   0.999286
MO   1:   1C  -   0.999254
MO   0:   0C  -   0.999264
Localized MO's were stored in: 2_keto_cyclodecanone.proc0.loc

Warning: internal orbitals are localized - no re-canonicalization of internal orbitals

--------------------------
CLOSED-SHELL FOCK OPERATOR
--------------------------

RI-JK section for the Fock operator:
  RHF full Fock operator         ... done
  RHF frozen core Fock operator  ... done
Time needed for Fock operator              ...            4.788 sec
Reference energy                           ...   -464.047123686

--------------
DLPNO SETTINGS (2015 fully linear scaling implementation)
--------------

TCutMKN:           1.000e-03
TCutPAO:           1.000e-03
TCutPNO:           1.000e-07
TCutPNOSingles:    3.000e-09
TCutEN:            9.700e-01
TCutPAOExt:        1.000e-01
TCutPairs:         1.000e-05
TCutPre:           1.000e-07
TCutOSV:           1.000e-06
TCutDOij:          1.000e-05
TCutDO:            5.000e-03
TCutC:             1.000e-04
TCutCPAO:          1.000e-03
TCutCMO:           1.000e-03
TScaleDOMP2PreScr: 2.000e+00
TScaleMKNMP2PreScr:1.000e+01
TScalePNOMP2PreScr:1.000e+00
PAO overlap thresh 1.000e-08
Using PNOs for Singles Fock computation
Use new domains
Use fully linear algorithm
TCutTNO:           1.000e-09
TCutMP2Pairs:      1.000e-06
TCutDOStrong:      2.000e-03
TCutMKNStrong:     1.000e-02
TCutMKNWeak:       1.000e-01
TCutDOWeak:        4.000e-03
NTCutTNO:          1

--------------------------
Calculating differential overlap integrals ... ok
--------------------------
ELECTRON PAIR PRESCREENING
--------------------------

Dipole-based pair screening          .... used

   TCutDOij = 1.000000e-05
   TCutPre  = 1.000000e-07
   .... Finished loop over pairs
Total time spent in the prescreening                  ...     0.000 sec
sum of pair energies estimated for screened out pairs ...       0.000000000000 Eh
Thresholds for map construction and integral transformation for crude MP2:
   TCutMKN                    ...     1.0e-02
   TCutDO                     ...     1.0e-02
   TCutPairs                  ...     1.0e-05
   TCutPNO_CrudeMP2           ...     1.0e-07
   TCutPNOSingles_CrudeMP2    ...     3.0e-09
--------------------------------
LOCAL RI TRANSFORMATION (IAVPAO)
--------------------------------

Orbital window:      11 to 42
Number of PAOs:     244
Basis functions:    244 (120 shells)
Aux. functions:     868 (306 shells)

Processing maps (0.0 sec)
Average map sizes:
   Aux shells -> MOs              32.0
   Aux shells -> PAOs            244.0
   MOs        -> AO shells       112.5
   PAOs       -> AO shells       119.6

Calculating integrals (0.9 sec, 51.717 MB)
Sorting integrals (0.1 sec, 51.707 MB)
Total time for the integral transformation: 1.0 sec
--------------------------------
INITIAL GUESS AND PNO GENERATION
--------------------------------

PNO truncation parameters                   .... 
    PAOOverlapThresh   =        1.000e-08

    TCutPairs          =        1.000e-05
    TCutPNO            =        1.000e-07
    TCutPNOSingles     =        3.000e-09
    TCutMP2Pairs       =        1.000e-06
    TCutMKN            =        1.000e-02
    TCutDO             =        1.000e-02

Pair selection                          .... not used
Type of local MP2 treatment                 .... semi-local MP2
Strategy for PNO selection                  .... occupation number selection
Pair density normalization                  .... MP2 norm
Spin component scaling                      .... not used

   .... Finished loop over pairs
Making pair pair interaction lists          ... done

                       ===========================
                        484 OF  528 PAIRS ARE KEPT CCSD PAIRS
                         44 OF  528 PAIRS ARE KEPT MP2 PAIRS FOR (T)
                          0 OF  528 PAIRS ARE SKIPPED
                       ===========================

Total time spent in the initial guess                 ...     3.165 sec
SL-MP2 correlation energy (all non-screened pairs)    ...      -1.537268531499 Eh

Initial PNO correlation energy                        ...      -1.536115445656 Eh
sum of pair energies prescreened and skipped MP2 pairs...       0.000000000000 Eh
sum of pair energies of crude MP2 skipped pairs only  ...       0.000000000000 Eh
sum of MP2 pair energies for pairs that were not kept ...      -0.000263347602 Eh
sum of PNO error estimates for the kept pairs         ...      -0.000889738241 Eh
                                                          --------------------
sum of all corrections                                         -0.001153085843
Initial total correlation energy                               -1.537268531499
Thresholds for map construction and integral transformation for fine MP2 and CCSD(T) calculation:
   TCutMKN   ...     1.0e-03
   TCutDO    ...     5.0e-03
   TCutPairs ...     1.0e-05
   TCutCMO   ...     1.0e-03
   TCutCPAO  ...     1.0e-03

Thresholds for map construction and integral transformation for strong Triples:
   TCutMKN   ...     1.0e-02
   TCutDO    ...     1.0e-02
   TCutCMO   ...     1.0e-03
   TCutCPAO  ...     1.0e-03

Thresholds for map construction and integral transformation for weak Triples:
   TCutMKN   ...     1.0e-01
   TCutDO    ...     2.0e-02
   TCutCMO   ...     1.0e-03
   TCutCPAO  ...     1.0e-03

--------------------------------
LOCAL RI TRANSFORMATION (IAVPAO)
--------------------------------

Orbital window:      11 to 42
Number of PAOs:     244
Basis functions:    244 (120 shells)
Aux. functions:     868 (306 shells)

Processing maps (0.0 sec)
Average map sizes:
   Aux shells -> MOs              32.0
   Aux shells -> PAOs            244.0
   MOs        -> AO shells       112.5
   PAOs       -> AO shells       119.6

Calculating integrals (0.9 sec, 51.717 MB)
Sorting integrals (0.1 sec, 51.707 MB)
Total time for the integral transformation: 1.0 sec
--------------------------------
INITIAL GUESS AND PNO GENERATION
--------------------------------

PNO truncation parameters                   .... 
    ScaleTCutPNO       =        1.000e-02
    PAOOverlapThresh   =        1.000e-08

    TCutPairs          =        1.000e-05
    TCutPNO            =        1.000e-07
    TCutPNOSingles     =        3.000e-09
    TCutMP2Pairs       =        1.000e-06
    TCutMKN            =        1.000e-03
    TCutDO             =        5.000e-03

Pair selection                          .... not used
Type of local MP2 treatment                 .... full local PMP2
Strategy for PNO selection                  .... occupation number selection
Pair density normalization                  .... MP2 norm
Spin component scaling                      .... not used

PASS-1: Formation of initial guess LMP2 amplitudes
Initial amplitudes guess done. Entering LMP2 iteration loop:
   Max. no of iterations          ...  50
   Energy convergence tolerance   ...    1.0e-07
   Residual convergence tolerance ...    5.0e-07
   Fock matrix cutoff             ...    1.0e-05 Eh
   DIIS convergence acceleration parameters:
        Max # vectors in DIIS     ... 7
        Start iteration of DIIS   ... 0
        Levelshift                ... 2.000e-01
        Damping factor 1          ... 5.000e-01
        Damping factor 2          ... 1.000e+00
   L-MP2 PNO cut-off              ...   1.0e-09
   L-MP2 PNO cut-off (core)       ...   1.0e-11
                           *** Turning on DIIS ***
LMP2-Iter=   0:  ELMP2= -1.574292529193  DE=   3.6e-02 RMAX=   2.2e-02
LMP2-Iter=   1:  ELMP2= -1.592238185494  DE=   1.8e-02 RMAX=   1.0e-02
LMP2-Iter=   2:  ELMP2= -1.595305564240  DE=   3.1e-03 RMAX=   4.2e-03
LMP2-Iter=   3:  ELMP2= -1.595652537611  DE=   3.5e-04 RMAX=   1.6e-03
LMP2-Iter=   4:  ELMP2= -1.595649018452  DE=   3.5e-06 RMAX=   4.4e-04
LMP2-Iter=   5:  ELMP2= -1.595637520156  DE=   1.1e-05 RMAX=   1.0e-04
LMP2-Iter=   6:  ELMP2= -1.595635340643  DE=   2.2e-06 RMAX=   1.3e-05
LMP2-Iter=   7:  ELMP2= -1.595635375875  DE=   3.5e-08 RMAX=   1.5e-06
LMP2-Iter=   8:  ELMP2= -1.595635437332  DE=   6.1e-08 RMAX=   2.0e-07
LMP2-Iter=   9:  ELMP2= -1.595635436678  DE=   6.5e-10 RMAX=   3.9e-08 => CONVERGED
PASS-2: Formation of Pair natural orbitals
   .... Finished loop over pairs

 PNO Occupation Number Statistics: 
  | Av. % of trace(Dij) retained        ...  99.003252700063
  | sigma^2 in % of trace(Dij) retained ...   1.95e+00
  | Av. % of trace(Di) retained         ...  99.999844423778
  | sigma^2 in % of trace(Di) retained  ...   6.11e-10
 Distributions of % trace(Dij) recovered:
  |       >= 99.9  ...   146 ( 27.7 % of all pairs)
  |   [80.0, 90.0) ...     2 (  0.4 % of all pairs)
  |   [90.0, 99.0) ...   196 ( 37.1 % of all pairs)
  |   [99.0, 99.9) ...   184 ( 34.8 % of all pairs)
 Distributions of % trace(Di) recovered :
  |       >= 99.9  ...    32 (100.0 % of all I-pairs )

Making pair pair interaction lists          ... done

                       ===========================
                        484 OF  528 PAIRS ARE KEPT
                       ===========================

Total time spent in the initial guess                 ...    21.621 sec
L-MP2 correlation energy (all non-screened pairs)     ...      -1.595635436678 Eh
L-MP2 PNO error correction                            ...      -0.000020745650 Eh
                                                          --------------------
Initial total L-MP2 energy (non-screened pairs)       ...      -1.595656182328 Eh

Initial PNO correlation energy                        ...      -1.594634795748 Eh
sum of pair energies estimated for screened out pairs ...       0.000000000000 Eh
sum of MP2 pair energies for pairs that were not kept ...      -0.000325958130 Eh
sum of PNO error estimates for the kept pairs         ...      -0.000845285446 Eh
                                                          --------------------
sum of all corrections                                         -0.001171243576
Initial total correlation energy                               -1.595806039324
Thresholds for map construction and integral transformation for fine MP2 and CCSD(T) calculation:
   TCutMKN   ...     1.0e-03
   TCutDO    ...     5.0e-03
   TCutPairs ...     1.0e-05
   TCutCMO   ...     1.0e-03
   TCutCPAO  ...     1.0e-03

Time for aux screen maps:            0.010
Time for maps after fine MP2:            0.036
-----------------------------
LOCAL RI TRANSFORMATION (IJV)
-----------------------------

Orbital window:      11 to 42
Basis functions:    244 (120 shells)
Aux. functions:     868 (306 shells)

Processing maps (0.0 sec)
Average map sizes:
   Aux shells -> MOs(i)           32.0
   Aux shells -> MOs(j)           32.0
   MOs        -> AO shells       112.5

Calculating integrals (0.8 sec, 6.791 MB)
Sorting integrals (0.0 sec, 6.782 MB)
Total time for the integral transformation: 0.8 sec
--------------------------------
LOCAL RI TRANSFORMATION (VABPAO)
--------------------------------

Number of PAOs:     244
Basis functions:    244 (120 shells)
Aux. functions:     868 (306 shells)

Processing maps (0.0 sec)
Average map sizes:
   Aux shells -> PAOs            244.0
   PAOs       -> AO shells       119.6

Calculating integrals (1.6 sec, 699.068 MB)
Finished


-------------------------------------
Pair Pair Term precalculation with     
RI-(ij|mn) and (im|jn) transformation  
ON THE FLY                             
-------------------------------------

   IBatch   1 (of   2)              ... done (   42.259 sec)
   IBatch   2 (of   2)              ... done (   36.416 sec)
Total EXT                           ...          78.675 sec

---------------------
RI-PNO TRANSFORMATION
---------------------

Total Number of PNOs                   ... 11172
Average number of PNOs per pair        ...    23
Maximal number of PNOs per pair        ...    45
   #pairs with  1 -  5 PNOs   :    0
   #pairs with  6 - 10 PNOs   :  110
   #pairs with 11 - 15 PNOs   :   47
   #pairs with 16 - 20 PNOs   :   54
   #pairs with 21 - 25 PNOs   :   54
   #pairs with 26 - 30 PNOs   :   58
   #pairs with 31 - 35 PNOs   :   76
   #pairs with 36 - 40 PNOs   :   69
   #pairs with 41 - 45 PNOs   :   16
   #pairs with 46 - 50 PNOs   :    0

Generation of (ij|ab)[P] integrals            ... on
Generation of (ia|bc)[P],(ja|bc)[P] integrals ... on
Storage of 3 and 4 external integrals         ... on
Generation of ALL (ka|bc)[P] integrals        ... on
Keep RI integrals in memory                   ... off

Ibatch:  1 (of  1)
Starting 2-4 index PNO integral generation ... done

Timings:
Total PNO integral transformation time     ...         24.171 sec
Size of the 3-external file                ...        82 MB
Size of the 4-external file                ...       364 MB
Size of the IKJL file                      ...         0 MB
Size of the all 3-external file            ...      1313 MB
Size of the 1-external file                ...         8 MB

Making pair/pair overlap matrices          ... done (    7.611 sec)
Size of the pair overlap file              ... 615 MB
Redoing the guess amplitudes               ... done (    0.003 sec)

-------------------------
FINAL STARTUP INFORMATION
-------------------------

E(0)                                       ...   -464.047123686
E(L-MP2)                                   ...     -1.595656182
E(L-MP2) including corrections             ...     -1.595806039
Initial E(tot)                             ...   -465.642929726
<T|T>                                      ...      0.490134169
Number of pairs included                   ... 484
Total number of pairs                      ... 528

------------------------------------------------
                  RHF COUPLED CLUSTER ITERATIONS
------------------------------------------------

Number of PNO amplitudes to be optimized   ...       322026
Number of non-PNO amplitudes               ...     19554084
Untruncated number of regular amplitudes   ...     21331728

Iter       E(tot)           E(Corr)          Delta-E          Residual     Time
  0   -465.584885972     -1.536591042      0.059065140      0.018973473   10.34
                           *** Turning on DIIS ***
  1   -465.695926860     -1.647631930     -0.111040888      0.015390746   10.35
  2   -465.749418278     -1.701123348     -0.053491418      0.008340480   10.29
  3   -465.757645533     -1.709350603     -0.008227255      0.005164278   11.23
  4   -465.759877949     -1.711583019     -0.002232416      0.002701963   10.19
  5   -465.760535179     -1.712240249     -0.000657230      0.001244180   10.06
  6   -465.760709109     -1.712414179     -0.000173930      0.000449363   10.17
  7   -465.760735280     -1.712440350     -0.000026171      0.000178848   10.17
  8   -465.760731651     -1.712436721      0.000003629      0.000065880   10.13
  9   -465.760727955     -1.712433026      0.000003696      0.000024154   10.14
 10   -465.760727307     -1.712432377      0.000000648      0.000008154   10.20
               --- The Coupled-Cluster iterations have converged ---

----------------------
COUPLED CLUSTER ENERGY
----------------------

E(0)                                       ...   -464.047123686
E(CORR)(strong-pairs)                      ...     -1.712432377
E(CORR)(weak-pairs)                        ...     -0.001171244
E(CORR)(corrected)                         ...     -1.713603621
E(TOT)                                     ...   -465.760727307
Singles Norm <S|S>**1/2                    ...      0.081972172  
T1 diagnostic                              ...      0.010246522  

------------------
LARGEST AMPLITUDES
------------------
  19-> 43  19-> 43       0.061598
  18-> 43  18-> 43       0.060224
  19-> 43  18-> 43       0.052822
  34-> 52  34-> 52       0.041774
  26-> 52  26-> 52       0.041755
  30-> 52  30-> 52       0.040422
  41-> 52  41-> 52       0.039929
  31-> 43  31-> 43       0.039129
  27-> 52  27-> 52       0.038673
  32-> 52  32-> 52       0.038552
  28-> 43  28-> 43       0.038330
  35-> 43  35-> 43       0.038092
  36-> 52  36-> 52       0.038043
  37-> 52  37-> 52       0.037397
  29-> 43  29-> 43       0.037288
  25-> 43  25-> 43       0.037113


-------------------------------------------
DLPNO BASED TRIPLES CORRECTION
-------------------------------------------

Singles multiplier          ...  1.000000
TCutTNO                     ... 1.000e-09
TCutMP2Pairs                ... 1.000e-06
TCutDOStrong                ... 1.000e-02
TCutMKNStrong               ... 1.000e-02
TCutDOWeak                  ... 2.000e-02
TCutMKNWeak                 ... 1.000e-01

Fragment selection                          .... not used
Number of Triples that are to be computed   ...      5636

 . . . . . . . . .
10% done  
20% done  
30% done  
40% done  
50% done  
60% done  
70% done  
80% done  
90% done               (    229.226 sec)
Triples timings:
Total time for T0               ...   256.085 sec
Total time for Iterative (T)    ...     0.000 sec
Total time of overall (T)       ...   272.771 sec

Triples List generation         ...     0.000 sec
TNO generation                  ...    26.851 sec
Pair density generation         ...     0.004 sec
Look up tables                  ...     0.000 sec
Generating 3-index integrals    ...   142.805 sec
  Make 4-ind.int. from 3-ind.int...    22.701 sec
  Projecting amplitudes (D + S) ...    40.898 sec
  Downprojecting integrals      ...     0.008 sec
  Energy contr. (sum over a,b,c)...     6.517 sec
Fitting ET(->0)                 ...     0.000 sec

Everything after 3-index        ...    86.421 sec

Timing details:
 TNO integrals                  ...   161.927 sec
   Reading 3-index integrals    ...     0.136 sec
   Sorting integrals            ...    25.320 sec
       Sorting integrals 1      ...     0.008 sec
       Sorting integrals 2      ...    15.315 sec
       Sorting integrals 3      ...     0.943 sec
       Sorting integrals 4      ...     0.224 sec
       Sorting integrals 5      ...     0.466 sec
       Sorting integrals 6      ...     8.363 sec
   Calculating local VM**-1/2   ...     1.394 sec
   Orthogonal. integrals        ...     1.902 sec
   Multipl. 3-index integrals   ...   133.175 sec
   All concerning IRIab (w/TNO) ...     9.903 sec

 Calculate W0/W1                ...    16.264 sec
 W 3-ext contribution           ...     8.182 sec
 W 3-int contribution           ...     4.130 sec
 Sorting W                      ...     3.556 sec

 V exchange contribution        ...     2.761 sec

 Timings for Triples without generation
     of 3-index integrals       ...    86.406 sec
       0 weak pairs             ...    78.953 sec
       1 weak pair              ...     7.453 sec
       2 weak pairs             ...     0.000 sec
       3 weak pairs             ...     0.000 sec
  Extra time for extrapolation  ...     0.000 sec

Number of Triples   (0, 1, 2, 3 weak pairs; overall):   4772     864       0       0  (  5636)
Number of Atoms     (0, 1, 2, 3 weak pairs; overall):   24.6    19.2     0.0     0.0  (    29)
Number of PAOs      (0, 1, 2, 3 weak pairs; overall):  212.9   179.3     0.0     0.0  (   244)
Number of AuxFcns   (0, 1, 2, 3 weak pairs; overall):  280.9   238.7     0.0     0.0  (   868)
Number of TNOs      (0, 1, 2, 3 weak pairs         ):   58.6    45.7     0.0     0.0
Aver. Number of NTNO, Atoms, PAOs, AuxFcns / Triples:   5636    56.6    23.7   207.8   274.4

Triples Correction (T)                     ...     -0.054778125
Final correlation energy                   ...     -1.768381746
E(CCSD)                                    ...   -465.760727307
E(CCSD(T))                                 ...   -465.815505432


Maximum memory used throughout the entire calculation: 7949.3 MB


------------------------------------------------------------------------------- 
                                     TIMINGS                                   
------------------------------------------------------------------------------- 


Total execution time                   ...      534.406 sec

Localization of occupied MO's          ...        0.603 sec (  0.1%)
Fock Matrix Formation                  ...        4.788 sec (  0.9%)
Global overlap, Fock, MKN matrices     ...        0.161 sec (  0.0%)
Differential overlap integrals         ...        0.297 sec (  0.1%)
Organizing maps                        ...        0.105 sec (  0.0%)
RI 3-index integral generations        ...        4.553 sec (  0.9%)
RI-PNO integral transformation         ...      112.262 sec ( 21.0%)
Initial Guess                          ...       24.819 sec (  4.6%)
DIIS Solver                            ...        1.476 sec (  0.3%)
State Vector Update                    ...        0.032 sec (  0.0%)
Sigma-vector construction              ...      112.944 sec ( 21.1%)
  <0|H|D>                              ...        0.001 sec (  0.0% of sigma)
  <D|H|D>(0-ext)                       ...       10.339 sec (  9.2% of sigma)
  <D|H|D>(2-ext Fock)                  ...        0.028 sec (  0.0% of sigma)
  <D|H|D>(2-ext)                       ...       24.891 sec ( 22.0% of sigma)
  <D|H|D>(4-ext)                       ...        4.738 sec (  4.2% of sigma)
  <D|H|D>(4-ext-corr)                  ...       29.287 sec ( 25.9% of sigma)
  CCSD doubles correction              ...        0.694 sec (  0.6% of sigma)
  <S|H|S>                              ...        0.708 sec (  0.6% of sigma)
  <S|H|D>(1-ext)                       ...        1.137 sec (  1.0% of sigma)
  <D|H|S>(1-ext)                       ...        0.037 sec (  0.0% of sigma)
  <S|H|D>(3-ext)                       ...        0.363 sec (  0.3% of sigma)
  Fock-dressing                        ...       23.059 sec ( 20.4% of sigma)
  Singles amplitudes                   ...        0.874 sec (  0.8% of sigma)
  (ik|jl)-dressing                     ...        8.953 sec (  7.9% of sigma)
  (ij|ab),(ia|jb)-dressing             ...        4.302 sec (  3.8% of sigma)
  Pair energies                        ...        0.010 sec (  0.0% of sigma)
Total Time for computing (T)           ...      273.004 sec ( 51.1% of ALL)


-------------------------   --------------------
FINAL SINGLE POINT ENERGY      -465.815505432070
-------------------------   --------------------


                            ***************************************
                            *     ORCA property calculations      *
                            ***************************************

                                    ---------------------
                                    Active property flags
                                    ---------------------
   (+) Dipole Moment


------------------------------------------------------------------------------
                       ORCA ELECTRIC PROPERTIES CALCULATION
------------------------------------------------------------------------------

Dipole Moment Calculation                       ... on
Quadrupole Moment Calculation                   ... off
Polarizability Calculation                      ... off
GBWName                                         ... 2_keto_cyclodecanone.gbw
Electron density file                           ... 2_keto_cyclodecanone.scfp.tmp
The origin for moment calculation is the CENTER OF MASS  = (-0.121532, -0.035540 -0.014600)

-------------
DIPOLE MOMENT
-------------
                                X             Y             Z
Electronic contribution:     -9.17340      -2.64377      -0.87914
Nuclear contribution   :     10.45183       3.05655       1.25565
                        -----------------------------------------
Total Dipole Moment    :      1.27842       0.41278       0.37651
                        -----------------------------------------
Magnitude (a.u.)       :      1.39518
Magnitude (Debye)      :      3.54626



--------------------
Rotational spectrum 
--------------------
 
Rotational constants in cm-1:     0.047751     0.029003     0.020382 
Rotational constants in MHz :  1431.524333   869.486120   611.026460 

 Dipole components along the rotational axes: 
x,y,z [a.u.] :     1.296842    -0.362789     0.364838 
x,y,z [Debye]:     3.296310    -0.922137     0.927344 

 

Timings for individual modules:

Sum of individual times         ...      583.122 sec (=   9.719 min)
GTO integral calculation        ...        3.588 sec (=   0.060 min)   0.6 %
SCF iterations                  ...       44.829 sec (=   0.747 min)   7.7 %
MDCI module                     ...      534.706 sec (=   8.912 min)  91.7 %
                             ****ORCA TERMINATED NORMALLY****
TOTAL RUN TIME: 0 days 0 hours 9 minutes 43 seconds 395 msec
2_keto_cyclodecanone.gbw -> /home1/pantazis/klk/VDZ/Oxygen_compounds/2_keto_cyclodecanone.gbw
2_keto_cyclodecanone.ges -> /home1/pantazis/klk/VDZ/Oxygen_compounds/2_keto_cyclodecanone.ges
2_keto_cyclodecanone.job -> /home1/pantazis/klk/VDZ/Oxygen_compounds/2_keto_cyclodecanone.job
2_keto_cyclodecanone.loc -> /home1/pantazis/klk/VDZ/Oxygen_compounds/2_keto_cyclodecanone.loc
2_keto_cyclodecanone.nodes -> /home1/pantazis/klk/VDZ/Oxygen_compounds/2_keto_cyclodecanone.nodes
2_keto_cyclodecanone.prop -> /home1/pantazis/klk/VDZ/Oxygen_compounds/2_keto_cyclodecanone.prop
2_keto_cyclodecanone_property.txt -> /home1/pantazis/klk/VDZ/Oxygen_compounds/2_keto_cyclodecanone_property.txt
2_keto_cyclodecanone.xyz -> /home1/pantazis/klk/VDZ/Oxygen_compounds/2_keto_cyclodecanone.xyz
cp: cannot stat 2_keto_cyclodecanone.asa.inp: No such file or directory
