! Job execution by suborca V 6.07 on ZEUS !
Job started from zeus1, running /scratch/pantazis/2_Me_THP_ax__GQgIVt/orca/orca copied from /opt/orca on zeussn126 in /scratch/pantazis/2_Me_THP_ax__GQgIVt
Job execution start: Sat Jun 29 11:40:00 CEST 2019
Shared library path: /scratch/pantazis/2_Me_THP_ax__GQgIVt/orca:/opt/openmpi_1.10.2/lib:/opt/intel/mkl/lib/intel64:/opt/intel/lib/intel64:
PBS Job ID is: 158886.icqc
izeussn126
izeussn126
izeussn126
izeussn126

                                 *****************
                                 * O   R   C   A *
                                 *****************

           --- An Ab Initio, DFT and Semiempirical electronic structure package ---

                  #######################################################
                  #                        -***-                        #
                  #          Department of theory and spectroscopy      #
                  #               Directorship: Frank Neese             #
                  #        Max Planck Institute fuer Kohlenforschung    #
                  #                Kaiser Wilhelm Platz 1               #
                  #                 D-45470 Muelheim/Ruhr               #
                  #                      Germany                        #
                  #                                                     #
                  #                  All rights reserved                #
                  #                        -***-                        #
                  #######################################################


                         Program Version 4.1.x  -  STABLE  -
                                (SVN: $Rev: 14094$)
                ($Date: 2019-06-14 15:01:15 +0200 (Fri, 14 Jun 2019) $)

                         (BUILD: $Sun Jun 23 06:18:31 CEST 2019$)


 With contributions from (in alphabetic order):
   Daniel Aravena         : Magnetic Properties
   Michael Atanasov       : Ab Initio Ligand Field Theory
   Alexander A. Auer      : GIAO ZORA
   Ute Becker             : Parallelization
   Giovanni Bistoni       : ED, Open-shell LED
   Martin Brehm           : Molecular dynamics
   Dmytro Bykov           : SCF Hessian
   Vijay G. Chilkuri      : MRCI spin determinant printing
   Dipayan Datta          : RHF DLPNO-CCSD density
   Achintya Kumar Dutta   : EOM-CC, STEOM-CC
   Dmitry Ganyushin       : Spin-Orbit,Spin-Spin,Magnetic field MRCI
   Miquel Garcia          : C-PCM Hessian
   Yang Guo               : DLPNO-NEVPT2, CIM, IAO-localization
   Andreas Hansen         : Spin unrestricted coupled pair/coupled cluster methods
   Benjamin Helmich-Paris : CASSCF linear response (MC-RPA)
   Lee Huntington         : MR-EOM, pCC
   Robert Izsak           : Overlap fitted RIJCOSX, COSX-SCS-MP3, EOM
   Christian Kollmar      : KDIIS, OOCD, Brueckner-CCSD(T), CCSD density
   Simone Kossmann        : Meta GGA functionals, TD-DFT gradient, OOMP2, MP2 Hessian
   Martin Krupicka        : AUTO-CI
   Lucas Lang             : DCDCAS
   Dagmar Lenk            : GEPOL surface, SMD
   Dimitrios Liakos       : Extrapolation schemes; parallel MDCI
   Dimitrios Manganas     : ROCIS; embedding schemes
   Dimitrios Pantazis     : SARC Basis sets
   Taras Petrenko         : DFT Hessian,TD-DFT gradient, ASA, ECA, R-Raman, ABS, FL, XAS/XES, NRVS
   Peter Pinski           : DLPNO-MP2, DLPNO-MP2 Gradient
   Christoph Reimann      : Effective Core Potentials
   Marius Retegan         : Local ZFS, SOC
   Christoph Riplinger    : Optimizer, TS searches, QM/MM, DLPNO-CCSD(T), (RO)-DLPNO pert. Triples
   Tobias Risthaus        : Range-separated hybrids, TD-DFT gradient, RPA, STAB
   Michael Roemelt        : Restricted open shell CIS
   Masaaki Saitow         : Open-shell DLPNO
   Barbara Sandhoefer     : DKH picture change effects
   Avijit Sen             : IP-ROCIS
   Kantharuban Sivalingam : CASSCF convergence, NEVPT2, FIC-MRCI
   Bernardo de Souza      : ESD, SOC TD-DFT
   Georgi Stoychev        : AutoAux, RI-MP2 NMR
   Willem Van den Heuvel  : Paramagnetic NMR
   Boris Wezisla          : Elementary symmetry handling
   Frank Wennmohs         : Technical directorship


 We gratefully acknowledge several colleagues who have allowed us to
 interface, adapt or use parts of their codes:
   Stefan Grimme, W. Hujo, H. Kruse,             : VdW corrections, initial TS optimization,
                  C. Bannwarth                     DFT functionals, gCP, sTDA/sTD-DF
   Ed Valeev                                     : LibInt (2-el integral package), F12 methods
   Garnet Chan, S. Sharma, J. Yang, R. Olivares  : DMRG
   Ulf Ekstrom                                   : XCFun DFT Library
   Mihaly Kallay                                 : mrcc  (arbitrary order and MRCC methods)
   Andreas Klamt, Michael Diedenhofen            : otool_cosmo (COSMO solvation model)
   Jiri Pittner, Ondrej Demel                    : Mk-CCSD
   Frank Weinhold                                : gennbo (NPA and NBO analysis)
   Christopher J. Cramer and Donald G. Truhlar   : smd solvation model
   Lars Goerigk                                  : TD-DFT with DH, B97 family of functionals
   V. Asgeirsson, H. Jonsson                     : NEB implementation
   FAccTs GmbH                                   : IRC, NEB, NEB-TS, Multilevel


 Your calculation uses the libint2 library for the computation of 2-el integrals
 For citations please refer to: http://libint.valeyev.net

 This ORCA versions uses:
   CBLAS   interface :  Fast vector & matrix operations
   LAPACKE interface :  Fast linear algebra routines
   SCALAPACK package :  Parallel linear algebra routines




***************************************
The coordinates will be read from file: 2_Me_THP_ax.xyz
***************************************


----- Orbital basis set information -----
Your calculation utilizes the basis: cc-pVDZ 
       H, B-Ne : Obtained from the ccRepo (grant-hill.group.shef.ac.uk/ccrepo) Feb. 2017
                 T. H. Dunning, Jr., J. Chem. Phys. 90, 1007 (1989)
            He : Obtained from the ccRepo (grant-hill.group.shef.ac.uk/ccrepo) Feb. 2017
                 D. E. Woon, T. H. Dunning, Jr., J. Chem. Phys. 100, 2975 (1994)
  Li-Be, Na-Mg : Obtained from the ccRepo (grant-hill.group.shef.ac.uk/ccrepo) Feb. 2017
                 B. P. Prascher, D. E. Woon, K. A. Peterson, T. H. Dunning, Jr., A. K. Wilson, Theor. Chem. Acc. 128, 69 (2011)
         Al-Ar : Obtained from the ccRepo (grant-hill.group.shef.ac.uk/ccrepo) Feb. 2017
                 D. E. Woon, T. H. Dunning, Jr., J. Chem. Phys. 98, 1358 (1993)
            Ca : Obtained from the Peterson Research Group Website (tyr0.chem.wsu.edu/~kipeters) Feb. 2017
                 J. Koput, K. A. Peterson, J. Phys. Chem. 106, 9595 (2002)
         Sc-Zn : Obtained from the ccRepo (grant-hill.group.shef.ac.uk/ccrepo) Feb. 2017
                 N. B. Balabanov, K. A. Peterson, J. Chem. Phys. 123, 064107 (2005)
                 N. B. Balabanov, K. A. Peterson, J. Chem. Phys. 125, 074110 (2006)
         Ga-Kr : Obtained from the ccRepo (grant-hill.group.shef.ac.uk/ccrepo) Feb. 2017
                 A. K. Wilson, D. E. Woon, K. A. Peterson, T. H. Dunning, Jr., J. Chem. Phys. 110, 7667 (1999)

----- AuxC basis set information -----
Your calculation utilizes the auxiliary basis: cc-pVDZ/C 
  H-He, B, Ne, Al-Ar, Ga-Br : Obtained from the EMSL Basis Set Exchange (bse.pnl.gov) Feb. 2017
                              F. Weigend, A. Kohn, C. Hattig, J. Chem. Phys. 116, 3175 (2002)
               Li-Be, Na-Mg : Obtained from the EMSL Basis Set Exchange (bse.pnl.gov) Feb. 2017
                              C. Haettig, Phys. Chem. Chem. Phys. 7, 59 (2005)
                        C-F : Obtained from the EMSL Basis Set Exchange (bse.pnl.gov) Feb. 2017
                              C. Haettig, Phys. Chem. Chem. Phys. 7, 59 (2005)
                              F. Weigend, A. Kohn, C. Hattig, J. Chem. Phys. 116, 3175 (2002)
                         Kr : Obtained from the TURBOMOLE 7.0 basis set library
                              F. Weigend, A. Kohn, C. Hattig, J. Chem. Phys. 116, 3175 (2002)
                              S function revised in Sep. 2009

----- AuxJK basis set information -----
Your calculation utilizes the auxiliary basis: cc-pVTZ/JK 
  H, B-F, Al-Cl, Ga-Br : Obtained from the TURBOMOLE 7.0 basis set library

================================================================================
                                        WARNINGS
                       Please study these warnings very carefully!
================================================================================


WARNING: MDCI localization with Augmented Hessian Foster-Boys
  ===> : Switching off randomization!

WARNING: Post HF methods need fully converged wavefunctions
  ===> : Setting SCFConvForced true
         You can overwrite this default with %scf ConvForced false 


INFO   : the flag for use of LIBINT has been found!

================================================================================
                                       INPUT FILE
================================================================================
NAME = 2_Me_THP_ax.inp
|  1> ! RHF DLPNO-CCSD(T) cc-pVDZ RIJK cc-pVTZ/JK cc-pVDZ/C
|  2> ! KDIIS SOSCF TightSCF TightPNO
|  3> 
|  4> %pal nprocs 4 end
|  5> 
|  6> %maxcore 8000
|  7> 
|  8> %scf maxiter 300
|  9>      shift shift 0.2 erroff 0.1 end
| 10> end
| 11> 
| 12> * xyzfile 0 1 2_Me_THP_ax.xyz 
| 13> 
| 14> 
| 15>                          ****END OF INPUT****
================================================================================

                       ****************************
                       * Single Point Calculation *
                       ****************************

---------------------------------
CARTESIAN COORDINATES (ANGSTROEM)
---------------------------------
  C      1.075690    0.040090   -0.502030
  O      0.288670   -1.150990   -0.686820
  C     -0.804710   -1.299220    0.220100
  C     -1.772210   -0.116600    0.149810
  C     -1.018360    1.199840    0.390470
  C      0.184240    1.294570   -0.563350
  C      1.951920   -0.040710    0.754750
  H     -1.294170   -2.233360   -0.070620
  H     -0.434770   -1.424980    1.250540
  H     -2.573840   -0.253630    0.886790
  H     -2.240530   -0.098790   -0.843200
  H     -0.679930    1.242890    1.434790
  H     -1.682880    2.059630    0.245200
  H      0.787420    2.184830   -0.345960
  H     -0.185770    1.400200   -1.591200
  H      1.740140    0.040250   -1.373210
  H      2.522630   -0.974430    0.751940
  H      2.660700    0.794880    0.769210
  H      1.372210    0.002510    1.681860

----------------------------
CARTESIAN COORDINATES (A.U.)
----------------------------
  NO LB      ZA    FRAG     MASS         X           Y           Z
   0 C     6.0000    0    12.011    2.032760    0.075759   -0.948699
   1 O     8.0000    0    15.999    0.545507   -2.175056   -1.297902
   2 C     6.0000    0    12.011   -1.520682   -2.455170    0.415929
   3 C     6.0000    0    12.011   -3.348992   -0.220342    0.283100
   4 C     6.0000    0    12.011   -1.924422    2.267369    0.737881
   5 C     6.0000    0    12.011    0.348163    2.446383   -1.064577
   6 C     6.0000    0    12.011    3.688594   -0.076931    1.426271
   7 H     1.0000    0     1.008   -2.445627   -4.220439   -0.133452
   8 H     1.0000    0     1.008   -0.821596   -2.692822    2.363178
   9 H     1.0000    0     1.008   -4.863853   -0.479291    1.675790
  10 H     1.0000    0     1.008   -4.233988   -0.186686   -1.593417
  11 H     1.0000    0     1.008   -1.284881    2.348722    2.711360
  12 H     1.0000    0     1.008   -3.180182    3.892137    0.463361
  13 H     1.0000    0     1.008    1.488008    4.128730   -0.653770
  14 H     1.0000    0     1.008   -0.351054    2.645995   -3.006932
  15 H     1.0000    0     1.008    3.288388    0.076061   -2.594991
  16 H     1.0000    0     1.008    4.767080   -1.841406    1.420961
  17 H     1.0000    0     1.008    5.027994    1.502106    1.453596
  18 H     1.0000    0     1.008    2.593101    0.004743    3.178255

--------------------------------
INTERNAL COORDINATES (ANGSTROEM)
--------------------------------
 C      0   0   0     0.000000000000     0.00000000     0.00000000
 O      1   0   0     1.439520542021     0.00000000     0.00000000
 C      2   1   0     1.428270227828   115.01729826     0.00000000
 C      3   2   1     1.529570854358   112.01180269    57.89422406
 C      4   3   2     1.535975693720   110.18296619   304.62912681
 C      5   4   3     1.537853414764   109.84139205    52.65084982
 C      1   2   3     1.534211074559   111.95194796    72.94555403
 H      3   2   1     1.093940926010   105.21207868   179.08741237
 H      3   2   1     1.102033472631   110.40116871   294.82200022
 H      4   3   2     1.097509634673   109.54897617   182.09151319
 H      4   3   2     1.098048122170   108.89739287    64.99174791
 H      5   4   3     1.098632072079   109.49403768   291.43688999
 H      5   4   3     1.096325247087   110.72642200   174.45325517
 H      6   5   4     1.097108651000   110.91752466   185.08914378
 H      6   5   4     1.097515703532   108.85344899    67.58765164
 H      1   2   3     1.095649770912   103.27401452   188.60028948
 H      7   1   2     1.094326659915   109.91863648    51.01966733
 H      7   1   2     1.095805104980   109.88067616   170.06010640
 H      7   1   2     1.094287258721   112.91608818   290.11217663

---------------------------
INTERNAL COORDINATES (A.U.)
---------------------------
 C      0   0   0     0.000000000000     0.00000000     0.00000000
 O      1   0   0     2.720299588573     0.00000000     0.00000000
 C      2   1   0     2.699039575828   115.01729826     0.00000000
 C      3   2   1     2.890470017164   112.01180269    57.89422406
 C      4   3   2     2.902573409491   110.18296619   304.62912681
 C      5   4   3     2.906121788019   109.84139205    52.65084982
 C      1   2   3     2.899238762546   111.95194796    72.94555403
 H      3   2   1     2.067248756847   105.21207868   179.08741237
 H      3   2   1     2.082541453688   110.40116871   294.82200022
 H      4   3   2     2.073992638872   109.54897617   182.09151319
 H      4   3   2     2.075010232767   108.89739287    64.99174791
 H      5   4   3     2.076113738171   109.49403768   291.43688999
 H      5   4   3     2.071754470698   110.72642200   174.45325517
 H      6   5   4     2.073234889547   110.91752466   185.08914378
 H      6   5   4     2.074004107354   108.85344899    67.58765164
 H      1   2   3     2.070478005718   103.27401452   188.60028948
 H      7   1   2     2.067977688288   109.91863648    51.01966733
 H      7   1   2     2.070771544565   109.88067616   170.06010640
 H      7   1   2     2.067903230823   112.91608818   290.11217663

---------------------
BASIS SET INFORMATION
---------------------
There are 3 groups of distinct atoms

 Group   1 Type C   : 17s4p1d contracted to 3s2p1d pattern {881/31/1}
 Group   2 Type O   : 17s4p1d contracted to 3s2p1d pattern {881/31/1}
 Group   3 Type H   : 4s1p contracted to 2s1p pattern {31/1}

Atom   0C    basis set group =>   1
Atom   1O    basis set group =>   2
Atom   2C    basis set group =>   1
Atom   3C    basis set group =>   1
Atom   4C    basis set group =>   1
Atom   5C    basis set group =>   1
Atom   6C    basis set group =>   1
Atom   7H    basis set group =>   3
Atom   8H    basis set group =>   3
Atom   9H    basis set group =>   3
Atom  10H    basis set group =>   3
Atom  11H    basis set group =>   3
Atom  12H    basis set group =>   3
Atom  13H    basis set group =>   3
Atom  14H    basis set group =>   3
Atom  15H    basis set group =>   3
Atom  16H    basis set group =>   3
Atom  17H    basis set group =>   3
Atom  18H    basis set group =>   3
-------------------------------
AUXILIARY BASIS SET INFORMATION
-------------------------------
There are 3 groups of distinct atoms

 Group   1 Type C   : 7s5p4d2f contracted to 7s5p4d2f pattern {1111111/11111/1111/11}
 Group   2 Type O   : 7s5p4d2f contracted to 7s5p4d2f pattern {1111111/11111/1111/11}
 Group   3 Type H   : 3s2p1d contracted to 3s2p1d pattern {111/11/1}

Atom   0C    basis set group =>   1
Atom   1O    basis set group =>   2
Atom   2C    basis set group =>   1
Atom   3C    basis set group =>   1
Atom   4C    basis set group =>   1
Atom   5C    basis set group =>   1
Atom   6C    basis set group =>   1
Atom   7H    basis set group =>   3
Atom   8H    basis set group =>   3
Atom   9H    basis set group =>   3
Atom  10H    basis set group =>   3
Atom  11H    basis set group =>   3
Atom  12H    basis set group =>   3
Atom  13H    basis set group =>   3
Atom  14H    basis set group =>   3
Atom  15H    basis set group =>   3
Atom  16H    basis set group =>   3
Atom  17H    basis set group =>   3
Atom  18H    basis set group =>   3
-------------------------------
AUXILIARY BASIS SET INFORMATION
-------------------------------
There are 3 groups of distinct atoms

 Group   1 Type C   : 10s7p5d2f1g contracted to 10s7p5d2f1g pattern {1111111111/1111111/11111/11/1}
 Group   2 Type O   : 10s7p5d2f1g contracted to 10s7p5d2f1g pattern {1111111111/1111111/11111/11/1}
 Group   3 Type H   : 4s3p2d1f contracted to 4s3p2d1f pattern {1111/111/11/1}

Atom   0C    basis set group =>   1
Atom   1O    basis set group =>   2
Atom   2C    basis set group =>   1
Atom   3C    basis set group =>   1
Atom   4C    basis set group =>   1
Atom   5C    basis set group =>   1
Atom   6C    basis set group =>   1
Atom   7H    basis set group =>   3
Atom   8H    basis set group =>   3
Atom   9H    basis set group =>   3
Atom  10H    basis set group =>   3
Atom  11H    basis set group =>   3
Atom  12H    basis set group =>   3
Atom  13H    basis set group =>   3
Atom  14H    basis set group =>   3
Atom  15H    basis set group =>   3
Atom  16H    basis set group =>   3
Atom  17H    basis set group =>   3
Atom  18H    basis set group =>   3

Checking for AutoStart:
The File: 2_Me_THP_ax.gbw exists
Trying to determine its content:
     ... Fine, the file contains calculation information
     ... Fine, the calculation information was read
     ... Fine, the file contains a basis set
     ... Fine, the basis set was read
     ... Fine, the file contains a geometry
     ... Fine, the geometry was read
     ... Fine, the file contains a set of orbitals
     ... Fine, the orbitals can be read
     => possible old guess file was deleted
     => GBW file was renamed to GES file
     => GES file is set as startup file
     => Guess is set to MORead
     ... now leaving AutoStart



           ************************************************************
           *        Program running with 4 parallel MPI-processes     *
           *              working on a common directory               *
           ************************************************************
------------------------------------------------------------------------------
                           ORCA GTO INTEGRAL CALCULATION
                           -- RI-GTO INTEGRALS CHOSEN --
------------------------------------------------------------------------------

                         BASIS SET STATISTICS AND STARTUP INFO

Gaussian basis set:
 # of primitive gaussian shells          ...  214
 # of primitive gaussian functions       ...  322
 # of contracted shells                  ...   78
 # of contracted basis functions         ...  158
 Highest angular momentum                ...    2
 Maximum contraction depth               ...    8
Auxiliary gaussian basis set:
 # of primitive gaussian shells          ...  295
 # of primitive gaussian functions       ...  913
 # of contracted shells                  ...  295
 # of contracted aux-basis functions     ...  913
 Highest angular momentum                ...    4
 Maximum contraction depth               ...    1
Ratio of auxiliary to basis functions    ...  5.78
Integral package used                  ... LIBINT
 One Electron integrals                  ... done
 Ordering auxiliary basis shells         ... done
 Integral threshhold             Thresh  ...  2.500e-11
 Primitive cut-off               TCut    ...  2.500e-12
 Pre-screening matrix                    ... done
 Shell pair data                         ... 
 Ordering of the shell pairs             ... done (   0.001 sec) 3075 of 3081 pairs
 Determination of significant pairs      ... done (   0.000 sec)
 Creation of shell pair data             ... done (   0.001 sec)
 Storage of shell pair data              ... done (   0.001 sec)
 Shell pair data done in (   0.003 sec)
 Computing two index integrals           ... done
 Cholesky decomposition of the V-matrix  ... done


Timings:
 Total evaluation time                   ...   0.393 sec (  0.007 min)
 One electron matrix time                ...   0.048 sec (  0.001 min) = 12.3%
 Schwartz matrix evaluation time         ...   0.173 sec (  0.003 min) = 44.1%
 Two index repulsion integral time       ...   0.072 sec (  0.001 min) = 18.4%
 Cholesky decomposition of V             ...   0.070 sec (  0.001 min) = 17.8%
 Three index repulsion integral time     ...   0.000 sec (  0.000 min) =  0.0%



           ************************************************************
           *        Program running with 4 parallel MPI-processes     *
           *              working on a common directory               *
           ************************************************************
-------------------------------------------------------------------------------
                                 ORCA SCF
-------------------------------------------------------------------------------

------------
SCF SETTINGS
------------
Hamiltonian:
 Ab initio Hamiltonian  Method          .... Hartree-Fock(GTOs)
 RI-approximation to the Coulomb term is turned on
   Number of auxiliary basis functions  .... 913
   RI-JK (J+K treated both via RI)      .... on


General Settings:
 Integral files         IntName         .... 2_Me_THP_ax
 Hartree-Fock type      HFTyp           .... RHF
 Total Charge           Charge          ....    0
 Multiplicity           Mult            ....    1
 Number of Electrons    NEL             ....   56
 Basis Dimension        Dim             ....  158
 Nuclear Repulsion      ENuc            ....    336.2463641425 Eh

Convergence Acceleration:
 DIIS                   CNVDIIS         .... off
 Newton-Raphson         CNVNR           .... off
 SOSCF                  CNVSOSCF        .... on
   Start iteration      SOSCFMaxIt      ....   150
   Startup grad/error   SOSCFStart      ....  0.003300
 Level Shifting         CNVShift        .... on
   Level shift para.    LevelShift      ....    0.2000
   Turn off err/grad.   ShiftErr        ....    0.1000
 Zerner damping         CNVZerner       .... off
 Static damping         CNVDamp         .... off
 Fernandez-Rico         CNVRico         .... off

SCF Procedure:
 Maximum # iterations   MaxIter         ....   300
 SCF integral mode      SCFMode         .... Direct
   Integral package                     .... LIBINT
 Reset frequency        DirectResetFreq ....    20
 Integral Threshold     Thresh          ....  2.500e-11 Eh
 Primitive CutOff       TCut            ....  2.500e-12 Eh

Convergence Tolerance:
 Convergence Check Mode ConvCheckMode   .... Total+1el-Energy
 Convergence forced     ConvForced      .... 1
 Energy Change          TolE            ....  1.000e-08 Eh
 1-El. energy change                    ....  1.000e-05 Eh
 Orbital Gradient       TolG            ....  1.000e-05
 Orbital Rotation angle TolX            ....  1.000e-05


Diagonalization of the overlap matrix:
Smallest eigenvalue                        ... 3.297e-03
Time for diagonalization                   ...    0.006 sec
Threshold for overlap eigenvalues          ... 1.000e-08
Number of eigenvalues below threshold      ... 0
Time for construction of square roots      ...    0.005 sec
Total time needed                          ...    0.012 sec

---------------------
INITIAL GUESS: MOREAD
---------------------
Guess MOs are being read from file: 2_Me_THP_ax.ges
Input Geometry matches current geometry (good)
Atom 0: N(Shells)= 6 and 10 - projection required
Input basis set needs projection
NBasis(read)= 378
NBasis(calc)= 158
Basis set overlap was calculated
Using GuessMode=FMatrix for the initial guess
C*T matrix was formed
Effective Fockian was calculated
Effective Fockian was diagonalized
Initial density was built
                      ------------------
                      INITIAL GUESS DONE (   0.0 sec)
                      ------------------
--------------
SCF ITERATIONS
--------------
ITER       Energy         Delta-E        Max-DP      RMS-DP      [F,P]   Gradient Norm
                             ****Turning on KDIIS(Cayley)****
                      *** Initiating the SOSCF procedure ***
                           *** Shutting down KDIIS ***
                      *** Re-Reading the Fockian *** 
                      *** Removing any level shift *** 
ITER      Energy       Delta-E        Grad      Rot      Max-DP    RMS-DP
  0   -309.07169791 -309.0716979073  0.003293  0.003293  0.001490  0.000063
  1   -309.07183954  -0.0001416323  0.002987  0.001063  0.012487  0.000565
  2   -309.07246818  -0.0006286448  0.000979  0.000986  0.002637  0.000102
  3   -309.07249297  -0.0000247819  0.000379  0.000185  0.000930  0.000034
  4   -309.07249917  -0.0000062026  0.000039  0.000035  0.000172  0.000005
  5   -309.07249929  -0.0000001258  0.000015  0.000021  0.000045  0.000002
  6   -309.07249931  -0.0000000159  0.000007  0.000004  0.000015  0.000001
                  ***Gradient check signals convergence***
              ***Rediagonalizing the Fockian in SOSCF/NRSCF***

               *****************************************************
               *                     SUCCESS                       *
               *           SCF CONVERGED AFTER   7 CYCLES          *
               *****************************************************


----------------
TOTAL SCF ENERGY
----------------

Total Energy       :         -309.07249931 Eh           -8410.29028 eV

Components:
Nuclear Repulsion  :          336.24636414 Eh            9149.72873 eV
Electronic Energy  :         -645.31886345 Eh          -17560.01901 eV
One Electron Energy:        -1085.97238657 Eh          -29550.81097 eV
Two Electron Energy:          440.65352312 Eh           11990.79196 eV

Virial components:
Potential Energy   :         -617.75413306 Eh          -16809.94456 eV
Kinetic Energy     :          308.68163375 Eh            8399.65428 eV
Virial Ratio       :            2.00126624


---------------
SCF CONVERGENCE
---------------

  Last Energy change         ...   -1.2033e-09  Tolerance :   1.0000e-08
  Last MAX-Density change    ...    3.2267e-06  Tolerance :   1.0000e-07
  Last RMS-Density change    ...    1.5168e-07  Tolerance :   5.0000e-09
  Last Orbital Gradient      ...    8.7005e-07  Tolerance :   1.0000e-05
  Last Orbital Rotation      ...    1.0761e-06  Tolerance :   1.0000e-05

             **** THE GBW FILE WAS UPDATED (2_Me_THP_ax.gbw) ****
             **** DENSITY FILE WAS UPDATED (2_Me_THP_ax.scfp.tmp) ****
             **** ENERGY FILE WAS UPDATED (2_Me_THP_ax.en.tmp) ****
----------------
ORBITAL ENERGIES
----------------

  NO   OCC          E(Eh)            E(eV) 
   0   2.0000     -20.542070      -558.9781 
   1   2.0000     -11.277059      -306.8644 
   2   2.0000     -11.271551      -306.7145 
   3   2.0000     -11.228140      -305.5332 
   4   2.0000     -11.224649      -305.4382 
   5   2.0000     -11.224515      -305.4346 
   6   2.0000     -11.220011      -305.3120 
   7   2.0000      -1.357992       -36.9528 
   8   2.0000      -1.074876       -29.2489 
   9   2.0000      -1.042281       -28.3619 
  10   2.0000      -0.950183       -25.8558 
  11   2.0000      -0.864751       -23.5311 
  12   2.0000      -0.838216       -22.8090 
  13   2.0000      -0.738679       -20.1005 
  14   2.0000      -0.674568       -18.3559 
  15   2.0000      -0.634061       -17.2537 
  16   2.0000      -0.619787       -16.8653 
  17   2.0000      -0.598833       -16.2951 
  18   2.0000      -0.576642       -15.6912 
  19   2.0000      -0.560427       -15.2500 
  20   2.0000      -0.535295       -14.5661 
  21   2.0000      -0.531152       -14.4534 
  22   2.0000      -0.510438       -13.8897 
  23   2.0000      -0.486289       -13.2326 
  24   2.0000      -0.472776       -12.8649 
  25   2.0000      -0.453747       -12.3471 
  26   2.0000      -0.426821       -11.6144 
  27   2.0000      -0.396819       -10.7980 
  28   0.0000       0.175510         4.7759 
  29   0.0000       0.200172         5.4470 
  30   0.0000       0.209891         5.7114 
  31   0.0000       0.226275         6.1573 
  32   0.0000       0.242206         6.5908 
  33   0.0000       0.254766         6.9325 
  34   0.0000       0.264868         7.2074 
  35   0.0000       0.269256         7.3268 
  36   0.0000       0.275059         7.4847 
  37   0.0000       0.279521         7.6062 
  38   0.0000       0.306806         8.3486 
  39   0.0000       0.315262         8.5787 
  40   0.0000       0.334341         9.0979 
  41   0.0000       0.373681        10.1684 
  42   0.0000       0.391628        10.6567 
  43   0.0000       0.405148        11.0246 
  44   0.0000       0.423811        11.5325 
  45   0.0000       0.449088        12.2203 
  46   0.0000       0.462521        12.5858 
  47   0.0000       0.575116        15.6497 
  48   0.0000       0.610457        16.6114 
  49   0.0000       0.628461        17.1013 
  50   0.0000       0.634690        17.2708 
  51   0.0000       0.662055        18.0154 
  52   0.0000       0.666163        18.1272 
  53   0.0000       0.707460        19.2510 
  54   0.0000       0.716061        19.4850 
  55   0.0000       0.783324        21.3153 
  56   0.0000       0.806556        21.9475 
  57   0.0000       0.818626        22.2759 
  58   0.0000       0.819982        22.3128 
  59   0.0000       0.850756        23.1502 
  60   0.0000       0.853551        23.2263 
  61   0.0000       0.856978        23.3196 
  62   0.0000       0.865048        23.5392 
  63   0.0000       0.868505        23.6332 
  64   0.0000       0.883428        24.0393 
  65   0.0000       0.889458        24.2034 
  66   0.0000       0.904180        24.6040 
  67   0.0000       0.907054        24.6822 
  68   0.0000       0.917515        24.9668 
  69   0.0000       0.924009        25.1436 
  70   0.0000       0.931142        25.3377 
  71   0.0000       0.942619        25.6500 
  72   0.0000       0.952827        25.9277 
  73   0.0000       0.969860        26.3912 
  74   0.0000       0.984718        26.7955 
  75   0.0000       1.038844        28.2684 
  76   0.0000       1.109462        30.1900 
  77   0.0000       1.119962        30.4757 
  78   0.0000       1.137095        30.9419 
  79   0.0000       1.163268        31.6541 
  80   0.0000       1.256305        34.1858 
  81   0.0000       1.331162        36.2228 
  82   0.0000       1.361899        37.0592 
  83   0.0000       1.384456        37.6730 
  84   0.0000       1.405872        38.2557 
  85   0.0000       1.429442        38.8971 
  86   0.0000       1.471258        40.0350 
  87   0.0000       1.482658        40.3452 
  88   0.0000       1.531391        41.6713 
  89   0.0000       1.574098        42.8334 
  90   0.0000       1.582891        43.0727 
  91   0.0000       1.624847        44.2143 
  92   0.0000       1.671293        45.4782 
  93   0.0000       1.687533        45.9201 
  94   0.0000       1.693408        46.0800 
  95   0.0000       1.724406        46.9235 
  96   0.0000       1.744003        47.4567 
  97   0.0000       1.768111        48.1127 
  98   0.0000       1.816002        49.4159 
  99   0.0000       1.856207        50.5100 
 100   0.0000       1.867605        50.8201 
 101   0.0000       1.885100        51.2962 
 102   0.0000       1.899869        51.6981 
 103   0.0000       1.909382        51.9569 
 104   0.0000       1.918276        52.1989 
 105   0.0000       1.930114        52.5211 
 106   0.0000       1.947688        52.9993 
 107   0.0000       1.954770        53.1920 
 108   0.0000       1.961617        53.3783 
 109   0.0000       1.970328        53.6154 
 110   0.0000       1.987250        54.0758 
 111   0.0000       1.992934        54.2305 
 112   0.0000       2.013459        54.7890 
 113   0.0000       2.032158        55.2978 
 114   0.0000       2.037765        55.4504 
 115   0.0000       2.054454        55.9045 
 116   0.0000       2.059398        56.0391 
 117   0.0000       2.072440        56.3940 
 118   0.0000       2.077908        56.5427 
 119   0.0000       2.095912        57.0327 
 120   0.0000       2.119682        57.6795 
 121   0.0000       2.165090        58.9151 
 122   0.0000       2.181059        59.3496 
 123   0.0000       2.203458        59.9591 
 124   0.0000       2.229930        60.6795 
 125   0.0000       2.280165        62.0465 
 126   0.0000       2.317735        63.0688 
 127   0.0000       2.348530        63.9068 
 128   0.0000       2.365899        64.3794 
 129   0.0000       2.387341        64.9629 
 130   0.0000       2.401504        65.3482 
 131   0.0000       2.453596        66.7657 
 132   0.0000       2.465288        67.0839 
 133   0.0000       2.501486        68.0689 
 134   0.0000       2.527550        68.7781 
 135   0.0000       2.546984        69.3070 
 136   0.0000       2.565231        69.8035 
 137   0.0000       2.574578        70.0578 
 138   0.0000       2.615200        71.1632 
 139   0.0000       2.651146        72.1413 
 140   0.0000       2.689023        73.1720 
 141   0.0000       2.773479        75.4702 
 142   0.0000       2.778057        75.5948 
 143   0.0000       2.800440        76.2039 
 144   0.0000       2.819780        76.7301 
 145   0.0000       2.845196        77.4217 
 146   0.0000       2.855630        77.7056 
 147   0.0000       2.900032        78.9139 
 148   0.0000       2.948508        80.2330 
 149   0.0000       2.962715        80.6196 
 150   0.0000       2.993207        81.4493 
 151   0.0000       3.005804        81.7921 
 152   0.0000       3.069798        83.5334 
 153   0.0000       3.355845        91.3172 
 154   0.0000       3.380920        91.9995 
 155   0.0000       3.468225        94.3752 
 156   0.0000       3.709430       100.9387 
 157   0.0000       3.755526       102.1931 

                    ********************************
                    * MULLIKEN POPULATION ANALYSIS *
                    ********************************

-----------------------
MULLIKEN ATOMIC CHARGES
-----------------------
   0 C :    0.105686
   1 O :   -0.507519
   2 C :    0.226462
   3 C :   -0.064902
   4 C :   -0.067365
   5 C :   -0.018100
   6 C :   -0.015342
   7 H :    0.034999
   8 H :    0.013035
   9 H :    0.024105
  10 H :    0.033789
  11 H :    0.025716
  12 H :    0.030062
  13 H :    0.024317
  14 H :    0.032892
  15 H :    0.022544
  16 H :    0.042956
  17 H :    0.029542
  18 H :    0.027124
Sum of atomic charges:   -0.0000000

--------------------------------
MULLIKEN REDUCED ORBITAL CHARGES
--------------------------------
  0 C s       :     3.104826  s :     3.104826
      pz      :     1.002066  p :     2.643555
      px      :     0.880129
      py      :     0.761359
      dz2     :     0.026424  d :     0.145933
      dxz     :     0.033639
      dyz     :     0.016735
      dx2y2   :     0.028488
      dxy     :     0.040647
  1 O s       :     3.789829  s :     3.789829
      pz      :     1.682352  p :     4.700730
      px      :     1.465861
      py      :     1.552517
      dz2     :     0.002715  d :     0.016960
      dxz     :     0.004919
      dyz     :     0.002194
      dx2y2   :     0.003595
      dxy     :     0.003537
  2 C s       :     3.017270  s :     3.017270
      pz      :     0.859608  p :     2.630739
      px      :     0.794898
      py      :     0.976233
      dz2     :     0.030852  d :     0.125528
      dxz     :     0.033087
      dyz     :     0.010724
      dx2y2   :     0.022558
      dxy     :     0.028307
  3 C s       :     3.074231  s :     3.074231
      pz      :     0.992806  p :     2.909798
      px      :     0.967058
      py      :     0.949934
      dz2     :     0.015939  d :     0.080874
      dxz     :     0.018493
      dyz     :     0.008381
      dx2y2   :     0.015056
      dxy     :     0.023004
  4 C s       :     3.078471  s :     3.078471
      pz      :     0.981970  p :     2.905647
      px      :     0.956407
      py      :     0.967269
      dz2     :     0.022122  d :     0.083248
      dxz     :     0.017905
      dyz     :     0.006727
      dx2y2   :     0.013268
      dxy     :     0.023226
  5 C s       :     3.052401  s :     3.052401
      pz      :     0.986535  p :     2.886661
      px      :     0.949554
      py      :     0.950572
      dz2     :     0.020374  d :     0.079038
      dxz     :     0.018667
      dyz     :     0.006066
      dx2y2   :     0.010147
      dxy     :     0.023785
  6 C s       :     3.023960  s :     3.023960
      pz      :     0.971767  p :     2.933199
      px      :     0.960353
      py      :     1.001078
      dz2     :     0.018305  d :     0.058183
      dxz     :     0.017128
      dyz     :     0.002483
      dx2y2   :     0.004435
      dxy     :     0.015833
  7 H s       :     0.936557  s :     0.936557
      pz      :     0.005190  p :     0.028444
      px      :     0.006375
      py      :     0.016879
  8 H s       :     0.958732  s :     0.958732
      pz      :     0.018511  p :     0.028233
      px      :     0.004953
      py      :     0.004769
  9 H s       :     0.946382  s :     0.946382
      pz      :     0.012076  p :     0.029512
      px      :     0.013254
      py      :     0.004183
 10 H s       :     0.937304  s :     0.937304
      pz      :     0.018121  p :     0.028907
      px      :     0.007182
      py      :     0.003603
 11 H s       :     0.945439  s :     0.945439
      pz      :     0.018843  p :     0.028845
      px      :     0.005698
      py      :     0.004304
 12 H s       :     0.940589  s :     0.940589
      pz      :     0.005007  p :     0.029349
      px      :     0.010186
      py      :     0.014157
 13 H s       :     0.946225  s :     0.946225
      pz      :     0.005350  p :     0.029458
      px      :     0.008847
      py      :     0.015262
 14 H s       :     0.938112  s :     0.938112
      pz      :     0.018751  p :     0.028996
      px      :     0.005745
      py      :     0.004500
 15 H s       :     0.950391  s :     0.950391
      pz      :     0.015109  p :     0.027065
      px      :     0.009469
      py      :     0.002487
 16 H s       :     0.926540  s :     0.926540
      pz      :     0.004435  p :     0.030505
      px      :     0.009081
      py      :     0.016989
 17 H s       :     0.939854  s :     0.939854
      pz      :     0.004710  p :     0.030605
      px      :     0.011803
      py      :     0.014091
 18 H s       :     0.942026  s :     0.942026
      pz      :     0.016103  p :     0.030850
      px      :     0.009191
      py      :     0.005555


                     *******************************
                     * LOEWDIN POPULATION ANALYSIS *
                     *******************************

----------------------
LOEWDIN ATOMIC CHARGES
----------------------
   0 C :    0.007312
   1 O :   -0.094020
   2 C :    0.021330
   3 C :   -0.043307
   4 C :   -0.035207
   5 C :   -0.035387
   6 C :   -0.055828
   7 H :    0.020799
   8 H :    0.003476
   9 H :    0.021626
  10 H :    0.020497
  11 H :    0.015442
  12 H :    0.021075
  13 H :    0.020598
  14 H :    0.022133
  15 H :    0.021599
  16 H :    0.027331
  17 H :    0.024365
  18 H :    0.016164

-------------------------------
LOEWDIN REDUCED ORBITAL CHARGES
-------------------------------
  0 C s       :     2.806612  s :     2.806612
      pz      :     1.034456  p :     2.849721
      px      :     0.943984
      py      :     0.871282
      dz2     :     0.059048  d :     0.336354
      dxz     :     0.081935
      dyz     :     0.038179
      dx2y2   :     0.067197
      dxy     :     0.089995
  1 O s       :     3.419929  s :     3.419929
      pz      :     1.657583  p :     4.645990
      px      :     1.450588
      py      :     1.537819
      dz2     :     0.004233  d :     0.028101
      dxz     :     0.007735
      dyz     :     0.003234
      dx2y2   :     0.006378
      dxy     :     0.006520
  2 C s       :     2.805262  s :     2.805262
      pz      :     0.951043  p :     2.869962
      px      :     0.891845
      py      :     1.027074
      dz2     :     0.081189  d :     0.303446
      dxz     :     0.074695
      dyz     :     0.024647
      dx2y2   :     0.051962
      dxy     :     0.070954
  3 C s       :     2.796662  s :     2.796662
      pz      :     1.035178  p :     3.044998
      px      :     1.008707
      py      :     1.001113
      dz2     :     0.038663  d :     0.201647
      dxz     :     0.051403
      dyz     :     0.018758
      dx2y2   :     0.037926
      dxy     :     0.054897
  4 C s       :     2.792017  s :     2.792017
      pz      :     1.022050  p :     3.038382
      px      :     1.007894
      py      :     1.008438
      dz2     :     0.056531  d :     0.204808
      dxz     :     0.041705
      dyz     :     0.015094
      dx2y2   :     0.032392
      dxy     :     0.059087
  5 C s       :     2.796031  s :     2.796031
      pz      :     1.025066  p :     3.039718
      px      :     1.004712
      py      :     1.009940
      dz2     :     0.052169  d :     0.199637
      dxz     :     0.044898
      dyz     :     0.015342
      dx2y2   :     0.026720
      dxy     :     0.060509
  6 C s       :     2.800165  s :     2.800165
      pz      :     1.025154  p :     3.098726
      px      :     1.026681
      py      :     1.046891
      dz2     :     0.047405  d :     0.156937
      dxz     :     0.045340
      dyz     :     0.006467
      dx2y2   :     0.011705
      dxy     :     0.046020
  7 H s       :     0.903859  s :     0.903859
      pz      :     0.015206  p :     0.075342
      px      :     0.019172
      py      :     0.040965
  8 H s       :     0.920563  s :     0.920563
      pz      :     0.044289  p :     0.075961
      px      :     0.015419
      py      :     0.016253
  9 H s       :     0.899730  s :     0.899730
      pz      :     0.029239  p :     0.078644
      px      :     0.032542
      py      :     0.016862
 10 H s       :     0.900672  s :     0.900672
      pz      :     0.041539  p :     0.078831
      px      :     0.021037
      py      :     0.016255
 11 H s       :     0.905867  s :     0.905867
      pz      :     0.043630  p :     0.078691
      px      :     0.019146
      py      :     0.015915
 12 H s       :     0.900124  s :     0.900124
      pz      :     0.016211  p :     0.078801
      px      :     0.027501
      py      :     0.035089
 13 H s       :     0.900341  s :     0.900341
      pz      :     0.017005  p :     0.079061
      px      :     0.025100
      py      :     0.036957
 14 H s       :     0.898846  s :     0.898846
      pz      :     0.043462  p :     0.079020
      px      :     0.019644
      py      :     0.015914
 15 H s       :     0.903225  s :     0.903225
      pz      :     0.037180  p :     0.075176
      px      :     0.026305
      py      :     0.011691
 16 H s       :     0.893503  s :     0.893503
      pz      :     0.015781  p :     0.079166
      px      :     0.024143
      py      :     0.039242
 17 H s       :     0.897083  s :     0.897083
      pz      :     0.015930  p :     0.078552
      px      :     0.029148
      py      :     0.033474
 18 H s       :     0.903872  s :     0.903872
      pz      :     0.038931  p :     0.079963
      px      :     0.025132
      py      :     0.015901


                      *****************************
                      * MAYER POPULATION ANALYSIS *
                      *****************************

  NA   - Mulliken gross atomic population
  ZA   - Total nuclear charge
  QA   - Mulliken gross atomic charge
  VA   - Mayer's total valence
  BVA  - Mayer's bonded valence
  FA   - Mayer's free valence

  ATOM       NA         ZA         QA         VA         BVA        FA
  0 C      5.8943     6.0000     0.1057     4.0041     4.0041    -0.0000
  1 O      8.5075     8.0000    -0.5075     1.9329     1.9329    -0.0000
  2 C      5.7735     6.0000     0.2265     3.9368     3.9368    -0.0000
  3 C      6.0649     6.0000    -0.0649     3.9889     3.9889    -0.0000
  4 C      6.0674     6.0000    -0.0674     4.0005     4.0005     0.0000
  5 C      6.0181     6.0000    -0.0181     3.9479     3.9479    -0.0000
  6 C      6.0153     6.0000    -0.0153     3.9356     3.9356    -0.0000
  7 H      0.9650     1.0000     0.0350     0.9796     0.9796    -0.0000
  8 H      0.9870     1.0000     0.0130     0.9613     0.9613    -0.0000
  9 H      0.9759     1.0000     0.0241     0.9714     0.9714    -0.0000
 10 H      0.9662     1.0000     0.0338     0.9686     0.9686    -0.0000
 11 H      0.9743     1.0000     0.0257     0.9673     0.9673     0.0000
 12 H      0.9699     1.0000     0.0301     0.9703     0.9703     0.0000
 13 H      0.9757     1.0000     0.0243     0.9728     0.9728    -0.0000
 14 H      0.9671     1.0000     0.0329     0.9698     0.9698     0.0000
 15 H      0.9775     1.0000     0.0225     0.9783     0.9783     0.0000
 16 H      0.9570     1.0000     0.0430     0.9820     0.9820    -0.0000
 17 H      0.9705     1.0000     0.0295     0.9765     0.9765    -0.0000
 18 H      0.9729     1.0000     0.0271     0.9832     0.9832     0.0000

  Mayer bond orders larger than 0.1
B(  0-C ,  1-O ) :   0.9445 B(  0-C ,  5-C ) :   1.0270 B(  0-C ,  6-C ) :   1.0396 
B(  0-C , 15-H ) :   0.9751 B(  1-O ,  2-C ) :   0.9596 B(  2-C ,  3-C ) :   1.0429 
B(  2-C ,  7-H ) :   0.9828 B(  2-C ,  8-H ) :   0.9648 B(  3-C ,  4-C ) :   1.0410 
B(  3-C ,  9-H ) :   0.9694 B(  3-C , 10-H ) :   0.9619 B(  4-C ,  5-C ) :   1.0373 
B(  4-C , 11-H ) :   0.9667 B(  4-C , 12-H ) :   0.9760 B(  5-C , 13-H ) :   0.9688 
B(  5-C , 14-H ) :   0.9638 B(  6-C , 16-H ) :   0.9790 B(  6-C , 17-H ) :   0.9757 
B(  6-C , 18-H ) :   0.9759 

-------
TIMINGS
-------

Total SCF time: 0 days 0 hours 0 min 5 sec 

Total time                  ....       5.976 sec
Sum of individual times     ....       5.784 sec  ( 96.8%)

Fock matrix formation       ....       5.707 sec  ( 95.5%)
Diagonalization             ....       0.003 sec  (  0.1%)
Density matrix formation    ....       0.002 sec  (  0.0%)
Population analysis         ....       0.006 sec  (  0.1%)
Initial guess               ....       0.050 sec  (  0.8%)
Orbital Transformation      ....       0.000 sec  (  0.0%)
Orbital Orthonormalization  ....       0.000 sec  (  0.0%)
DIIS solution               ....       0.000 sec  (  0.0%)
SOSCF solution              ....       0.017 sec  (  0.3%)


           ************************************************************
           *        Program running with 4 parallel MPI-processes     *
           *              working on a common directory               *
           ************************************************************


------------------------------------------------------------------------------- 
                              ORCA-MATRIX DRIVEN CI                            
------------------------------------------------------------------------------- 


Wavefunction type
-----------------
Correlation treatment                      ...      CCSD     
Single excitations                         ... ON
Orbital optimization                       ... OFF
Calculation of Z vector                    ... OFF
Calculation of Brueckner orbitals          ... OFF
Perturbative triple excitations            ... ON
Calculation of F12 correction              ... OFF
Frozen core treatment                      ... chemical core (14 el)
Reference Wavefunction                     ... RHF
  Internal Orbitals:     7 ...   27 ( 21 MO's/ 42 electrons)
  Virtual  Orbitals:    28 ...  157 (130 MO's              )
Number of AO's                             ...    158
Number of electrons                        ...     56
Number of correlated electrons             ...     42

Algorithmic settings
--------------------
Integral transformation                    ... All integrals via the RI transformation
K(C) Formation                             ... RI-DLPNO
   PNO-Integral Storage                    ... ON DISK
   PNO occupation number cut-off           ... 1.000e-07
   Singles PNO occupation number cut-off   ... 3.000e-09
   PNO Mulliken prescreening cut-off       ... 1.000e-03
   Domain cut-off (Mulliken population)    ... 1.000e-03
   PNO Normalization                       ...    1
Maximum number of iterations               ...        50
Convergence tolerance (max. residuum)      ... 1.000e-05
Level shift for amplitude update           ... 2.000e-01
Maximum number of DIIS vectors             ...         7
DIIS turned on at iteration                ...         0
Damping before turning on DIIS             ...     0.500
Damping after turning on DIIS              ...     0.000
Pair specific amplitude update             ... OFF
Natural orbital iterations                 ... OFF
Perturbative natural orbital generation    ... OFF
Printlevel                                 ... 2

Singles Fock matrix elements calculated using PNOs.

Memory handling:
----------------
Maximum memory for working arrays          ...   8000 MB
Data storage in matrix containers          ... UNCOMPRESSED
Data type for integral storage             ... DOUBLE
In-Core Storage of quantities:
   Amplitudes+Sigma Vector      ... NO
   J+K operators                ... NO
   DIIS vectors                 ... NO
   3-external integrals         ... NO
   4-external integrals         ... NO

Localization treatment:
-----------------------
Localization option                        ...    6
Localization threshhold                    ... -1.0e+00
Using relative localization threshhold     ... 1.0e-08
Neglect threshold for strong pairs         ... 1.000e-05 Eh
Prescreening threshold for very weak pairs ... 1.000e-07 Eh

Initializing the integral package          ... done
Localizing the valence orbitals
------------------------------------------------------------------------------
                           ORCA ORBITAL LOCALIZATION
------------------------------------------------------------------------------

Input orbitals are from                  ... 2_Me_THP_ax.proc0.gbw
Output orbitals are to                   ... 2_Me_THP_ax.proc0.loc
Max. number of iterations                ... 128
Localizations seeded randomly            ... off
Convergence tolerance                    ... 1.000e-06
Using relative localization threshhold   ... 1.000e-08
Treshold for strong local MOs            ... 9.500e-01
Treshold for bond MOs                    ... 8.500e-01
Operator                                 ... 0
Orbital range for localization           ... 7 to 27
Localization criterion                   ... FOSTER-BOYS (AUGMENTED HESSIAN)
Doing the dipole integrals     ... o.k.
Initial value of the localization sum :   242.358148
ITERATION   0 : L=  259.3266223303 DL=  1.70e+01 (AVERGE_DL)=    0.2842573824 
ITERATION   1 : L=  261.0266120817 DL=  1.70e+00 (AVERGE_DL)=    0.0899732699 
ITERATION   2 : L=  261.0446334354 DL=  1.80e-02 (AVERGE_DL)=    0.0092636910 
ITERATION   3 : L=  261.0450819506 DL=  4.49e-04 (AVERGE_DL)=    0.0014614330 
ITERATION   4 : L=  261.0451153278 DL=  3.34e-05 (AVERGE_DL)=    0.0003986721 
ITERATION   5 : L=  261.0451191289 DL=  3.80e-06 (AVERGE_DL)=    0.0001345378 
ITERATION   6 : L=  261.0451195596 DL=  4.31e-07 (AVERGE_DL)=    0.0000452853 
LOCALIZATION SUM CONVERGED

------------------------------------------------------
AUGMENTED HESSIAN OPTIMIZATION OF FOSTER-BOYS ORBITALS
------------------------------------------------------

Spin operator:           0
Orbital window:          7 to 27
Number of iterations:    128
Gradient tolerance:      1.000e-06
Number of pairs:         210
Davidson threshold:      2000
Diagonalization method:  LAPACK
Iter:    0   L: 261.0451195596   Grad. norm: 1.181023e-03
   *** Likely close to a maximum now. ***
       Augmented Hessian eigenvalues:  1.14e-07 -1.27e+00 -3.70e+00 -5.49e+00 ... 
Iter:    1   L: 261.0451196164   Grad. norm: 4.298115e-08
LOCALIZATION HAS CONVERGED.

Eigenvalues of the Hessian:
  0 -1.268e+00
  1 -3.700e+00
  2 -5.495e+00
  3 -5.572e+00
  4 -7.642e+00
  5 -1.102e+01
  6 -1.726e+01
  7 -1.781e+01
  8 -1.786e+01
  9 -1.786e+01
    ...


------------------------------------------------------------------------------- 
                    LOCALIZED MOLECULAR ORBITAL COMPOSITIONS                   
------------------------------------------------------------------------------- 

The Mulliken populations for each LMO on each atom are computed
The LMO`s will be ordered according to atom index and type
  (A) Strongly localized MO`s have populations of >=0.950 on one atom
  (B) Two center bond orbitals have populations of >=0.850 on two atoms
  (C) Other MO`s are considered to be `delocalized`

FOUND  -   2 strongly local MO`s
       -  19 two center bond MO`s
       -   0 significantly delocalized MO`s

Rather strongly localized orbitals:
MO   8:   1O  -   0.976994
MO   7:   1O  -   0.979405
Bond-like localized orbitals:
MO  27:  18H  -   0.501648  and   6C  -   0.507934
MO  26:  17H  -   0.502881  and   6C  -   0.505034
MO  25:  16H  -   0.492701  and   6C  -   0.516733
MO  24:  15H  -   0.502728  and   0C  -   0.511804
MO  23:  14H  -   0.502604  and   5C  -   0.506405
MO  22:  13H  -   0.506186  and   5C  -   0.503491
MO  21:  12H  -   0.503351  and   4C  -   0.509150
MO  20:  11H  -   0.507885  and   4C  -   0.505874
MO  19:  10H  -   0.502469  and   3C  -   0.507328
MO  18:   9H  -   0.506712  and   3C  -   0.502762
MO  17:   8H  -   0.516101  and   2C  -   0.504286
MO  16:   7H  -   0.496252  and   2C  -   0.518329
MO  15:   6C  -   0.509846  and   0C  -   0.539364
MO  14:   5C  -   0.521197  and   4C  -   0.522057
MO  13:   5C  -   0.522532  and   0C  -   0.533041
MO  12:   4C  -   0.524732  and   3C  -   0.520540
MO  11:   3C  -   0.532300  and   2C  -   0.515101
MO  10:   2C  -   0.355104  and   1O  -   0.667805
MO   9:   1O  -   0.674976  and   0C  -   0.350583
Localized MO's were stored in: 2_Me_THP_ax.proc0.loc

Localizing the core orbitals
------------------------------------------------------------------------------
                           ORCA ORBITAL LOCALIZATION
------------------------------------------------------------------------------

Input orbitals are from                  ... 2_Me_THP_ax.proc0.loc
Output orbitals are to                   ... 2_Me_THP_ax.proc0.loc
Max. number of iterations                ... 128
Localizations seeded randomly            ... off
Convergence tolerance                    ... 1.000e-06
Using relative localization threshhold   ... 1.000e-08
Treshold for strong local MOs            ... 9.500e-01
Treshold for bond MOs                    ... 8.500e-01
Operator                                 ... 0
Orbital range for localization           ... 0 to 6
Localization criterion                   ... FOSTER-BOYS (AUGMENTED HESSIAN)
Doing the dipole integrals     ... o.k.
Initial value of the localization sum :    63.881203
ITERATION   0 : L=   63.8812170857 DL=  1.40e-05 (AVERGE_DL)=    0.0008173410 
ITERATION   1 : L=   63.8812170857 DL=  0.00e+00 (AVERGE_DL)=    0.0000000000 
LOCALIZATION SUM CONVERGED

------------------------------------------------------
AUGMENTED HESSIAN OPTIMIZATION OF FOSTER-BOYS ORBITALS
------------------------------------------------------

Spin operator:           0
Orbital window:          0 to 6
Number of iterations:    128
Gradient tolerance:      1.000e-06
Number of pairs:         21
Davidson threshold:      2000
Diagonalization method:  LAPACK
Iter:    0   L: 63.8812170857   Grad. norm: 4.833306e-06
   *** Likely close to a maximum now. ***
       Augmented Hessian eigenvalues:  2.09e-13 -2.91e+01 -2.96e+01 -3.34e+01 ... 
Iter:    1   L: 63.8812170857   Grad. norm: 3.668761e-19
LOCALIZATION HAS CONVERGED.

Eigenvalues of the Hessian:
  0 -2.913e+01
  1 -2.960e+01
  2 -3.342e+01
  3 -3.362e+01
  4 -3.370e+01
  5 -3.378e+01
  6 -3.389e+01
  7 -8.357e+01
  8 -8.580e+01
  9 -8.595e+01
    ...


------------------------------------------------------------------------------- 
                    LOCALIZED MOLECULAR ORBITAL COMPOSITIONS                   
------------------------------------------------------------------------------- 

The Mulliken populations for each LMO on each atom are computed
The LMO`s will be ordered according to atom index and type
  (A) Strongly localized MO`s have populations of >=0.950 on one atom
  (B) Two center bond orbitals have populations of >=0.850 on two atoms
  (C) Other MO`s are considered to be `delocalized`

FOUND  -   7 strongly local MO`s
       -   0 two center bond MO`s
       -   0 significantly delocalized MO`s

Rather strongly localized orbitals:
MO   6:   6C  -   0.999598
MO   5:   5C  -   0.999257
MO   4:   4C  -   0.999242
MO   3:   3C  -   0.999231
MO   2:   2C  -   0.999435
MO   1:   1O  -   0.999641
MO   0:   0C  -   0.999084
Localized MO's were stored in: 2_Me_THP_ax.proc0.loc

Warning: internal orbitals are localized - no re-canonicalization of internal orbitals

--------------------------
CLOSED-SHELL FOCK OPERATOR
--------------------------

RI-JK section for the Fock operator:
  RHF full Fock operator         ... done
  RHF frozen core Fock operator  ... done
Time needed for Fock operator              ...            1.454 sec
Reference energy                           ...   -309.072499312

--------------
DLPNO SETTINGS (2015 fully linear scaling implementation)
--------------

TCutMKN:           1.000e-03
TCutPAO:           1.000e-03
TCutPNO:           1.000e-07
TCutPNOSingles:    3.000e-09
TCutEN:            9.700e-01
TCutPAOExt:        1.000e-01
TCutPairs:         1.000e-05
TCutPre:           1.000e-07
TCutOSV:           1.000e-06
TCutDOij:          1.000e-05
TCutDO:            5.000e-03
TCutC:             1.000e-04
TCutCPAO:          1.000e-03
TCutCMO:           1.000e-03
TScaleDOMP2PreScr: 2.000e+00
TScaleMKNMP2PreScr:1.000e+01
TScalePNOMP2PreScr:1.000e+00
PAO overlap thresh 1.000e-08
Using PNOs for Singles Fock computation
Use new domains
Use fully linear algorithm
TCutTNO:           1.000e-09
TCutMP2Pairs:      1.000e-06
TCutDOStrong:      2.000e-03
TCutMKNStrong:     1.000e-02
TCutMKNWeak:       1.000e-01
TCutDOWeak:        4.000e-03
NTCutTNO:          1

--------------------------
Calculating differential overlap integrals ... ok
--------------------------
ELECTRON PAIR PRESCREENING
--------------------------

Dipole-based pair screening          .... used

   TCutDOij = 1.000000e-05
   TCutPre  = 1.000000e-07
   .... Finished loop over pairs
Total time spent in the prescreening                  ...     0.000 sec
sum of pair energies estimated for screened out pairs ...       0.000000000000 Eh
Thresholds for map construction and integral transformation for crude MP2:
   TCutMKN                    ...     1.0e-02
   TCutDO                     ...     1.0e-02
   TCutPairs                  ...     1.0e-05
   TCutPNO_CrudeMP2           ...     1.0e-07
   TCutPNOSingles_CrudeMP2    ...     3.0e-09
--------------------------------
LOCAL RI TRANSFORMATION (IAVPAO)
--------------------------------

Orbital window:       7 to 27
Number of PAOs:     158
Basis functions:    158 (78 shells)
Aux. functions:     560 (198 shells)

Processing maps (0.0 sec)
Average map sizes:
   Aux shells -> MOs              21.0
   Aux shells -> PAOs            158.0
   MOs        -> AO shells        76.4
   PAOs       -> AO shells        78.0

Calculating integrals (0.4 sec, 14.182 MB)
Sorting integrals (0.0 sec, 14.176 MB)
Total time for the integral transformation: 0.4 sec
--------------------------------
INITIAL GUESS AND PNO GENERATION
--------------------------------

PNO truncation parameters                   .... 
    PAOOverlapThresh   =        1.000e-08

    TCutPairs          =        1.000e-05
    TCutPNO            =        1.000e-07
    TCutPNOSingles     =        3.000e-09
    TCutMP2Pairs       =        1.000e-06
    TCutMKN            =        1.000e-02
    TCutDO             =        1.000e-02

Pair selection                          .... not used
Type of local MP2 treatment                 .... semi-local MP2
Strategy for PNO selection                  .... occupation number selection
Pair density normalization                  .... MP2 norm
Spin component scaling                      .... not used

   .... Finished loop over pairs
Making pair pair interaction lists          ... done

                       ===========================
                        231 OF  231 PAIRS ARE KEPT CCSD PAIRS
                          0 OF  231 PAIRS ARE KEPT MP2 PAIRS FOR (T)
                          0 OF  231 PAIRS ARE SKIPPED
                       ===========================

Total time spent in the initial guess                 ...     0.681 sec
SL-MP2 correlation energy (all non-screened pairs)    ...      -0.999606009885 Eh

Initial PNO correlation energy                        ...      -0.999090413348 Eh
sum of pair energies prescreened and skipped MP2 pairs...       0.000000000000 Eh
sum of pair energies of crude MP2 skipped pairs only  ...       0.000000000000 Eh
sum of MP2 pair energies for pairs that were not kept ...       0.000000000000 Eh
sum of PNO error estimates for the kept pairs         ...      -0.000515596538 Eh
                                                          --------------------
sum of all corrections                                         -0.000515596538
Initial total correlation energy                               -0.999606009885
Thresholds for map construction and integral transformation for fine MP2 and CCSD(T) calculation:
   TCutMKN   ...     1.0e-03
   TCutDO    ...     5.0e-03
   TCutPairs ...     1.0e-05
   TCutCMO   ...     1.0e-03
   TCutCPAO  ...     1.0e-03

Thresholds for map construction and integral transformation for strong Triples:
   TCutMKN   ...     1.0e-02
   TCutDO    ...     1.0e-02
   TCutCMO   ...     1.0e-03
   TCutCPAO  ...     1.0e-03

Thresholds for map construction and integral transformation for weak Triples:
   TCutMKN   ...     1.0e-01
   TCutDO    ...     2.0e-02
   TCutCMO   ...     1.0e-03
   TCutCPAO  ...     1.0e-03

--------------------------------
LOCAL RI TRANSFORMATION (IAVPAO)
--------------------------------

Orbital window:       7 to 27
Number of PAOs:     158
Basis functions:    158 (78 shells)
Aux. functions:     560 (198 shells)

Processing maps (0.0 sec)
Average map sizes:
   Aux shells -> MOs              21.0
   Aux shells -> PAOs            158.0
   MOs        -> AO shells        76.4
   PAOs       -> AO shells        78.0

Calculating integrals (0.4 sec, 14.182 MB)
Sorting integrals (0.0 sec, 14.176 MB)
Total time for the integral transformation: 0.4 sec
--------------------------------
INITIAL GUESS AND PNO GENERATION
--------------------------------

PNO truncation parameters                   .... 
    ScaleTCutPNO       =        1.000e-02
    PAOOverlapThresh   =        1.000e-08

    TCutPairs          =        1.000e-05
    TCutPNO            =        1.000e-07
    TCutPNOSingles     =        3.000e-09
    TCutMP2Pairs       =        1.000e-06
    TCutMKN            =        1.000e-03
    TCutDO             =        5.000e-03

Pair selection                          .... not used
Type of local MP2 treatment                 .... full local PMP2
Strategy for PNO selection                  .... occupation number selection
Pair density normalization                  .... MP2 norm
Spin component scaling                      .... not used

PASS-1: Formation of initial guess LMP2 amplitudes
Initial amplitudes guess done. Entering LMP2 iteration loop:
   Max. no of iterations          ...  50
   Energy convergence tolerance   ...    1.0e-07
   Residual convergence tolerance ...    5.0e-07
   Fock matrix cutoff             ...    1.0e-05 Eh
   DIIS convergence acceleration parameters:
        Max # vectors in DIIS     ... 7
        Start iteration of DIIS   ... 0
        Levelshift                ... 2.000e-01
        Damping factor 1          ... 5.000e-01
        Damping factor 2          ... 1.000e+00
   L-MP2 PNO cut-off              ...   1.0e-09
   L-MP2 PNO cut-off (core)       ...   1.0e-11
                           *** Turning on DIIS ***
LMP2-Iter=   0:  ELMP2= -1.022615490718  DE=   2.2e-02 RMAX=   5.4e-03
LMP2-Iter=   1:  ELMP2= -1.033519012041  DE=   1.1e-02 RMAX=   3.2e-03
LMP2-Iter=   2:  ELMP2= -1.035185813784  DE=   1.7e-03 RMAX=   6.5e-04
LMP2-Iter=   3:  ELMP2= -1.035339657480  DE=   1.5e-04 RMAX=   2.5e-04
LMP2-Iter=   4:  ELMP2= -1.035347263455  DE=   7.6e-06 RMAX=   3.0e-05
LMP2-Iter=   5:  ELMP2= -1.035345606954  DE=   1.7e-06 RMAX=   9.8e-06
LMP2-Iter=   6:  ELMP2= -1.035345410652  DE=   2.0e-07 RMAX=   8.1e-07
LMP2-Iter=   7:  ELMP2= -1.035345395306  DE=   1.5e-08 RMAX=   2.4e-07
LMP2-Iter=   8:  ELMP2= -1.035345402466  DE=   7.2e-09 RMAX=   3.9e-08 => CONVERGED
PASS-2: Formation of Pair natural orbitals
   .... Finished loop over pairs

 PNO Occupation Number Statistics: 
  | Av. % of trace(Dij) retained        ...  99.641655543229
  | sigma^2 in % of trace(Dij) retained ...   2.12e-01
  | Av. % of trace(Di) retained         ...  99.999848547192
  | sigma^2 in % of trace(Di) retained  ...   2.38e-09
 Distributions of % trace(Dij) recovered:
  |       >= 99.9  ...   105 ( 45.5 % of all pairs)
  |   [90.0, 99.0) ...    24 ( 10.4 % of all pairs)
  |   [99.0, 99.9) ...   102 ( 44.2 % of all pairs)
 Distributions of % trace(Di) recovered :
  |       >= 99.9  ...    21 (100.0 % of all I-pairs )

Making pair pair interaction lists          ... done

                       ===========================
                        231 OF  231 PAIRS ARE KEPT
                       ===========================

Total time spent in the initial guess                 ...     5.888 sec
L-MP2 correlation energy (all non-screened pairs)     ...      -1.035345402466 Eh
L-MP2 PNO error correction                            ...      -0.000008596449 Eh
                                                          --------------------
Initial total L-MP2 energy (non-screened pairs)       ...      -1.035353998915 Eh

Initial PNO correlation energy                        ...      -1.034883870552 Eh
sum of pair energies estimated for screened out pairs ...       0.000000000000 Eh
sum of MP2 pair energies for pairs that were not kept ...       0.000000000000 Eh
sum of PNO error estimates for the kept pairs         ...      -0.000470128363 Eh
                                                          --------------------
sum of all corrections                                         -0.000470128363
Initial total correlation energy                               -1.035353998915
Thresholds for map construction and integral transformation for fine MP2 and CCSD(T) calculation:
   TCutMKN   ...     1.0e-03
   TCutDO    ...     5.0e-03
   TCutPairs ...     1.0e-05
   TCutCMO   ...     1.0e-03
   TCutCPAO  ...     1.0e-03

Time for aux screen maps:            0.003
Time for maps after fine MP2:            0.010
-----------------------------
LOCAL RI TRANSFORMATION (IJV)
-----------------------------

Orbital window:       7 to 27
Basis functions:    158 (78 shells)
Aux. functions:     560 (198 shells)

Processing maps (0.0 sec)
Average map sizes:
   Aux shells -> MOs(i)           21.0
   Aux shells -> MOs(j)           21.0
   MOs        -> AO shells        76.4

Calculating integrals (0.4 sec, 1.891 MB)
Sorting integrals (0.0 sec, 1.884 MB)
Total time for the integral transformation: 0.4 sec
--------------------------------
LOCAL RI TRANSFORMATION (VABPAO)
--------------------------------

Number of PAOs:     158
Basis functions:    158 (78 shells)
Aux. functions:     560 (198 shells)

Processing maps (0.0 sec)
Average map sizes:
   Aux shells -> PAOs            158.0
   PAOs       -> AO shells        78.0

Calculating integrals (0.6 sec, 188.948 MB)
Finished


-------------------------------------
Pair Pair Term precalculation with     
RI-(ij|mn) and (im|jn) transformation  
ON THE FLY                             
-------------------------------------

   IBatch   1 (of   1)              ... done (   24.047 sec)
Total EXT                           ...          24.047 sec

---------------------
RI-PNO TRANSFORMATION
---------------------

Total Number of PNOs                   ...  6391
Average number of PNOs per pair        ...    27
Maximal number of PNOs per pair        ...    44
   #pairs with  1 -  5 PNOs   :    0
   #pairs with  6 - 10 PNOs   :    7
   #pairs with 11 - 15 PNOs   :   19
   #pairs with 16 - 20 PNOs   :   20
   #pairs with 21 - 25 PNOs   :   47
   #pairs with 26 - 30 PNOs   :   30
   #pairs with 31 - 35 PNOs   :   63
   #pairs with 36 - 40 PNOs   :   41
   #pairs with 41 - 45 PNOs   :    4
   #pairs with 46 - 50 PNOs   :    0

Generation of (ij|ab)[P] integrals            ... on
Generation of (ia|bc)[P],(ja|bc)[P] integrals ... on
Storage of 3 and 4 external integrals         ... on
Generation of ALL (ka|bc)[P] integrals        ... on
Keep RI integrals in memory                   ... off

Ibatch:  1 (of  1)
Starting 2-4 index PNO integral generation ... done

Timings:
Total PNO integral transformation time     ...          6.485 sec
Size of the 3-external file                ...        49 MB
Size of the 4-external file                ...       213 MB
Size of the IKJL file                      ...         0 MB
Size of the all 3-external file            ...       517 MB
Size of the 1-external file                ...         3 MB

Making pair/pair overlap matrices          ... done (    1.282 sec)
Size of the pair overlap file              ... 207 MB
Redoing the guess amplitudes               ... done (    0.002 sec)

-------------------------
FINAL STARTUP INFORMATION
-------------------------

E(0)                                       ...   -309.072499312
E(L-MP2)                                   ...     -1.035353999
E(L-MP2) including corrections             ...     -1.035353999
Initial E(tot)                             ...   -310.107853311
<T|T>                                      ...      0.309280489
Number of pairs included                   ... 231
Total number of pairs                      ... 231

------------------------------------------------
                  RHF COUPLED CLUSTER ITERATIONS
------------------------------------------------

Number of PNO amplitudes to be optimized   ...       194131
Number of non-PNO amplitudes               ...      3903900
Untruncated number of regular amplitudes   ...      3903900

Iter       E(tot)           E(Corr)          Delta-E          Residual     Time
  0   -310.072379645     -0.999410204      0.035943795      0.020230994    3.76
                           *** Turning on DIIS ***
  1   -310.145884724     -1.072915284     -0.073505079      0.008279972    3.77
  2   -310.180765401     -1.107795960     -0.034880677      0.002210648    3.76
  3   -310.185569570     -1.112600130     -0.004804169      0.001322005    3.76
  4   -310.186715696     -1.113746256     -0.001146126      0.000454098    3.76
  5   -310.186936270     -1.113966830     -0.000220574      0.000245573    3.78
  6   -310.186981561     -1.114012121     -0.000045291      0.000096307    3.77
  7   -310.186989084     -1.114019644     -0.000007523      0.000046162    3.76
  8   -310.186990224     -1.114020783     -0.000001139      0.000014924    3.78
  9   -310.186989750     -1.114020309      0.000000474      0.000004405    4.04
               --- The Coupled-Cluster iterations have converged ---

----------------------
COUPLED CLUSTER ENERGY
----------------------

E(0)                                       ...   -309.072499312
E(CORR)(strong-pairs)                      ...     -1.114020309
E(CORR)(weak-pairs)                        ...     -0.000470128
E(CORR)(corrected)                         ...     -1.114490438
E(TOT)                                     ...   -310.186989750
Singles Norm <S|S>**1/2                    ...      0.055938133  
T1 diagnostic                              ...      0.008631441  

------------------
LARGEST AMPLITUDES
------------------
  26-> 37  26-> 37       0.043558
  24-> 36  24-> 36       0.043051
  17-> 36  17-> 36       0.041527
  25-> 37  25-> 37       0.040330
  21-> 37  21-> 37       0.040294
  18-> 37  18-> 37       0.038796
  17-> 28  17-> 28       0.038757
  16-> 36  16-> 36       0.038423
  22-> 37  22-> 37       0.038268
  20-> 28  20-> 28       0.037886
  18-> 28  18-> 28       0.037392
  22-> 28  22-> 28       0.037230
  23-> 28  23-> 28       0.037185
  19-> 28  19-> 28       0.037174
  24-> 28  24-> 28       0.036826
  23-> 37  23-> 37       0.036756


-------------------------------------------
DLPNO BASED TRIPLES CORRECTION
-------------------------------------------

Singles multiplier          ...  1.000000
TCutTNO                     ... 1.000e-09
TCutMP2Pairs                ... 1.000e-06
TCutDOStrong                ... 1.000e-02
TCutMKNStrong               ... 1.000e-02
TCutDOWeak                  ... 2.000e-02
TCutMKNWeak                 ... 1.000e-01

Fragment selection                          .... not used
Number of Triples that are to be computed   ...      1750

 . . . . . . . . .
10% done  
20% done  
30% done  
40% done  
50% done  
60% done  
70% done  
80% done  
90% done               (     51.677 sec)
Triples timings:
Total time for T0               ...    55.680 sec
Total time for Iterative (T)    ...     0.000 sec
Total time of overall (T)       ...    55.879 sec

Triples List generation         ...     0.000 sec
TNO generation                  ...     3.999 sec
Pair density generation         ...     0.002 sec
Look up tables                  ...     0.000 sec
Generating 3-index integrals    ...    26.265 sec
  Make 4-ind.int. from 3-ind.int...     9.244 sec
  Projecting amplitudes (D + S) ...     5.869 sec
  Downprojecting integrals      ...     0.002 sec
  Energy contr. (sum over a,b,c)...     2.972 sec
Fitting ET(->0)                 ...     0.000 sec

Everything after 3-index        ...    25.411 sec

Timing details:
 TNO integrals                  ...    34.370 sec
   Reading 3-index integrals    ...     0.038 sec
   Sorting integrals            ...     6.639 sec
       Sorting integrals 1      ...     0.001 sec
       Sorting integrals 2      ...     2.190 sec
       Sorting integrals 3      ...     0.287 sec
       Sorting integrals 4      ...     0.033 sec
       Sorting integrals 5      ...     0.089 sec
       Sorting integrals 6      ...     4.038 sec
   Calculating local VM**-1/2   ...     0.255 sec
   Orthogonal. integrals        ...     0.506 sec
   Multipl. 3-index integrals   ...    26.932 sec
   All concerning IRIab (w/TNO) ...     4.068 sec

 Calculate W0/W1                ...     7.312 sec
 W 3-ext contribution           ...     4.042 sec
 W 3-int contribution           ...     1.391 sec
 Sorting W                      ...     1.720 sec

 V exchange contribution        ...     1.215 sec

 Timings for Triples without generation
     of 3-index integrals       ...    25.406 sec
       0 weak pairs             ...    25.406 sec
       1 weak pair              ...     0.000 sec
       2 weak pairs             ...     0.000 sec
       3 weak pairs             ...     0.000 sec
  Extra time for extrapolation  ...     0.000 sec

Number of Triples   (0, 1, 2, 3 weak pairs; overall):   1750       0       0       0  (  1750)
Number of Atoms     (0, 1, 2, 3 weak pairs; overall):   18.3     0.0     0.0     0.0  (    19)
Number of PAOs      (0, 1, 2, 3 weak pairs; overall):  153.9     0.0     0.0     0.0  (   158)
Number of AuxFcns   (0, 1, 2, 3 weak pairs; overall):  238.1     0.0     0.0     0.0  (   560)
Number of TNOs      (0, 1, 2, 3 weak pairs         ):   64.8     0.0     0.0     0.0
Aver. Number of NTNO, Atoms, PAOs, AuxFcns / Triples:   1750    64.8    18.3   153.9   238.1

Triples Correction (T)                     ...     -0.033031077
Final correlation energy                   ...     -1.147521515
E(CCSD)                                    ...   -310.186989750
E(CCSD(T))                                 ...   -310.220020827


Maximum memory used throughout the entire calculation: 6081.2 MB


------------------------------------------------------------------------------- 
                                     TIMINGS                                   
------------------------------------------------------------------------------- 


Total execution time                   ...      138.795 sec

Localization of occupied MO's          ...        0.426 sec (  0.3%)
Fock Matrix Formation                  ...        1.454 sec (  1.0%)
Global overlap, Fock, MKN matrices     ...        0.141 sec (  0.1%)
Differential overlap integrals         ...        0.132 sec (  0.1%)
Organizing maps                        ...        0.031 sec (  0.0%)
RI 3-index integral generations        ...        1.885 sec (  1.4%)
RI-PNO integral transformation         ...       33.952 sec ( 24.5%)
Initial Guess                          ...        6.587 sec (  4.7%)
DIIS Solver                            ...        0.644 sec (  0.5%)
State Vector Update                    ...        0.015 sec (  0.0%)
Sigma-vector construction              ...       37.794 sec ( 27.2%)
  <D|H|D>(0-ext)                       ...        3.015 sec (  8.0% of sigma)
  <D|H|D>(2-ext Fock)                  ...        0.013 sec (  0.0% of sigma)
  <D|H|D>(2-ext)                       ...        6.590 sec ( 17.4% of sigma)
  <D|H|D>(4-ext)                       ...        2.432 sec (  6.4% of sigma)
  <D|H|D>(4-ext-corr)                  ...       13.038 sec ( 34.5% of sigma)
  CCSD doubles correction              ...        0.238 sec (  0.6% of sigma)
  <S|H|S>                              ...        0.323 sec (  0.9% of sigma)
  <S|H|D>(1-ext)                       ...        0.365 sec (  1.0% of sigma)
  <D|H|S>(1-ext)                       ...        0.014 sec (  0.0% of sigma)
  <S|H|D>(3-ext)                       ...        0.191 sec (  0.5% of sigma)
  Fock-dressing                        ...        6.792 sec ( 18.0% of sigma)
  Singles amplitudes                   ...        0.281 sec (  0.7% of sigma)
  (ik|jl)-dressing                     ...        2.184 sec (  5.8% of sigma)
  (ij|ab),(ia|jb)-dressing             ...        2.237 sec (  5.9% of sigma)
  Pair energies                        ...        0.005 sec (  0.0% of sigma)
Total Time for computing (T)           ...       55.955 sec ( 40.3% of ALL)


-------------------------   --------------------
FINAL SINGLE POINT ENERGY      -310.220020826957
-------------------------   --------------------


                            ***************************************
                            *     ORCA property calculations      *
                            ***************************************

                                    ---------------------
                                    Active property flags
                                    ---------------------
   (+) Dipole Moment


------------------------------------------------------------------------------
                       ORCA ELECTRIC PROPERTIES CALCULATION
------------------------------------------------------------------------------

Dipole Moment Calculation                       ... on
Quadrupole Moment Calculation                   ... off
Polarizability Calculation                      ... off
GBWName                                         ... 2_Me_THP_ax.gbw
Electron density file                           ... 2_Me_THP_ax.scfp.tmp
The origin for moment calculation is the CENTER OF MASS  = ( 0.000079, -0.051040 -0.052223)

-------------
DIPOLE MOMENT
-------------
                                X             Y             Z
Electronic contribution:     -0.13764      -2.40500      -2.54125
Nuclear contribution   :     -0.00445       2.85805       2.92464
                        -----------------------------------------
Total Dipole Moment    :     -0.14209       0.45305       0.38340
                        -----------------------------------------
Magnitude (a.u.)       :      0.61028
Magnitude (Debye)      :      1.55120



--------------------
Rotational spectrum 
--------------------
 
Rotational constants in cm-1:     0.122170     0.087328     0.065859 
Rotational constants in MHz :  3662.577022  2618.037576  1974.411843 

 Dipole components along the rotational axes: 
x,y,z [a.u.] :    -0.158126     0.464361     0.363045 
x,y,z [Debye]:    -0.401924     1.180312     0.922787 

 

Timings for individual modules:

Sum of individual times         ...      145.523 sec (=   2.425 min)
GTO integral calculation        ...        0.489 sec (=   0.008 min)   0.3 %
SCF iterations                  ...        6.068 sec (=   0.101 min)   4.2 %
MDCI module                     ...      138.965 sec (=   2.316 min)  95.5 %
                             ****ORCA TERMINATED NORMALLY****
TOTAL RUN TIME: 0 days 0 hours 2 minutes 25 seconds 761 msec
2_Me_THP_ax.gbw -> /home1/pantazis/klk/VDZ/Oxygen_compounds/2_Me_THP_ax.gbw
2_Me_THP_ax.ges -> /home1/pantazis/klk/VDZ/Oxygen_compounds/2_Me_THP_ax.ges
2_Me_THP_ax.job -> /home1/pantazis/klk/VDZ/Oxygen_compounds/2_Me_THP_ax.job
2_Me_THP_ax.loc -> /home1/pantazis/klk/VDZ/Oxygen_compounds/2_Me_THP_ax.loc
2_Me_THP_ax.nodes -> /home1/pantazis/klk/VDZ/Oxygen_compounds/2_Me_THP_ax.nodes
2_Me_THP_ax.prop -> /home1/pantazis/klk/VDZ/Oxygen_compounds/2_Me_THP_ax.prop
2_Me_THP_ax_property.txt -> /home1/pantazis/klk/VDZ/Oxygen_compounds/2_Me_THP_ax_property.txt
2_Me_THP_ax.xyz -> /home1/pantazis/klk/VDZ/Oxygen_compounds/2_Me_THP_ax.xyz
cp: cannot stat 2_Me_THP_ax.asa.inp: No such file or directory
