! Job execution by suborca V 6.07 on ZEUS !
Job started from zeus1, running /scratch/pantazis/4_methylpiperidine_ax__eTIDrA/orca/orca copied from /opt/orca on zeussn143 in /scratch/pantazis/4_methylpiperidine_ax__eTIDrA
Job execution start: Sat Jun 29 11:24:28 CEST 2019
Shared library path: /scratch/pantazis/4_methylpiperidine_ax__eTIDrA/orca:/opt/openmpi_1.10.2/lib:/opt/intel/mkl/lib/intel64:/opt/intel/lib/intel64:
PBS Job ID is: 158820.icqc
izeussn143
izeussn143
izeussn143
izeussn143

                                 *****************
                                 * O   R   C   A *
                                 *****************

           --- An Ab Initio, DFT and Semiempirical electronic structure package ---

                  #######################################################
                  #                        -***-                        #
                  #          Department of theory and spectroscopy      #
                  #               Directorship: Frank Neese             #
                  #        Max Planck Institute fuer Kohlenforschung    #
                  #                Kaiser Wilhelm Platz 1               #
                  #                 D-45470 Muelheim/Ruhr               #
                  #                      Germany                        #
                  #                                                     #
                  #                  All rights reserved                #
                  #                        -***-                        #
                  #######################################################


                         Program Version 4.1.x  -  STABLE  -
                                (SVN: $Rev: 14094$)
                ($Date: 2019-06-14 15:01:15 +0200 (Fri, 14 Jun 2019) $)

                         (BUILD: $Sun Jun 23 06:18:31 CEST 2019$)


 With contributions from (in alphabetic order):
   Daniel Aravena         : Magnetic Properties
   Michael Atanasov       : Ab Initio Ligand Field Theory
   Alexander A. Auer      : GIAO ZORA
   Ute Becker             : Parallelization
   Giovanni Bistoni       : ED, Open-shell LED
   Martin Brehm           : Molecular dynamics
   Dmytro Bykov           : SCF Hessian
   Vijay G. Chilkuri      : MRCI spin determinant printing
   Dipayan Datta          : RHF DLPNO-CCSD density
   Achintya Kumar Dutta   : EOM-CC, STEOM-CC
   Dmitry Ganyushin       : Spin-Orbit,Spin-Spin,Magnetic field MRCI
   Miquel Garcia          : C-PCM Hessian
   Yang Guo               : DLPNO-NEVPT2, CIM, IAO-localization
   Andreas Hansen         : Spin unrestricted coupled pair/coupled cluster methods
   Benjamin Helmich-Paris : CASSCF linear response (MC-RPA)
   Lee Huntington         : MR-EOM, pCC
   Robert Izsak           : Overlap fitted RIJCOSX, COSX-SCS-MP3, EOM
   Christian Kollmar      : KDIIS, OOCD, Brueckner-CCSD(T), CCSD density
   Simone Kossmann        : Meta GGA functionals, TD-DFT gradient, OOMP2, MP2 Hessian
   Martin Krupicka        : AUTO-CI
   Lucas Lang             : DCDCAS
   Dagmar Lenk            : GEPOL surface, SMD
   Dimitrios Liakos       : Extrapolation schemes; parallel MDCI
   Dimitrios Manganas     : ROCIS; embedding schemes
   Dimitrios Pantazis     : SARC Basis sets
   Taras Petrenko         : DFT Hessian,TD-DFT gradient, ASA, ECA, R-Raman, ABS, FL, XAS/XES, NRVS
   Peter Pinski           : DLPNO-MP2, DLPNO-MP2 Gradient
   Christoph Reimann      : Effective Core Potentials
   Marius Retegan         : Local ZFS, SOC
   Christoph Riplinger    : Optimizer, TS searches, QM/MM, DLPNO-CCSD(T), (RO)-DLPNO pert. Triples
   Tobias Risthaus        : Range-separated hybrids, TD-DFT gradient, RPA, STAB
   Michael Roemelt        : Restricted open shell CIS
   Masaaki Saitow         : Open-shell DLPNO
   Barbara Sandhoefer     : DKH picture change effects
   Avijit Sen             : IP-ROCIS
   Kantharuban Sivalingam : CASSCF convergence, NEVPT2, FIC-MRCI
   Bernardo de Souza      : ESD, SOC TD-DFT
   Georgi Stoychev        : AutoAux, RI-MP2 NMR
   Willem Van den Heuvel  : Paramagnetic NMR
   Boris Wezisla          : Elementary symmetry handling
   Frank Wennmohs         : Technical directorship


 We gratefully acknowledge several colleagues who have allowed us to
 interface, adapt or use parts of their codes:
   Stefan Grimme, W. Hujo, H. Kruse,             : VdW corrections, initial TS optimization,
                  C. Bannwarth                     DFT functionals, gCP, sTDA/sTD-DF
   Ed Valeev                                     : LibInt (2-el integral package), F12 methods
   Garnet Chan, S. Sharma, J. Yang, R. Olivares  : DMRG
   Ulf Ekstrom                                   : XCFun DFT Library
   Mihaly Kallay                                 : mrcc  (arbitrary order and MRCC methods)
   Andreas Klamt, Michael Diedenhofen            : otool_cosmo (COSMO solvation model)
   Jiri Pittner, Ondrej Demel                    : Mk-CCSD
   Frank Weinhold                                : gennbo (NPA and NBO analysis)
   Christopher J. Cramer and Donald G. Truhlar   : smd solvation model
   Lars Goerigk                                  : TD-DFT with DH, B97 family of functionals
   V. Asgeirsson, H. Jonsson                     : NEB implementation
   FAccTs GmbH                                   : IRC, NEB, NEB-TS, Multilevel


 Your calculation uses the libint2 library for the computation of 2-el integrals
 For citations please refer to: http://libint.valeyev.net

 This ORCA versions uses:
   CBLAS   interface :  Fast vector & matrix operations
   LAPACKE interface :  Fast linear algebra routines
   SCALAPACK package :  Parallel linear algebra routines




***************************************
The coordinates will be read from file: 4_methylpiperidine_ax.xyz
***************************************


----- Orbital basis set information -----
Your calculation utilizes the basis: cc-pVDZ 
       H, B-Ne : Obtained from the ccRepo (grant-hill.group.shef.ac.uk/ccrepo) Feb. 2017
                 T. H. Dunning, Jr., J. Chem. Phys. 90, 1007 (1989)
            He : Obtained from the ccRepo (grant-hill.group.shef.ac.uk/ccrepo) Feb. 2017
                 D. E. Woon, T. H. Dunning, Jr., J. Chem. Phys. 100, 2975 (1994)
  Li-Be, Na-Mg : Obtained from the ccRepo (grant-hill.group.shef.ac.uk/ccrepo) Feb. 2017
                 B. P. Prascher, D. E. Woon, K. A. Peterson, T. H. Dunning, Jr., A. K. Wilson, Theor. Chem. Acc. 128, 69 (2011)
         Al-Ar : Obtained from the ccRepo (grant-hill.group.shef.ac.uk/ccrepo) Feb. 2017
                 D. E. Woon, T. H. Dunning, Jr., J. Chem. Phys. 98, 1358 (1993)
            Ca : Obtained from the Peterson Research Group Website (tyr0.chem.wsu.edu/~kipeters) Feb. 2017
                 J. Koput, K. A. Peterson, J. Phys. Chem. 106, 9595 (2002)
         Sc-Zn : Obtained from the ccRepo (grant-hill.group.shef.ac.uk/ccrepo) Feb. 2017
                 N. B. Balabanov, K. A. Peterson, J. Chem. Phys. 123, 064107 (2005)
                 N. B. Balabanov, K. A. Peterson, J. Chem. Phys. 125, 074110 (2006)
         Ga-Kr : Obtained from the ccRepo (grant-hill.group.shef.ac.uk/ccrepo) Feb. 2017
                 A. K. Wilson, D. E. Woon, K. A. Peterson, T. H. Dunning, Jr., J. Chem. Phys. 110, 7667 (1999)

----- AuxC basis set information -----
Your calculation utilizes the auxiliary basis: cc-pVDZ/C 
  H-He, B, Ne, Al-Ar, Ga-Br : Obtained from the EMSL Basis Set Exchange (bse.pnl.gov) Feb. 2017
                              F. Weigend, A. Kohn, C. Hattig, J. Chem. Phys. 116, 3175 (2002)
               Li-Be, Na-Mg : Obtained from the EMSL Basis Set Exchange (bse.pnl.gov) Feb. 2017
                              C. Haettig, Phys. Chem. Chem. Phys. 7, 59 (2005)
                        C-F : Obtained from the EMSL Basis Set Exchange (bse.pnl.gov) Feb. 2017
                              C. Haettig, Phys. Chem. Chem. Phys. 7, 59 (2005)
                              F. Weigend, A. Kohn, C. Hattig, J. Chem. Phys. 116, 3175 (2002)
                         Kr : Obtained from the TURBOMOLE 7.0 basis set library
                              F. Weigend, A. Kohn, C. Hattig, J. Chem. Phys. 116, 3175 (2002)
                              S function revised in Sep. 2009

----- AuxJK basis set information -----
Your calculation utilizes the auxiliary basis: cc-pVTZ/JK 
  H, B-F, Al-Cl, Ga-Br : Obtained from the TURBOMOLE 7.0 basis set library

================================================================================
                                        WARNINGS
                       Please study these warnings very carefully!
================================================================================


WARNING: MDCI localization with Augmented Hessian Foster-Boys
  ===> : Switching off randomization!

WARNING: Post HF methods need fully converged wavefunctions
  ===> : Setting SCFConvForced true
         You can overwrite this default with %scf ConvForced false 


INFO   : the flag for use of LIBINT has been found!

================================================================================
                                       INPUT FILE
================================================================================
NAME = 4_methylpiperidine_ax.inp
|  1> ! RHF DLPNO-CCSD(T) cc-pVDZ RIJK cc-pVTZ/JK cc-pVDZ/C
|  2> ! KDIIS SOSCF TightSCF TightPNO
|  3> 
|  4> %pal nprocs 4 end
|  5> 
|  6> %maxcore 8000
|  7> 
|  8> %scf maxiter 300
|  9>      shift shift 0.2 erroff 0.1 end
| 10> end
| 11> 
| 12> * xyzfile 0 1 4_methylpiperidine_ax.xyz 
| 13> 
| 14> 
| 15>                          ****END OF INPUT****
================================================================================

                       ****************************
                       * Single Point Calculation *
                       ****************************

---------------------------------
CARTESIAN COORDINATES (ANGSTROEM)
---------------------------------
  C      1.120710    0.000010    0.494480
  C      0.234900    1.261550    0.617100
  C     -0.981340    1.217550   -0.316500
  N     -1.755310   -0.000020   -0.055600
  C     -0.981300   -1.217570   -0.316490
  C      0.234940   -1.261530    0.617110
  C      1.975960    0.000010   -0.784630
  H     -2.611670   -0.000040   -0.601890
  H     -1.624860    2.084370   -0.129730
  H     -0.647310    1.282750   -1.370270
  H     -0.647260   -1.282760   -1.370260
  H     -1.624810   -2.084400   -0.129720
  H     -0.132960    1.341100    1.647770
  H      0.827780    2.162010    0.411120
  H      0.827840   -2.161980    0.411140
  H     -0.132920   -1.341070    1.647780
  H      1.817390    0.000030    1.344130
  H      2.621820    0.885160   -0.820680
  H      2.621830   -0.885140   -0.820640
  H      1.369130   -0.000000   -1.695900

----------------------------
CARTESIAN COORDINATES (A.U.)
----------------------------
  NO LB      ZA    FRAG     MASS         X           Y           Z
   0 C     6.0000    0    12.011    2.117835    0.000019    0.934432
   1 C     6.0000    0    12.011    0.443897    2.383984    1.166150
   2 C     6.0000    0    12.011   -1.854464    2.300836   -0.598098
   3 N     7.0000    0    14.007   -3.317055   -0.000038   -0.105069
   4 C     6.0000    0    12.011   -1.854388   -2.300874   -0.598079
   5 C     6.0000    0    12.011    0.443972   -2.383946    1.166169
   6 C     6.0000    0    12.011    3.734023    0.000019   -1.482736
   7 H     1.0000    0     1.008   -4.935341   -0.000076   -1.137407
   8 H     1.0000    0     1.008   -3.070540    3.938888   -0.245154
   9 H     1.0000    0     1.008   -1.223239    2.424046   -2.589435
  10 H     1.0000    0     1.008   -1.223144   -2.424065   -2.589416
  11 H     1.0000    0     1.008   -3.070446   -3.938945   -0.245135
  12 H     1.0000    0     1.008   -0.251258    2.534312    3.113834
  13 H     1.0000    0     1.008    1.564277    4.085607    0.776904
  14 H     1.0000    0     1.008    1.564391   -4.085550    0.776942
  15 H     1.0000    0     1.008   -0.251182   -2.534255    3.113853
  16 H     1.0000    0     1.008    3.434369    0.000057    2.540038
  17 H     1.0000    0     1.008    4.954522    1.672710   -1.550860
  18 H     1.0000    0     1.008    4.954541   -1.672672   -1.550785
  19 H     1.0000    0     1.008    2.587281   -0.000000   -3.204787

--------------------------------
INTERNAL COORDINATES (ANGSTROEM)
--------------------------------
 C      0   0   0     0.000000000000     0.00000000     0.00000000
 C      1   0   0     1.546343490981     0.00000000     0.00000000
 C      2   1   0     1.533878970975   112.49172466     0.00000000
 N      3   2   1     1.466142924752   109.51720692    55.85473681
 C      4   3   2     1.466145652621   112.29005006   298.28008135
 C      5   4   3     1.533877824079   109.51741147    61.72006581
 C      1   2   3     1.538692612122   112.60160232    75.59029437
 H      4   3   2     1.015768287603   110.44841490   174.51371061
 H      3   2   1     1.095617604687   109.83268664   174.86456786
 H      3   2   1     1.107365474358   109.77497698   292.28061910
 H      5   4   3     1.107367902099   112.17683738   299.57216097
 H      5   4   3     1.095619642896   108.45865961   181.57541590
 H      2   1   3     1.097237363108   109.00703362   119.68115358
 H      2   1   3     1.097616812189   110.18050305   237.21549561
 H      6   5   4     1.097617535119   109.73114506   181.10817423
 H      6   5   4     1.097236638151   107.93701575    64.44488091
 H      1   2   3     1.098757546186   107.57075330   193.09174668
 H      7   1   2     1.096323521868   110.78009098    58.19120645
 H      7   1   2     1.096328098472   110.77845222   177.62605256
 H      7   1   2     1.094831339477   112.57185299   297.90879999

---------------------------
INTERNAL COORDINATES (A.U.)
---------------------------
 C      0   0   0     0.000000000000     0.00000000     0.00000000
 C      1   0   0     2.922165706926     0.00000000     0.00000000
 C      2   1   0     2.898611177724   112.49172466     0.00000000
 N      3   2   1     2.770608600967   109.51720692    55.85473681
 C      4   3   2     2.770613755893   112.29005006   298.28008135
 C      5   4   3     2.898609010404   109.51741147    61.72006581
 C      1   2   3     2.907707641199   112.60160232    75.59029437
 H      4   3   2     1.919523879092   110.44841490   174.51371061
 H      3   2   1     2.070417220361   109.83268664   174.86456786
 H      3   2   1     2.092617476696   109.77497698   292.28061910
 H      5   4   3     2.092622064463   112.17683738   299.57216097
 H      5   4   3     2.070421072018   108.45865961   181.57541590
 H      2   1   3     2.073478120180   109.00703362   119.68115358
 H      2   1   3     2.074195175025   110.18050305   237.21549561
 H      6   5   4     2.074196541164   109.73114506   181.10817423
 H      6   5   4     2.073476750209   107.93701575    64.44488091
 H      1   2   3     2.076350849870   107.57075330   193.09174668
 H      7   1   2     2.071751210506   110.78009098    58.19120645
 H      7   1   2     2.071759859035   110.77845222   177.62605256
 H      7   1   2     2.068931394445   112.57185299   297.90879999

---------------------
BASIS SET INFORMATION
---------------------
There are 3 groups of distinct atoms

 Group   1 Type C   : 17s4p1d contracted to 3s2p1d pattern {881/31/1}
 Group   2 Type N   : 17s4p1d contracted to 3s2p1d pattern {881/31/1}
 Group   3 Type H   : 4s1p contracted to 2s1p pattern {31/1}

Atom   0C    basis set group =>   1
Atom   1C    basis set group =>   1
Atom   2C    basis set group =>   1
Atom   3N    basis set group =>   2
Atom   4C    basis set group =>   1
Atom   5C    basis set group =>   1
Atom   6C    basis set group =>   1
Atom   7H    basis set group =>   3
Atom   8H    basis set group =>   3
Atom   9H    basis set group =>   3
Atom  10H    basis set group =>   3
Atom  11H    basis set group =>   3
Atom  12H    basis set group =>   3
Atom  13H    basis set group =>   3
Atom  14H    basis set group =>   3
Atom  15H    basis set group =>   3
Atom  16H    basis set group =>   3
Atom  17H    basis set group =>   3
Atom  18H    basis set group =>   3
Atom  19H    basis set group =>   3
-------------------------------
AUXILIARY BASIS SET INFORMATION
-------------------------------
There are 3 groups of distinct atoms

 Group   1 Type C   : 7s5p4d2f contracted to 7s5p4d2f pattern {1111111/11111/1111/11}
 Group   2 Type N   : 7s5p4d2f contracted to 7s5p4d2f pattern {1111111/11111/1111/11}
 Group   3 Type H   : 3s2p1d contracted to 3s2p1d pattern {111/11/1}

Atom   0C    basis set group =>   1
Atom   1C    basis set group =>   1
Atom   2C    basis set group =>   1
Atom   3N    basis set group =>   2
Atom   4C    basis set group =>   1
Atom   5C    basis set group =>   1
Atom   6C    basis set group =>   1
Atom   7H    basis set group =>   3
Atom   8H    basis set group =>   3
Atom   9H    basis set group =>   3
Atom  10H    basis set group =>   3
Atom  11H    basis set group =>   3
Atom  12H    basis set group =>   3
Atom  13H    basis set group =>   3
Atom  14H    basis set group =>   3
Atom  15H    basis set group =>   3
Atom  16H    basis set group =>   3
Atom  17H    basis set group =>   3
Atom  18H    basis set group =>   3
Atom  19H    basis set group =>   3
-------------------------------
AUXILIARY BASIS SET INFORMATION
-------------------------------
There are 3 groups of distinct atoms

 Group   1 Type C   : 10s7p5d2f1g contracted to 10s7p5d2f1g pattern {1111111111/1111111/11111/11/1}
 Group   2 Type N   : 10s7p5d2f1g contracted to 10s7p5d2f1g pattern {1111111111/1111111/11111/11/1}
 Group   3 Type H   : 4s3p2d1f contracted to 4s3p2d1f pattern {1111/111/11/1}

Atom   0C    basis set group =>   1
Atom   1C    basis set group =>   1
Atom   2C    basis set group =>   1
Atom   3N    basis set group =>   2
Atom   4C    basis set group =>   1
Atom   5C    basis set group =>   1
Atom   6C    basis set group =>   1
Atom   7H    basis set group =>   3
Atom   8H    basis set group =>   3
Atom   9H    basis set group =>   3
Atom  10H    basis set group =>   3
Atom  11H    basis set group =>   3
Atom  12H    basis set group =>   3
Atom  13H    basis set group =>   3
Atom  14H    basis set group =>   3
Atom  15H    basis set group =>   3
Atom  16H    basis set group =>   3
Atom  17H    basis set group =>   3
Atom  18H    basis set group =>   3
Atom  19H    basis set group =>   3

Checking for AutoStart:
The File: 4_methylpiperidine_ax.gbw exists
Trying to determine its content:
     ... Fine, the file contains calculation information
     ... Fine, the calculation information was read
     ... Fine, the file contains a basis set
     ... Fine, the basis set was read
     ... Fine, the file contains a geometry
     ... Fine, the geometry was read
     ... Fine, the file contains a set of orbitals
     ... Fine, the orbitals can be read
     => possible old guess file was deleted
     => GBW file was renamed to GES file
     => GES file is set as startup file
     => Guess is set to MORead
     ... now leaving AutoStart



           ************************************************************
           *        Program running with 4 parallel MPI-processes     *
           *              working on a common directory               *
           ************************************************************
------------------------------------------------------------------------------
                           ORCA GTO INTEGRAL CALCULATION
                           -- RI-GTO INTEGRALS CHOSEN --
------------------------------------------------------------------------------

                         BASIS SET STATISTICS AND STARTUP INFO

Gaussian basis set:
 # of primitive gaussian shells          ...  219
 # of primitive gaussian functions       ...  329
 # of contracted shells                  ...   81
 # of contracted basis functions         ...  163
 Highest angular momentum                ...    2
 Maximum contraction depth               ...    8
Auxiliary gaussian basis set:
 # of primitive gaussian shells          ...  305
 # of primitive gaussian functions       ...  943
 # of contracted shells                  ...  305
 # of contracted aux-basis functions     ...  943
 Highest angular momentum                ...    4
 Maximum contraction depth               ...    1
Ratio of auxiliary to basis functions    ...  5.79
Integral package used                  ... LIBINT
 One Electron integrals                  ... done
 Ordering auxiliary basis shells         ... done
 Integral threshhold             Thresh  ...  2.500e-11
 Primitive cut-off               TCut    ...  2.500e-12
 Pre-screening matrix                    ... done
 Shell pair data                         ... 
 Ordering of the shell pairs             ... done (   0.001 sec) 3313 of 3321 pairs
 Determination of significant pairs      ... done (   0.000 sec)
 Creation of shell pair data             ... done (   0.001 sec)
 Storage of shell pair data              ... done (   0.001 sec)
 Shell pair data done in (   0.003 sec)
 Computing two index integrals           ... done
 Cholesky decomposition of the V-matrix  ... done


Timings:
 Total evaluation time                   ...   0.488 sec (  0.008 min)
 One electron matrix time                ...   0.068 sec (  0.001 min) = 13.9%
 Schwartz matrix evaluation time         ...   0.214 sec (  0.004 min) = 43.9%
 Two index repulsion integral time       ...   0.079 sec (  0.001 min) = 16.3%
 Cholesky decomposition of V             ...   0.090 sec (  0.002 min) = 18.5%
 Three index repulsion integral time     ...   0.000 sec (  0.000 min) =  0.0%



           ************************************************************
           *        Program running with 4 parallel MPI-processes     *
           *              working on a common directory               *
           ************************************************************
-------------------------------------------------------------------------------
                                 ORCA SCF
-------------------------------------------------------------------------------

------------
SCF SETTINGS
------------
Hamiltonian:
 Ab initio Hamiltonian  Method          .... Hartree-Fock(GTOs)
 RI-approximation to the Coulomb term is turned on
   Number of auxiliary basis functions  .... 943
   RI-JK (J+K treated both via RI)      .... on


General Settings:
 Integral files         IntName         .... 4_methylpiperidine_ax
 Hartree-Fock type      HFTyp           .... RHF
 Total Charge           Charge          ....    0
 Multiplicity           Mult            ....    1
 Number of Electrons    NEL             ....   56
 Basis Dimension        Dim             ....  163
 Nuclear Repulsion      ENuc            ....    334.4473149788 Eh

Convergence Acceleration:
 DIIS                   CNVDIIS         .... off
 Newton-Raphson         CNVNR           .... off
 SOSCF                  CNVSOSCF        .... on
   Start iteration      SOSCFMaxIt      ....   150
   Startup grad/error   SOSCFStart      ....  0.003300
 Level Shifting         CNVShift        .... on
   Level shift para.    LevelShift      ....    0.2000
   Turn off err/grad.   ShiftErr        ....    0.1000
 Zerner damping         CNVZerner       .... off
 Static damping         CNVDamp         .... off
 Fernandez-Rico         CNVRico         .... off

SCF Procedure:
 Maximum # iterations   MaxIter         ....   300
 SCF integral mode      SCFMode         .... Direct
   Integral package                     .... LIBINT
 Reset frequency        DirectResetFreq ....    20
 Integral Threshold     Thresh          ....  2.500e-11 Eh
 Primitive CutOff       TCut            ....  2.500e-12 Eh

Convergence Tolerance:
 Convergence Check Mode ConvCheckMode   .... Total+1el-Energy
 Convergence forced     ConvForced      .... 1
 Energy Change          TolE            ....  1.000e-08 Eh
 1-El. energy change                    ....  1.000e-05 Eh
 Orbital Gradient       TolG            ....  1.000e-05
 Orbital Rotation angle TolX            ....  1.000e-05


Diagonalization of the overlap matrix:
Smallest eigenvalue                        ... 3.431e-03
Time for diagonalization                   ...    0.009 sec
Threshold for overlap eigenvalues          ... 1.000e-08
Number of eigenvalues below threshold      ... 0
Time for construction of square roots      ...    0.008 sec
Total time needed                          ...    0.017 sec

---------------------
INITIAL GUESS: MOREAD
---------------------
Guess MOs are being read from file: 4_methylpiperidine_ax.ges
Input Geometry matches current geometry (good)
Atom 0: N(Shells)= 6 and 10 - projection required
Input basis set needs projection
NBasis(read)= 392
NBasis(calc)= 163
Basis set overlap was calculated
Using GuessMode=FMatrix for the initial guess
C*T matrix was formed
Effective Fockian was calculated
Effective Fockian was diagonalized
Initial density was built
                      ------------------
                      INITIAL GUESS DONE (   0.1 sec)
                      ------------------
--------------
SCF ITERATIONS
--------------
ITER       Energy         Delta-E        Max-DP      RMS-DP      [F,P]   Gradient Norm
                             ****Turning on KDIIS(Cayley)****
  0   -289.2416884051   0.000000000000 0.00273355  0.00006245  0.0051181   0.005590119
  1   -289.2418131950  -0.000124789901 0.00517985  0.00012129  0.0046390   0.005077769
  2   -289.2420254074  -0.000212212357 0.00795221  0.00019578  0.0037161   0.004086111
                      *** Initiating the SOSCF procedure ***
                           *** Shutting down KDIIS ***
                      *** Re-Reading the Fockian *** 
                      *** Removing any level shift *** 
ITER      Energy       Delta-E        Grad      Rot      Max-DP    RMS-DP
  3   -289.24227701  -0.0002515989  0.002227  0.002227  0.011271  0.000294
  4   -289.24242017  -0.0001431660  0.000012  0.000019  0.000037  0.000001
                 **** Energy Check signals convergence ****
              ***Rediagonalizing the Fockian in SOSCF/NRSCF***

               *****************************************************
               *                     SUCCESS                       *
               *           SCF CONVERGED AFTER   5 CYCLES          *
               *****************************************************


----------------
TOTAL SCF ENERGY
----------------

Total Energy       :         -289.24242018 Eh           -7870.68639 eV

Components:
Nuclear Repulsion  :          334.44731498 Eh            9100.77411 eV
Electronic Energy  :         -623.68973516 Eh          -16971.46051 eV
One Electron Energy:        -1053.70597723 Eh          -28672.79734 eV
Two Electron Energy:          430.01624207 Eh           11701.33683 eV

Virial components:
Potential Energy   :         -578.07378997 Eh          -15730.18753 eV
Kinetic Energy     :          288.83136979 Eh            7859.50114 eV
Virial Ratio       :            2.00142315


---------------
SCF CONVERGENCE
---------------

  Last Energy change         ...   -9.0511e-09  Tolerance :   1.0000e-08
  Last MAX-Density change    ...    3.7877e-05  Tolerance :   1.0000e-07
  Last RMS-Density change    ...    8.1143e-07  Tolerance :   5.0000e-09
  Last Orbital Gradient      ...    6.4625e-06  Tolerance :   1.0000e-05
  Last Orbital Rotation      ...    1.4684e-05  Tolerance :   1.0000e-05

             **** THE GBW FILE WAS UPDATED (4_methylpiperidine_ax.gbw) ****
             **** DENSITY FILE WAS UPDATED (4_methylpiperidine_ax.scfp.tmp) ****
             **** ENERGY FILE WAS UPDATED (4_methylpiperidine_ax.en.tmp) ****
----------------
ORBITAL ENERGIES
----------------

  NO   OCC          E(Eh)            E(eV) 
   0   2.0000     -15.534759      -422.7223 
   1   2.0000     -11.245905      -306.0166 
   2   2.0000     -11.245888      -306.0162 
   3   2.0000     -11.225832      -305.4704 
   4   2.0000     -11.217081      -305.2323 
   5   2.0000     -11.217052      -305.2315 
   6   2.0000     -11.216503      -305.2166 
   7   2.0000      -1.202211       -32.7138 
   8   2.0000      -1.071555       -29.1585 
   9   2.0000      -1.006633       -27.3919 
  10   2.0000      -0.937607       -25.5136 
  11   2.0000      -0.837384       -22.7864 
  12   2.0000      -0.835803       -22.7433 
  13   2.0000      -0.722557       -19.6618 
  14   2.0000      -0.677197       -18.4275 
  15   2.0000      -0.626655       -17.0522 
  16   2.0000      -0.612330       -16.6623 
  17   2.0000      -0.574337       -15.6285 
  18   2.0000      -0.569066       -15.4851 
  19   2.0000      -0.565594       -15.3906 
  20   2.0000      -0.526369       -14.3232 
  21   2.0000      -0.508449       -13.8356 
  22   2.0000      -0.505124       -13.7451 
  23   2.0000      -0.481360       -13.0985 
  24   2.0000      -0.452214       -12.3054 
  25   2.0000      -0.433453       -11.7949 
  26   2.0000      -0.430141       -11.7047 
  27   2.0000      -0.357694        -9.7333 
  28   0.0000       0.175081         4.7642 
  29   0.0000       0.199768         5.4360 
  30   0.0000       0.215368         5.8605 
  31   0.0000       0.222065         6.0427 
  32   0.0000       0.243483         6.6255 
  33   0.0000       0.250554         6.8179 
  34   0.0000       0.254463         6.9243 
  35   0.0000       0.277070         7.5394 
  36   0.0000       0.277832         7.5602 
  37   0.0000       0.281768         7.6673 
  38   0.0000       0.285728         7.7750 
  39   0.0000       0.324947         8.8423 
  40   0.0000       0.330409         8.9909 
  41   0.0000       0.370645        10.0858 
  42   0.0000       0.382032        10.3956 
  43   0.0000       0.382599        10.4110 
  44   0.0000       0.415119        11.2960 
  45   0.0000       0.444654        12.0997 
  46   0.0000       0.452606        12.3160 
  47   0.0000       0.456897        12.4328 
  48   0.0000       0.584040        15.8925 
  49   0.0000       0.604039        16.4367 
  50   0.0000       0.633658        17.2427 
  51   0.0000       0.638596        17.3771 
  52   0.0000       0.647535        17.6203 
  53   0.0000       0.690377        18.7861 
  54   0.0000       0.691041        18.8042 
  55   0.0000       0.755624        20.5616 
  56   0.0000       0.775821        21.1112 
  57   0.0000       0.814706        22.1693 
  58   0.0000       0.814771        22.1710 
  59   0.0000       0.817694        22.2506 
  60   0.0000       0.840510        22.8714 
  61   0.0000       0.856975        23.3195 
  62   0.0000       0.867395        23.6030 
  63   0.0000       0.872412        23.7395 
  64   0.0000       0.885570        24.0976 
  65   0.0000       0.894637        24.3443 
  66   0.0000       0.895738        24.3743 
  67   0.0000       0.905245        24.6330 
  68   0.0000       0.909502        24.7488 
  69   0.0000       0.918067        24.9819 
  70   0.0000       0.922328        25.0978 
  71   0.0000       0.946023        25.7426 
  72   0.0000       0.946255        25.7489 
  73   0.0000       0.957601        26.0577 
  74   0.0000       0.970539        26.4097 
  75   0.0000       0.982907        26.7463 
  76   0.0000       1.013706        27.5844 
  77   0.0000       1.019073        27.7304 
  78   0.0000       1.097458        29.8634 
  79   0.0000       1.112182        30.2640 
  80   0.0000       1.130938        30.7744 
  81   0.0000       1.142536        31.0900 
  82   0.0000       1.173285        31.9267 
  83   0.0000       1.255271        34.1576 
  84   0.0000       1.311814        35.6963 
  85   0.0000       1.356634        36.9159 
  86   0.0000       1.368184        37.2302 
  87   0.0000       1.399233        38.0751 
  88   0.0000       1.429076        38.8871 
  89   0.0000       1.478354        40.2281 
  90   0.0000       1.507606        41.0241 
  91   0.0000       1.548134        42.1269 
  92   0.0000       1.580397        43.0048 
  93   0.0000       1.618449        44.0402 
  94   0.0000       1.632727        44.4288 
  95   0.0000       1.648084        44.8466 
  96   0.0000       1.697182        46.1827 
  97   0.0000       1.722863        46.8815 
  98   0.0000       1.744157        47.4609 
  99   0.0000       1.753644        47.7191 
 100   0.0000       1.765384        48.0385 
 101   0.0000       1.823553        49.6214 
 102   0.0000       1.837394        49.9980 
 103   0.0000       1.846142        50.2361 
 104   0.0000       1.885774        51.3145 
 105   0.0000       1.896239        51.5993 
 106   0.0000       1.900060        51.7033 
 107   0.0000       1.920584        52.2617 
 108   0.0000       1.925017        52.3824 
 109   0.0000       1.933881        52.6236 
 110   0.0000       1.943861        52.8951 
 111   0.0000       1.945106        52.9290 
 112   0.0000       1.967804        53.5467 
 113   0.0000       1.992604        54.2215 
 114   0.0000       2.002094        54.4798 
 115   0.0000       2.004752        54.5521 
 116   0.0000       2.010829        54.7174 
 117   0.0000       2.024673        55.0941 
 118   0.0000       2.032161        55.2979 
 119   0.0000       2.052072        55.8397 
 120   0.0000       2.054484        55.9053 
 121   0.0000       2.112303        57.4787 
 122   0.0000       2.119448        57.6731 
 123   0.0000       2.149029        58.4780 
 124   0.0000       2.168661        59.0123 
 125   0.0000       2.181538        59.3627 
 126   0.0000       2.206040        60.0294 
 127   0.0000       2.207948        60.0813 
 128   0.0000       2.278842        62.0104 
 129   0.0000       2.279486        62.0280 
 130   0.0000       2.297876        62.5284 
 131   0.0000       2.316405        63.0326 
 132   0.0000       2.326860        63.3171 
 133   0.0000       2.368817        64.4588 
 134   0.0000       2.370458        64.5034 
 135   0.0000       2.389453        65.0203 
 136   0.0000       2.405672        65.4617 
 137   0.0000       2.480608        67.5008 
 138   0.0000       2.516084        68.4661 
 139   0.0000       2.552107        69.4464 
 140   0.0000       2.565281        69.8049 
 141   0.0000       2.588960        70.4492 
 142   0.0000       2.617339        71.2214 
 143   0.0000       2.622435        71.3601 
 144   0.0000       2.660213        72.3881 
 145   0.0000       2.675429        72.8021 
 146   0.0000       2.706640        73.6514 
 147   0.0000       2.727168        74.2100 
 148   0.0000       2.782420        75.7135 
 149   0.0000       2.795912        76.0806 
 150   0.0000       2.825047        76.8734 
 151   0.0000       2.826760        76.9201 
 152   0.0000       2.867056        78.0166 
 153   0.0000       2.884985        78.5044 
 154   0.0000       2.919331        79.4390 
 155   0.0000       2.958002        80.4913 
 156   0.0000       2.965198        80.6871 
 157   0.0000       3.040764        82.7434 
 158   0.0000       3.074205        83.6534 
 159   0.0000       3.085828        83.9696 
 160   0.0000       3.142950        85.5240 
 161   0.0000       3.146180        85.6119 
 162   0.0000       3.421779        93.1114 

                    ********************************
                    * MULLIKEN POPULATION ANALYSIS *
                    ********************************

-----------------------
MULLIKEN ATOMIC CHARGES
-----------------------
   0 C :   -0.219071
   1 C :    0.012961
   2 C :    0.102289
   3 N :   -0.370751
   4 C :    0.102284
   5 C :    0.012969
   6 C :    0.010315
   7 H :    0.093333
   8 H :    0.025850
   9 H :    0.005597
  10 H :    0.005598
  11 H :    0.025851
  12 H :    0.030271
  13 H :    0.017303
  14 H :    0.017302
  15 H :    0.030270
  16 H :    0.013828
  17 H :    0.027967
  18 H :    0.027968
  19 H :    0.027868
Sum of atomic charges:    0.0000000

--------------------------------
MULLIKEN REDUCED ORBITAL CHARGES
--------------------------------
  0 C s       :     3.169083  s :     3.169083
      pz      :     0.996910  p :     2.945854
      px      :     0.975450
      py      :     0.973495
      dz2     :     0.020937  d :     0.104134
      dxz     :     0.027788
      dyz     :     0.010945
      dx2y2   :     0.016999
      dxy     :     0.027466
  1 C s       :     3.044909  s :     3.044909
      pz      :     0.980150  p :     2.862852
      px      :     0.935232
      py      :     0.947469
      dz2     :     0.019903  d :     0.079279
      dxz     :     0.018935
      dyz     :     0.005676
      dx2y2   :     0.013309
      dxy     :     0.021455
  2 C s       :     3.024156  s :     3.024156
      pz      :     0.968124  p :     2.763943
      px      :     0.927506
      py      :     0.868313
      dz2     :     0.026522  d :     0.109612
      dxz     :     0.021923
      dyz     :     0.012995
      dx2y2   :     0.016878
      dxy     :     0.031293
  3 N s       :     3.470771  s :     3.470771
      pz      :     1.665826  p :     3.862002
      px      :     1.108948
      py      :     1.087228
      dz2     :     0.003218  d :     0.037979
      dxz     :     0.008226
      dyz     :     0.006344
      dx2y2   :     0.008552
      dxy     :     0.011640
  4 C s       :     3.024160  s :     3.024160
      pz      :     0.968126  p :     2.763944
      px      :     0.927500
      py      :     0.868318
      dz2     :     0.026522  d :     0.109612
      dxz     :     0.021924
      dyz     :     0.012995
      dx2y2   :     0.016878
      dxy     :     0.031293
  5 C s       :     3.044902  s :     3.044902
      pz      :     0.980150  p :     2.862849
      px      :     0.935232
      py      :     0.947467
      dz2     :     0.019904  d :     0.079280
      dxz     :     0.018935
      dyz     :     0.005677
      dx2y2   :     0.013309
      dxy     :     0.021455
  6 C s       :     3.018169  s :     3.018169
      pz      :     0.964811  p :     2.910877
      px      :     0.960075
      py      :     0.985991
      dz2     :     0.018514  d :     0.060639
      dxz     :     0.017537
      dyz     :     0.003248
      dx2y2   :     0.003956
      dxy     :     0.017384
  7 H s       :     0.852640  s :     0.852640
      pz      :     0.018776  p :     0.054026
      px      :     0.028959
      py      :     0.006291
  8 H s       :     0.945784  s :     0.945784
      pz      :     0.005332  p :     0.028366
      px      :     0.009358
      py      :     0.013676
  9 H s       :     0.966929  s :     0.966929
      pz      :     0.018970  p :     0.027473
      px      :     0.005195
      py      :     0.003309
 10 H s       :     0.966929  s :     0.966929
      pz      :     0.018970  p :     0.027473
      px      :     0.005195
      py      :     0.003309
 11 H s       :     0.945783  s :     0.945783
      pz      :     0.005332  p :     0.028366
      px      :     0.009358
      py      :     0.013676
 12 H s       :     0.940836  s :     0.940836
      pz      :     0.018576  p :     0.028894
      px      :     0.006022
      py      :     0.004296
 13 H s       :     0.953466  s :     0.953466
      pz      :     0.005204  p :     0.029232
      px      :     0.008918
      py      :     0.015110
 14 H s       :     0.953466  s :     0.953466
      pz      :     0.005204  p :     0.029232
      px      :     0.008918
      py      :     0.015110
 15 H s       :     0.940837  s :     0.940837
      pz      :     0.018576  p :     0.028894
      px      :     0.006022
      py      :     0.004296
 16 H s       :     0.958542  s :     0.958542
      pz      :     0.013768  p :     0.027630
      px      :     0.010274
      py      :     0.003588
 17 H s       :     0.941806  s :     0.941806
      pz      :     0.004593  p :     0.030226
      px      :     0.010407
      py      :     0.015227
 18 H s       :     0.941806  s :     0.941806
      pz      :     0.004593  p :     0.030226
      px      :     0.010407
      py      :     0.015227
 19 H s       :     0.941622  s :     0.941622
      pz      :     0.015483  p :     0.030510
      px      :     0.009583
      py      :     0.005445


                     *******************************
                     * LOEWDIN POPULATION ANALYSIS *
                     *******************************

----------------------
LOEWDIN ATOMIC CHARGES
----------------------
   0 C :   -0.042861
   1 C :   -0.027337
   2 C :   -0.012463
   3 N :   -0.042811
   4 C :   -0.012461
   5 C :   -0.027339
   6 C :   -0.048027
   7 H :    0.033865
   8 H :    0.017427
   9 H :   -0.003264
  10 H :   -0.003264
  11 H :    0.017428
  12 H :    0.020885
  13 H :    0.017078
  14 H :    0.017078
  15 H :    0.020886
  16 H :    0.018942
  17 H :    0.020543
  18 H :    0.020544
  19 H :    0.015149

-------------------------------
LOEWDIN REDUCED ORBITAL CHARGES
-------------------------------
  0 C s       :     2.794574  s :     2.794574
      pz      :     1.011172  p :     3.006448
      px      :     0.996649
      py      :     0.998627
      dz2     :     0.047187  d :     0.241839
      dxz     :     0.068420
      dyz     :     0.024614
      dx2y2   :     0.039514
      dxy     :     0.062104
  1 C s       :     2.794930  s :     2.794930
      pz      :     1.023727  p :     3.031397
      px      :     1.002995
      py      :     1.004675
      dz2     :     0.051699  d :     0.201010
      dxz     :     0.045462
      dyz     :     0.014289
      dx2y2   :     0.033222
      dxy     :     0.056338
  2 C s       :     2.796903  s :     2.796903
      pz      :     1.026137  p :     2.952457
      px      :     0.989538
      py      :     0.936783
      dz2     :     0.065043  d :     0.263102
      dxz     :     0.054484
      dyz     :     0.031631
      dx2y2   :     0.039093
      dxy     :     0.072851
  3 N s       :     3.077604  s :     3.077604
      pz      :     1.621279  p :     3.880552
      px      :     1.150184
      py      :     1.109090
      dz2     :     0.006188  d :     0.084655
      dxz     :     0.018021
      dyz     :     0.011202
      dx2y2   :     0.023141
      dxy     :     0.026103
  4 C s       :     2.796905  s :     2.796905
      pz      :     1.026137  p :     2.952455
      px      :     0.989533
      py      :     0.936785
      dz2     :     0.065042  d :     0.263101
      dxz     :     0.054486
      dyz     :     0.031629
      dx2y2   :     0.039092
      dxy     :     0.072852
  5 C s       :     2.794925  s :     2.794925
      pz      :     1.023726  p :     3.031399
      px      :     1.002996
      py      :     1.004677
      dz2     :     0.051699  d :     0.201015
      dxz     :     0.045462
      dyz     :     0.014290
      dx2y2   :     0.033223
      dxy     :     0.056340
  6 C s       :     2.797263  s :     2.797263
      pz      :     1.021725  p :     3.088805
      px      :     1.025495
      py      :     1.041586
      dz2     :     0.046913  d :     0.161959
      dxz     :     0.045552
      dyz     :     0.009136
      dx2y2   :     0.010470
      dxy     :     0.049888
  7 H s       :     0.820053  s :     0.820053
      pz      :     0.060337  p :     0.146082
      px      :     0.062366
      py      :     0.023378
  8 H s       :     0.906204  s :     0.906204
      pz      :     0.016616  p :     0.076368
      px      :     0.025804
      py      :     0.033948
  9 H s       :     0.927203  s :     0.927203
      pz      :     0.044503  p :     0.076061
      px      :     0.018568
      py      :     0.012991
 10 H s       :     0.927202  s :     0.927202
      pz      :     0.044502  p :     0.076061
      px      :     0.018568
      py      :     0.012990
 11 H s       :     0.906204  s :     0.906204
      pz      :     0.016616  p :     0.076368
      px      :     0.025804
      py      :     0.033948
 12 H s       :     0.900013  s :     0.900013
      pz      :     0.043802  p :     0.079101
      px      :     0.019474
      py      :     0.015825
 13 H s       :     0.904529  s :     0.904529
      pz      :     0.016630  p :     0.078394
      px      :     0.024927
      py      :     0.036838
 14 H s       :     0.904528  s :     0.904528
      pz      :     0.016629  p :     0.078394
      px      :     0.024927
      py      :     0.036837
 15 H s       :     0.900013  s :     0.900013
      pz      :     0.043802  p :     0.079101
      px      :     0.019474
      py      :     0.015825
 16 H s       :     0.902236  s :     0.902236
      pz      :     0.033976  p :     0.078822
      px      :     0.028106
      py      :     0.016741
 17 H s       :     0.901391  s :     0.901391
      pz      :     0.015910  p :     0.078067
      px      :     0.026444
      py      :     0.035713
 18 H s       :     0.901391  s :     0.901391
      pz      :     0.015909  p :     0.078066
      px      :     0.026444
      py      :     0.035712
 19 H s       :     0.905065  s :     0.905065
      pz      :     0.038004  p :     0.079786
      px      :     0.025957
      py      :     0.015825


                      *****************************
                      * MAYER POPULATION ANALYSIS *
                      *****************************

  NA   - Mulliken gross atomic population
  ZA   - Total nuclear charge
  QA   - Mulliken gross atomic charge
  VA   - Mayer's total valence
  BVA  - Mayer's bonded valence
  FA   - Mayer's free valence

  ATOM       NA         ZA         QA         VA         BVA        FA
  0 C      6.2191     6.0000    -0.2191     4.0792     4.0792     0.0000
  1 C      5.9870     6.0000     0.0130     3.9587     3.9587     0.0000
  2 C      5.8977     6.0000     0.1023     3.9880     3.9880     0.0000
  3 N      7.3708     7.0000    -0.3708     3.0077     3.0077    -0.0000
  4 C      5.8977     6.0000     0.1023     3.9880     3.9880    -0.0000
  5 C      5.9870     6.0000     0.0130     3.9587     3.9587    -0.0000
  6 C      5.9897     6.0000     0.0103     3.9258     3.9258     0.0000
  7 H      0.9067     1.0000     0.0933     0.9934     0.9934     0.0000
  8 H      0.9741     1.0000     0.0259     0.9733     0.9733     0.0000
  9 H      0.9944     1.0000     0.0056     0.9608     0.9608     0.0000
 10 H      0.9944     1.0000     0.0056     0.9608     0.9608    -0.0000
 11 H      0.9741     1.0000     0.0259     0.9733     0.9733    -0.0000
 12 H      0.9697     1.0000     0.0303     0.9736     0.9736    -0.0000
 13 H      0.9827     1.0000     0.0173     0.9734     0.9734     0.0000
 14 H      0.9827     1.0000     0.0173     0.9734     0.9734    -0.0000
 15 H      0.9697     1.0000     0.0303     0.9736     0.9736    -0.0000
 16 H      0.9862     1.0000     0.0138     0.9644     0.9644     0.0000
 17 H      0.9720     1.0000     0.0280     0.9767     0.9767     0.0000
 18 H      0.9720     1.0000     0.0280     0.9767     0.9767     0.0000
 19 H      0.9721     1.0000     0.0279     0.9795     0.9795     0.0000

  Mayer bond orders larger than 0.1
B(  0-C ,  1-C ) :   1.0374 B(  0-C ,  5-C ) :   1.0374 B(  0-C ,  6-C ) :   1.0333 
B(  0-C , 16-H ) :   0.9649 B(  1-C ,  2-C ) :   1.0405 B(  1-C , 12-H ) :   0.9620 
B(  1-C , 13-H ) :   0.9697 B(  2-C ,  3-N ) :   1.0198 B(  2-C ,  8-H ) :   0.9751 
B(  2-C ,  9-H ) :   0.9608 B(  3-N ,  4-C ) :   1.0198 B(  3-N ,  7-H ) :   0.9707 
B(  4-C ,  5-C ) :   1.0405 B(  4-C , 10-H ) :   0.9608 B(  4-C , 11-H ) :   0.9751 
B(  5-C , 14-H ) :   0.9697 B(  5-C , 15-H ) :   0.9620 B(  6-C , 17-H ) :   0.9812 
B(  6-C , 18-H ) :   0.9812 B(  6-C , 19-H ) :   0.9777 

-------
TIMINGS
-------

Total SCF time: 0 days 0 hours 0 min 5 sec 

Total time                  ....       5.586 sec
Sum of individual times     ....       5.380 sec  ( 96.3%)

Fock matrix formation       ....       5.274 sec  ( 94.4%)
Diagonalization             ....       0.014 sec  (  0.3%)
Density matrix formation    ....       0.002 sec  (  0.0%)
Population analysis         ....       0.007 sec  (  0.1%)
Initial guess               ....       0.078 sec  (  1.4%)
Orbital Transformation      ....       0.000 sec  (  0.0%)
Orbital Orthonormalization  ....       0.000 sec  (  0.0%)
DIIS solution               ....       0.000 sec  (  0.0%)
SOSCF solution              ....       0.005 sec  (  0.1%)


           ************************************************************
           *        Program running with 4 parallel MPI-processes     *
           *              working on a common directory               *
           ************************************************************


------------------------------------------------------------------------------- 
                              ORCA-MATRIX DRIVEN CI                            
------------------------------------------------------------------------------- 


Wavefunction type
-----------------
Correlation treatment                      ...      CCSD     
Single excitations                         ... ON
Orbital optimization                       ... OFF
Calculation of Z vector                    ... OFF
Calculation of Brueckner orbitals          ... OFF
Perturbative triple excitations            ... ON
Calculation of F12 correction              ... OFF
Frozen core treatment                      ... chemical core (14 el)
Reference Wavefunction                     ... RHF
  Internal Orbitals:     7 ...   27 ( 21 MO's/ 42 electrons)
  Virtual  Orbitals:    28 ...  162 (135 MO's              )
Number of AO's                             ...    163
Number of electrons                        ...     56
Number of correlated electrons             ...     42

Algorithmic settings
--------------------
Integral transformation                    ... All integrals via the RI transformation
K(C) Formation                             ... RI-DLPNO
   PNO-Integral Storage                    ... ON DISK
   PNO occupation number cut-off           ... 1.000e-07
   Singles PNO occupation number cut-off   ... 3.000e-09
   PNO Mulliken prescreening cut-off       ... 1.000e-03
   Domain cut-off (Mulliken population)    ... 1.000e-03
   PNO Normalization                       ...    1
Maximum number of iterations               ...        50
Convergence tolerance (max. residuum)      ... 1.000e-05
Level shift for amplitude update           ... 2.000e-01
Maximum number of DIIS vectors             ...         7
DIIS turned on at iteration                ...         0
Damping before turning on DIIS             ...     0.500
Damping after turning on DIIS              ...     0.000
Pair specific amplitude update             ... OFF
Natural orbital iterations                 ... OFF
Perturbative natural orbital generation    ... OFF
Printlevel                                 ... 2

Singles Fock matrix elements calculated using PNOs.

Memory handling:
----------------
Maximum memory for working arrays          ...   8000 MB
Data storage in matrix containers          ... UNCOMPRESSED
Data type for integral storage             ... DOUBLE
In-Core Storage of quantities:
   Amplitudes+Sigma Vector      ... NO
   J+K operators                ... NO
   DIIS vectors                 ... NO
   3-external integrals         ... NO
   4-external integrals         ... NO

Localization treatment:
-----------------------
Localization option                        ...    6
Localization threshhold                    ... -1.0e+00
Using relative localization threshhold     ... 1.0e-08
Neglect threshold for strong pairs         ... 1.000e-05 Eh
Prescreening threshold for very weak pairs ... 1.000e-07 Eh

Initializing the integral package          ... done
Localizing the valence orbitals
------------------------------------------------------------------------------
                           ORCA ORBITAL LOCALIZATION
------------------------------------------------------------------------------

Input orbitals are from                  ... 4_methylpiperidine_ax.proc0.gbw
Output orbitals are to                   ... 4_methylpiperidine_ax.proc0.loc
Max. number of iterations                ... 128
Localizations seeded randomly            ... off
Convergence tolerance                    ... 1.000e-06
Using relative localization threshhold   ... 1.000e-08
Treshold for strong local MOs            ... 9.500e-01
Treshold for bond MOs                    ... 8.500e-01
Operator                                 ... 0
Orbital range for localization           ... 7 to 27
Localization criterion                   ... FOSTER-BOYS (AUGMENTED HESSIAN)
Doing the dipole integrals     ... o.k.
Initial value of the localization sum :   256.613635
ITERATION   0 : L=  268.7450148370 DL=  1.21e+01 (AVERGE_DL)=    0.2403507313 
ITERATION   1 : L=  270.1054465043 DL=  1.36e+00 (AVERGE_DL)=    0.0804875521 
ITERATION   2 : L=  270.1167178694 DL=  1.13e-02 (AVERGE_DL)=    0.0073261973 
ITERATION   3 : L=  270.1167556308 DL=  3.78e-05 (AVERGE_DL)=    0.0004240473 
ITERATION   4 : L=  270.1167558395 DL=  2.09e-07 (AVERGE_DL)=    0.0000315191 
LOCALIZATION SUM CONVERGED

------------------------------------------------------
AUGMENTED HESSIAN OPTIMIZATION OF FOSTER-BOYS ORBITALS
------------------------------------------------------

Spin operator:           0
Orbital window:          7 to 27
Number of iterations:    128
Gradient tolerance:      1.000e-06
Number of pairs:         210
Davidson threshold:      2000
Diagonalization method:  LAPACK
Iter:    0   L: 270.1167558395   Grad. norm: 9.474441e-04
   *** Likely close to a maximum now. ***
       Augmented Hessian eigenvalues:  8.36e-09 -6.45e+00 -6.46e+00 -9.38e+00 ... 
Iter:    1   L: 270.1167558436   Grad. norm: 6.462217e-10
LOCALIZATION HAS CONVERGED.

Eigenvalues of the Hessian:
  0 -6.452e+00
  1 -6.457e+00
  2 -9.383e+00
  3 -1.231e+01
  4 -1.592e+01
  5 -1.629e+01
  6 -1.737e+01
  7 -1.802e+01
  8 -1.803e+01
  9 -1.814e+01
    ...


------------------------------------------------------------------------------- 
                    LOCALIZED MOLECULAR ORBITAL COMPOSITIONS                   
------------------------------------------------------------------------------- 

The Mulliken populations for each LMO on each atom are computed
The LMO`s will be ordered according to atom index and type
  (A) Strongly localized MO`s have populations of >=0.950 on one atom
  (B) Two center bond orbitals have populations of >=0.850 on two atoms
  (C) Other MO`s are considered to be `delocalized`

FOUND  -   1 strongly local MO`s
       -  20 two center bond MO`s
       -   0 significantly delocalized MO`s

Rather strongly localized orbitals:
MO   7:   3N  -   0.981149
Bond-like localized orbitals:
MO  27:  19H  -   0.502699  and   6C  -   0.509679
MO  26:  18H  -   0.503168  and   6C  -   0.508262
MO  25:  17H  -   0.503168  and   6C  -   0.508262
MO  24:  16H  -   0.513438  and   0C  -   0.499572
MO  23:  15H  -   0.502756  and   5C  -   0.506237
MO  22:  14H  -   0.509929  and   5C  -   0.501005
MO  21:  13H  -   0.509929  and   1C  -   0.501005
MO  20:  12H  -   0.502755  and   1C  -   0.506238
MO  19:  11H  -   0.504107  and   4C  -   0.506951
MO  18:  10H  -   0.520440  and   4C  -   0.499507
MO  17:   9H  -   0.520440  and   2C  -   0.499507
MO  16:   8H  -   0.504108  and   2C  -   0.506951
MO  15:   7H  -   0.465794  and   3N  -   0.536176
MO  14:   6C  -   0.506367  and   0C  -   0.540262
MO  13:   5C  -   0.511085  and   4C  -   0.532368
MO  12:   5C  -   0.515452  and   0C  -   0.538494
MO  11:   4C  -   0.428088  and   3N  -   0.605323
MO  10:   3N  -   0.605323  and   2C  -   0.428089
MO   9:   2C  -   0.532367  and   1C  -   0.511086
MO   8:   1C  -   0.515454  and   0C  -   0.538494
Localized MO's were stored in: 4_methylpiperidine_ax.proc0.loc

Localizing the core orbitals
------------------------------------------------------------------------------
                           ORCA ORBITAL LOCALIZATION
------------------------------------------------------------------------------

Input orbitals are from                  ... 4_methylpiperidine_ax.proc0.loc
Output orbitals are to                   ... 4_methylpiperidine_ax.proc0.loc
Max. number of iterations                ... 128
Localizations seeded randomly            ... off
Convergence tolerance                    ... 1.000e-06
Using relative localization threshhold   ... 1.000e-08
Treshold for strong local MOs            ... 9.500e-01
Treshold for bond MOs                    ... 8.500e-01
Operator                                 ... 0
Orbital range for localization           ... 0 to 6
Localization criterion                   ... FOSTER-BOYS (AUGMENTED HESSIAN)
Doing the dipole integrals     ... o.k.
Initial value of the localization sum :    65.175189
ITERATION   0 : L=   65.1752031649 DL=  1.43e-05 (AVERGE_DL)=    0.0008243866 
ITERATION   1 : L=   65.1752031649 DL=  0.00e+00 (AVERGE_DL)=    0.0000000000 
LOCALIZATION SUM CONVERGED

------------------------------------------------------
AUGMENTED HESSIAN OPTIMIZATION OF FOSTER-BOYS ORBITALS
------------------------------------------------------

Spin operator:           0
Orbital window:          0 to 6
Number of iterations:    128
Gradient tolerance:      1.000e-06
Number of pairs:         21
Davidson threshold:      2000
Diagonalization method:  LAPACK
Iter:    0   L: 65.1752031649   Grad. norm: 5.294271e-06
   *** Likely close to a maximum now. ***
       Augmented Hessian eigenvalues:  2.99e-13 -3.07e+01 -3.07e+01 -3.36e+01 ... 
Iter:    1   L: 65.1752031649   Grad. norm: 4.614045e-19
LOCALIZATION HAS CONVERGED.

Eigenvalues of the Hessian:
  0 -3.070e+01
  1 -3.070e+01
  2 -3.361e+01
  3 -3.361e+01
  4 -3.382e+01
  5 -3.416e+01
  6 -3.416e+01
  7 -8.470e+01
  8 -8.578e+01
  9 -8.578e+01
    ...


------------------------------------------------------------------------------- 
                    LOCALIZED MOLECULAR ORBITAL COMPOSITIONS                   
------------------------------------------------------------------------------- 

The Mulliken populations for each LMO on each atom are computed
The LMO`s will be ordered according to atom index and type
  (A) Strongly localized MO`s have populations of >=0.950 on one atom
  (B) Two center bond orbitals have populations of >=0.850 on two atoms
  (C) Other MO`s are considered to be `delocalized`

FOUND  -   7 strongly local MO`s
       -   0 two center bond MO`s
       -   0 significantly delocalized MO`s

Rather strongly localized orbitals:
MO   6:   6C  -   0.999605
MO   5:   5C  -   0.999253
MO   4:   4C  -   0.999356
MO   3:   3N  -   0.999632
MO   2:   2C  -   0.999356
MO   1:   1C  -   0.999253
MO   0:   0C  -   0.998954
Localized MO's were stored in: 4_methylpiperidine_ax.proc0.loc

Warning: internal orbitals are localized - no re-canonicalization of internal orbitals

--------------------------
CLOSED-SHELL FOCK OPERATOR
--------------------------

RI-JK section for the Fock operator:
  RHF full Fock operator         ... done
  RHF frozen core Fock operator  ... done
Time needed for Fock operator              ...            1.797 sec
Reference energy                           ...   -289.242420183

--------------
DLPNO SETTINGS (2015 fully linear scaling implementation)
--------------

TCutMKN:           1.000e-03
TCutPAO:           1.000e-03
TCutPNO:           1.000e-07
TCutPNOSingles:    3.000e-09
TCutEN:            9.700e-01
TCutPAOExt:        1.000e-01
TCutPairs:         1.000e-05
TCutPre:           1.000e-07
TCutOSV:           1.000e-06
TCutDOij:          1.000e-05
TCutDO:            5.000e-03
TCutC:             1.000e-04
TCutCPAO:          1.000e-03
TCutCMO:           1.000e-03
TScaleDOMP2PreScr: 2.000e+00
TScaleMKNMP2PreScr:1.000e+01
TScalePNOMP2PreScr:1.000e+00
PAO overlap thresh 1.000e-08
Using PNOs for Singles Fock computation
Use new domains
Use fully linear algorithm
TCutTNO:           1.000e-09
TCutMP2Pairs:      1.000e-06
TCutDOStrong:      2.000e-03
TCutMKNStrong:     1.000e-02
TCutMKNWeak:       1.000e-01
TCutDOWeak:        4.000e-03
NTCutTNO:          1

--------------------------
Calculating differential overlap integrals ... ok
--------------------------
ELECTRON PAIR PRESCREENING
--------------------------

Dipole-based pair screening          .... used

   TCutDOij = 1.000000e-05
   TCutPre  = 1.000000e-07
   .... Finished loop over pairs
Total time spent in the prescreening                  ...     0.000 sec
sum of pair energies estimated for screened out pairs ...       0.000000000000 Eh
Thresholds for map construction and integral transformation for crude MP2:
   TCutMKN                    ...     1.0e-02
   TCutDO                     ...     1.0e-02
   TCutPairs                  ...     1.0e-05
   TCutPNO_CrudeMP2           ...     1.0e-07
   TCutPNOSingles_CrudeMP2    ...     3.0e-09
--------------------------------
LOCAL RI TRANSFORMATION (IAVPAO)
--------------------------------

Orbital window:       7 to 27
Number of PAOs:     163
Basis functions:    163 (81 shells)
Aux. functions:     574 (204 shells)

Processing maps (0.0 sec)
Average map sizes:
   Aux shells -> MOs              21.0
   Aux shells -> PAOs            163.0
   MOs        -> AO shells        79.7
   PAOs       -> AO shells        81.0

Calculating integrals (0.5 sec, 14.997 MB)
Sorting integrals (0.0 sec, 14.990 MB)
Total time for the integral transformation: 0.5 sec
--------------------------------
INITIAL GUESS AND PNO GENERATION
--------------------------------

PNO truncation parameters                   .... 
    PAOOverlapThresh   =        1.000e-08

    TCutPairs          =        1.000e-05
    TCutPNO            =        1.000e-07
    TCutPNOSingles     =        3.000e-09
    TCutMP2Pairs       =        1.000e-06
    TCutMKN            =        1.000e-02
    TCutDO             =        1.000e-02

Pair selection                          .... not used
Type of local MP2 treatment                 .... semi-local MP2
Strategy for PNO selection                  .... occupation number selection
Pair density normalization                  .... MP2 norm
Spin component scaling                      .... not used

   .... Finished loop over pairs
Making pair pair interaction lists          ... done

                       ===========================
                        231 OF  231 PAIRS ARE KEPT CCSD PAIRS
                          0 OF  231 PAIRS ARE KEPT MP2 PAIRS FOR (T)
                          0 OF  231 PAIRS ARE SKIPPED
                       ===========================

Total time spent in the initial guess                 ...     0.750 sec
SL-MP2 correlation energy (all non-screened pairs)    ...      -0.992659417051 Eh

Initial PNO correlation energy                        ...      -0.992137755660 Eh
sum of pair energies prescreened and skipped MP2 pairs...       0.000000000000 Eh
sum of pair energies of crude MP2 skipped pairs only  ...       0.000000000000 Eh
sum of MP2 pair energies for pairs that were not kept ...       0.000000000000 Eh
sum of PNO error estimates for the kept pairs         ...      -0.000521661391 Eh
                                                          --------------------
sum of all corrections                                         -0.000521661391
Initial total correlation energy                               -0.992659417051
Thresholds for map construction and integral transformation for fine MP2 and CCSD(T) calculation:
   TCutMKN   ...     1.0e-03
   TCutDO    ...     5.0e-03
   TCutPairs ...     1.0e-05
   TCutCMO   ...     1.0e-03
   TCutCPAO  ...     1.0e-03

Thresholds for map construction and integral transformation for strong Triples:
   TCutMKN   ...     1.0e-02
   TCutDO    ...     1.0e-02
   TCutCMO   ...     1.0e-03
   TCutCPAO  ...     1.0e-03

Thresholds for map construction and integral transformation for weak Triples:
   TCutMKN   ...     1.0e-01
   TCutDO    ...     2.0e-02
   TCutCMO   ...     1.0e-03
   TCutCPAO  ...     1.0e-03

--------------------------------
LOCAL RI TRANSFORMATION (IAVPAO)
--------------------------------

Orbital window:       7 to 27
Number of PAOs:     163
Basis functions:    163 (81 shells)
Aux. functions:     574 (204 shells)

Processing maps (0.0 sec)
Average map sizes:
   Aux shells -> MOs              21.0
   Aux shells -> PAOs            163.0
   MOs        -> AO shells        79.7
   PAOs       -> AO shells        81.0

Calculating integrals (0.5 sec, 14.997 MB)
Sorting integrals (0.0 sec, 14.990 MB)
Total time for the integral transformation: 0.5 sec
--------------------------------
INITIAL GUESS AND PNO GENERATION
--------------------------------

PNO truncation parameters                   .... 
    ScaleTCutPNO       =        1.000e-02
    PAOOverlapThresh   =        1.000e-08

    TCutPairs          =        1.000e-05
    TCutPNO            =        1.000e-07
    TCutPNOSingles     =        3.000e-09
    TCutMP2Pairs       =        1.000e-06
    TCutMKN            =        1.000e-03
    TCutDO             =        5.000e-03

Pair selection                          .... not used
Type of local MP2 treatment                 .... full local PMP2
Strategy for PNO selection                  .... occupation number selection
Pair density normalization                  .... MP2 norm
Spin component scaling                      .... not used

PASS-1: Formation of initial guess LMP2 amplitudes
Initial amplitudes guess done. Entering LMP2 iteration loop:
   Max. no of iterations          ...  50
   Energy convergence tolerance   ...    1.0e-07
   Residual convergence tolerance ...    5.0e-07
   Fock matrix cutoff             ...    1.0e-05 Eh
   DIIS convergence acceleration parameters:
        Max # vectors in DIIS     ... 7
        Start iteration of DIIS   ... 0
        Levelshift                ... 2.000e-01
        Damping factor 1          ... 5.000e-01
        Damping factor 2          ... 1.000e+00
   L-MP2 PNO cut-off              ...   1.0e-09
   L-MP2 PNO cut-off (core)       ...   1.0e-11
                           *** Turning on DIIS ***
LMP2-Iter=   0:  ELMP2= -1.013735506862  DE=   2.1e-02 RMAX=   4.0e-03
LMP2-Iter=   1:  ELMP2= -1.024056816123  DE=   1.0e-02 RMAX=   1.7e-03
LMP2-Iter=   2:  ELMP2= -1.025583736078  DE=   1.5e-03 RMAX=   3.0e-04
LMP2-Iter=   3:  ELMP2= -1.025700208291  DE=   1.2e-04 RMAX=   8.9e-05
LMP2-Iter=   4:  ELMP2= -1.025703335319  DE=   3.1e-06 RMAX=   1.2e-05
LMP2-Iter=   5:  ELMP2= -1.025702192644  DE=   1.1e-06 RMAX=   5.3e-06
LMP2-Iter=   6:  ELMP2= -1.025702088752  DE=   1.0e-07 RMAX=   6.6e-07
LMP2-Iter=   7:  ELMP2= -1.025702086857  DE=   1.9e-09 RMAX=   2.9e-07
LMP2-Iter=   8:  ELMP2= -1.025702091695  DE=   4.8e-09 RMAX=   3.0e-08 => CONVERGED
PASS-2: Formation of Pair natural orbitals
   .... Finished loop over pairs

 PNO Occupation Number Statistics: 
  | Av. % of trace(Dij) retained        ...  99.631586296277
  | sigma^2 in % of trace(Dij) retained ...   2.43e-01
  | Av. % of trace(Di) retained         ...  99.999851441387
  | sigma^2 in % of trace(Di) retained  ...   1.61e-09
 Distributions of % trace(Dij) recovered:
  |       >= 99.9  ...   108 ( 46.8 % of all pairs)
  |   [90.0, 99.0) ...    26 ( 11.3 % of all pairs)
  |   [99.0, 99.9) ...    97 ( 42.0 % of all pairs)
 Distributions of % trace(Di) recovered :
  |       >= 99.9  ...    21 (100.0 % of all I-pairs )

Making pair pair interaction lists          ... done

                       ===========================
                        231 OF  231 PAIRS ARE KEPT
                       ===========================

Total time spent in the initial guess                 ...     6.603 sec
L-MP2 correlation energy (all non-screened pairs)     ...      -1.025702091695 Eh
L-MP2 PNO error correction                            ...      -0.000008813656 Eh
                                                          --------------------
Initial total L-MP2 energy (non-screened pairs)       ...      -1.025710905351 Eh

Initial PNO correlation energy                        ...      -1.025238983825 Eh
sum of pair energies estimated for screened out pairs ...       0.000000000000 Eh
sum of MP2 pair energies for pairs that were not kept ...       0.000000000000 Eh
sum of PNO error estimates for the kept pairs         ...      -0.000471921526 Eh
                                                          --------------------
sum of all corrections                                         -0.000471921526
Initial total correlation energy                               -1.025710905351
Thresholds for map construction and integral transformation for fine MP2 and CCSD(T) calculation:
   TCutMKN   ...     1.0e-03
   TCutDO    ...     5.0e-03
   TCutPairs ...     1.0e-05
   TCutCMO   ...     1.0e-03
   TCutCPAO  ...     1.0e-03

Time for aux screen maps:            0.007
Time for maps after fine MP2:            0.021
-----------------------------
LOCAL RI TRANSFORMATION (IJV)
-----------------------------

Orbital window:       7 to 27
Basis functions:    163 (81 shells)
Aux. functions:     574 (204 shells)

Processing maps (0.0 sec)
Average map sizes:
   Aux shells -> MOs(i)           21.0
   Aux shells -> MOs(j)           21.0
   MOs        -> AO shells        79.7

Calculating integrals (0.5 sec, 1.938 MB)
Sorting integrals (0.0 sec, 1.931 MB)
Total time for the integral transformation: 0.5 sec
--------------------------------
LOCAL RI TRANSFORMATION (VABPAO)
--------------------------------

Number of PAOs:     163
Basis functions:    163 (81 shells)
Aux. functions:     574 (204 shells)

Processing maps (0.0 sec)
Average map sizes:
   Aux shells -> PAOs            163.0
   PAOs       -> AO shells        81.0

Calculating integrals (0.7 sec, 206.568 MB)
Finished


-------------------------------------
Pair Pair Term precalculation with     
RI-(ij|mn) and (im|jn) transformation  
ON THE FLY                             
-------------------------------------

   IBatch   1 (of   1)              ... done (   39.982 sec)
Total EXT                           ...          39.982 sec

---------------------
RI-PNO TRANSFORMATION
---------------------

Total Number of PNOs                   ...  6604
Average number of PNOs per pair        ...    28
Maximal number of PNOs per pair        ...    45
   #pairs with  1 -  5 PNOs   :    0
   #pairs with  6 - 10 PNOs   :    7
   #pairs with 11 - 15 PNOs   :   18
   #pairs with 16 - 20 PNOs   :   19
   #pairs with 21 - 25 PNOs   :   45
   #pairs with 26 - 30 PNOs   :   29
   #pairs with 31 - 35 PNOs   :   50
   #pairs with 36 - 40 PNOs   :   53
   #pairs with 41 - 45 PNOs   :   10
   #pairs with 46 - 50 PNOs   :    0

Generation of (ij|ab)[P] integrals            ... on
Generation of (ia|bc)[P],(ja|bc)[P] integrals ... on
Storage of 3 and 4 external integrals         ... on
Generation of ALL (ka|bc)[P] integrals        ... on
Keep RI integrals in memory                   ... off

Ibatch:  1 (of  1)
Starting 2-4 index PNO integral generation ... done

Timings:
Total PNO integral transformation time     ...          7.387 sec
Size of the 3-external file                ...        54 MB
Size of the 4-external file                ...       244 MB
Size of the IKJL file                      ...         0 MB
Size of the all 3-external file            ...       572 MB
Size of the 1-external file                ...         3 MB

Making pair/pair overlap matrices          ... done (    1.350 sec)
Size of the pair overlap file              ... 221 MB
Redoing the guess amplitudes               ... done (    0.002 sec)

-------------------------
FINAL STARTUP INFORMATION
-------------------------

E(0)                                       ...   -289.242420183
E(L-MP2)                                   ...     -1.025710905
E(L-MP2) including corrections             ...     -1.025710905
Initial E(tot)                             ...   -290.268131088
<T|T>                                      ...      0.317373335
Number of pairs included                   ... 231
Total number of pairs                      ... 231

------------------------------------------------
                  RHF COUPLED CLUSTER ITERATIONS
------------------------------------------------

Number of PNO amplitudes to be optimized   ...       207686
Number of non-PNO amplitudes               ...      4209975
Untruncated number of regular amplitudes   ...      4209975

Iter       E(tot)           E(Corr)          Delta-E          Residual     Time
  0   -290.235278571     -0.992386467      0.033324438      0.019809011    4.43
                           *** Turning on DIIS ***
  1   -290.310942786     -1.068050682     -0.075664215      0.007612235    4.46
  2   -290.345922183     -1.103030078     -0.034979396      0.001664084    4.47
  3   -290.350472785     -1.107580680     -0.004550602      0.000711295    4.45
  4   -290.351407073     -1.108514968     -0.000934288      0.000305387    4.47
  5   -290.351555366     -1.108663262     -0.000148294      0.000155085    4.42
  6   -290.351587567     -1.108695462     -0.000032201      0.000083266    5.26
  7   -290.351591947     -1.108699843     -0.000004380      0.000038229    4.46
  8   -290.351593165     -1.108701061     -0.000001218      0.000014563    4.54
  9   -290.351593312     -1.108701207     -0.000000147      0.000003569    4.51
               --- The Coupled-Cluster iterations have converged ---

----------------------
COUPLED CLUSTER ENERGY
----------------------

E(0)                                       ...   -289.242420183
E(CORR)(strong-pairs)                      ...     -1.108701207
E(CORR)(weak-pairs)                        ...     -0.000471922
E(CORR)(corrected)                         ...     -1.109173129
E(TOT)                                     ...   -290.351593312
Singles Norm <S|S>**1/2                    ...      0.049016899  
T1 diagnostic                              ...      0.007563472  

------------------
LARGEST AMPLITUDES
------------------
  24-> 37  24-> 37       0.042900
  26-> 37  26-> 37       0.042696
  25-> 37  25-> 37       0.042696
  16-> 37  16-> 37       0.041086
  19-> 37  19-> 37       0.041086
  27-> 37  27-> 37       0.040764
  20-> 37  20-> 37       0.040589
  23-> 37  23-> 37       0.040589
  18-> 28  18-> 28       0.039120
  17-> 28  17-> 28       0.039120
  22-> 37  22-> 37       0.038641
  21-> 37  21-> 37       0.038640
  22-> 28  22-> 28       0.037554
  21-> 28  21-> 28       0.037554
  24-> 28  24-> 28       0.037320
  23-> 28  23-> 28       0.037031


-------------------------------------------
DLPNO BASED TRIPLES CORRECTION
-------------------------------------------

Singles multiplier          ...  1.000000
TCutTNO                     ... 1.000e-09
TCutMP2Pairs                ... 1.000e-06
TCutDOStrong                ... 1.000e-02
TCutMKNStrong               ... 1.000e-02
TCutDOWeak                  ... 2.000e-02
TCutMKNWeak                 ... 1.000e-01

Fragment selection                          .... not used
Number of Triples that are to be computed   ...      1750

 . . . . . . . . .
10% done  
20% done  
30% done  
40% done  
50% done  
60% done  
70% done  
80% done  
90% done               (     55.738 sec)
Triples timings:
Total time for T0               ...    60.088 sec
Total time for Iterative (T)    ...     0.000 sec
Total time of overall (T)       ...    60.089 sec

Triples List generation         ...     0.000 sec
TNO generation                  ...     4.346 sec
Pair density generation         ...     0.003 sec
Look up tables                  ...     0.000 sec
Generating 3-index integrals    ...    28.211 sec
  Make 4-ind.int. from 3-ind.int...    10.585 sec
  Projecting amplitudes (D + S) ...     6.006 sec
  Downprojecting integrals      ...     0.002 sec
  Energy contr. (sum over a,b,c)...     3.143 sec
Fitting ET(->0)                 ...     0.000 sec

Everything after 3-index        ...    27.526 sec

Timing details:
 TNO integrals                  ...    37.442 sec
   Reading 3-index integrals    ...     0.041 sec
   Sorting integrals            ...     7.423 sec
       Sorting integrals 1      ...     0.002 sec
       Sorting integrals 2      ...     2.277 sec
       Sorting integrals 3      ...     0.376 sec
       Sorting integrals 4      ...     0.035 sec
       Sorting integrals 5      ...     0.090 sec
       Sorting integrals 6      ...     4.643 sec
   Calculating local VM**-1/2   ...     0.303 sec
   Orthogonal. integrals        ...     0.543 sec
   Multipl. 3-index integrals   ...    29.132 sec
   All concerning IRIab (w/TNO) ...     4.707 sec

 Calculate W0/W1                ...     7.778 sec
 W 3-ext contribution           ...     4.268 sec
 W 3-int contribution           ...     1.436 sec
 Sorting W                      ...     1.915 sec

 V exchange contribution        ...     1.245 sec

 Timings for Triples without generation
     of 3-index integrals       ...    27.521 sec
       0 weak pairs             ...    27.521 sec
       1 weak pair              ...     0.000 sec
       2 weak pairs             ...     0.000 sec
       3 weak pairs             ...     0.000 sec
  Extra time for extrapolation  ...     0.000 sec

Number of Triples   (0, 1, 2, 3 weak pairs; overall):   1750       0       0       0  (  1750)
Number of Atoms     (0, 1, 2, 3 weak pairs; overall):   19.1     0.0     0.0     0.0  (    20)
Number of PAOs      (0, 1, 2, 3 weak pairs; overall):  158.1     0.0     0.0     0.0  (   163)
Number of AuxFcns   (0, 1, 2, 3 weak pairs; overall):  248.6     0.0     0.0     0.0  (   574)
Number of TNOs      (0, 1, 2, 3 weak pairs         ):   67.0     0.0     0.0     0.0
Aver. Number of NTNO, Atoms, PAOs, AuxFcns / Triples:   1750    67.0    19.1   158.1   248.6

Triples Correction (T)                     ...     -0.033658235
Final correlation energy                   ...     -1.142831364
E(CCSD)                                    ...   -290.351593312
E(CCSD(T))                                 ...   -290.385251547


Maximum memory used throughout the entire calculation: 6593.3 MB


------------------------------------------------------------------------------- 
                                     TIMINGS                                   
------------------------------------------------------------------------------- 


Total execution time                   ...      167.767 sec

Localization of occupied MO's          ...        0.483 sec (  0.3%)
Fock Matrix Formation                  ...        1.797 sec (  1.1%)
Global overlap, Fock, MKN matrices     ...        0.199 sec (  0.1%)
Differential overlap integrals         ...        0.164 sec (  0.1%)
Organizing maps                        ...        0.046 sec (  0.0%)
RI 3-index integral generations        ...        2.237 sec (  1.3%)
RI-PNO integral transformation         ...       49.397 sec ( 29.4%)
Initial Guess                          ...        7.372 sec (  4.4%)
DIIS Solver                            ...        0.711 sec (  0.4%)
State Vector Update                    ...        0.016 sec (  0.0%)
Sigma-vector construction              ...       45.317 sec ( 27.0%)
  <D|H|D>(0-ext)                       ...        3.072 sec (  6.8% of sigma)
  <D|H|D>(2-ext Fock)                  ...        0.016 sec (  0.0% of sigma)
  <D|H|D>(2-ext)                       ...        6.858 sec ( 15.1% of sigma)
  <D|H|D>(4-ext)                       ...        3.167 sec (  7.0% of sigma)
  <D|H|D>(4-ext-corr)                  ...       17.732 sec ( 39.1% of sigma)
  CCSD doubles correction              ...        0.258 sec (  0.6% of sigma)
  <S|H|S>                              ...        0.401 sec (  0.9% of sigma)
  <S|H|D>(1-ext)                       ...        0.375 sec (  0.8% of sigma)
  <D|H|S>(1-ext)                       ...        0.014 sec (  0.0% of sigma)
  <S|H|D>(3-ext)                       ...        0.209 sec (  0.5% of sigma)
  Fock-dressing                        ...        8.297 sec ( 18.3% of sigma)
  Singles amplitudes                   ...        0.276 sec (  0.6% of sigma)
  (ik|jl)-dressing                     ...        2.327 sec (  5.1% of sigma)
  (ij|ab),(ia|jb)-dressing             ...        2.213 sec (  4.9% of sigma)
  Pair energies                        ...        0.006 sec (  0.0% of sigma)
Total Time for computing (T)           ...       60.168 sec ( 35.9% of ALL)


-------------------------   --------------------
FINAL SINGLE POINT ENERGY      -290.385251546664
-------------------------   --------------------


                            ***************************************
                            *     ORCA property calculations      *
                            ***************************************

                                    ---------------------
                                    Active property flags
                                    ---------------------
   (+) Dipole Moment


------------------------------------------------------------------------------
                       ORCA ELECTRIC PROPERTIES CALCULATION
------------------------------------------------------------------------------

Dipole Moment Calculation                       ... on
Quadrupole Moment Calculation                   ... off
Polarizability Calculation                      ... off
GBWName                                         ... 4_methylpiperidine_ax.gbw
Electron density file                           ... 4_methylpiperidine_ax.scfp.tmp
The origin for moment calculation is the CENTER OF MASS  = (-0.050250, -0.000000  0.027981)

-------------
DIPOLE MOMENT
-------------
                                X             Y             Z
Electronic contribution:     -2.78827      -0.00003       1.24682
Nuclear contribution   :      2.81410       0.00003      -1.56680
                        -----------------------------------------
Total Dipole Moment    :      0.02583       0.00000      -0.31998
                        -----------------------------------------
Magnitude (a.u.)       :      0.32102
Magnitude (Debye)      :      0.81598



--------------------
Rotational spectrum 
--------------------
 
Rotational constants in cm-1:     0.121689     0.083849     0.063949 
Rotational constants in MHz :  3648.148585  2513.728870  1917.142957 

 Dipole components along the rotational axes: 
x,y,z [a.u.] :    -0.025289     0.000001    -0.320026 
x,y,z [Debye]:    -0.064280     0.000001    -0.813440 

 

Timings for individual modules:

Sum of individual times         ...      174.413 sec (=   2.907 min)
GTO integral calculation        ...        0.667 sec (=   0.011 min)   0.4 %
SCF iterations                  ...        5.730 sec (=   0.096 min)   3.3 %
MDCI module                     ...      168.015 sec (=   2.800 min)  96.3 %
                             ****ORCA TERMINATED NORMALLY****
TOTAL RUN TIME: 0 days 0 hours 2 minutes 54 seconds 709 msec
4_methylpiperidine_ax.gbw -> /home1/pantazis/klk/VDZ/Nitrogen_compounds/4_methylpiperidine_ax.gbw
4_methylpiperidine_ax.ges -> /home1/pantazis/klk/VDZ/Nitrogen_compounds/4_methylpiperidine_ax.ges
4_methylpiperidine_ax.job -> /home1/pantazis/klk/VDZ/Nitrogen_compounds/4_methylpiperidine_ax.job
4_methylpiperidine_ax.loc -> /home1/pantazis/klk/VDZ/Nitrogen_compounds/4_methylpiperidine_ax.loc
4_methylpiperidine_ax.nodes -> /home1/pantazis/klk/VDZ/Nitrogen_compounds/4_methylpiperidine_ax.nodes
4_methylpiperidine_ax.prop -> /home1/pantazis/klk/VDZ/Nitrogen_compounds/4_methylpiperidine_ax.prop
4_methylpiperidine_ax_property.txt -> /home1/pantazis/klk/VDZ/Nitrogen_compounds/4_methylpiperidine_ax_property.txt
4_methylpiperidine_ax.xyz -> /home1/pantazis/klk/VDZ/Nitrogen_compounds/4_methylpiperidine_ax.xyz
cp: cannot stat 4_methylpiperidine_ax.asa.inp: No such file or directory
