! Job execution by suborca V 6.07 on ZEUS !
Job started from zeus1, running /scratch/pantazis/bicyclooctyl_CMe2Cl__NWuyek/orca/orca copied from /opt/orca on zeussn129 in /scratch/pantazis/bicyclooctyl_CMe2Cl__NWuyek
Job execution start: Sat Jun 29 10:49:13 CEST 2019
Shared library path: /scratch/pantazis/bicyclooctyl_CMe2Cl__NWuyek/orca:/opt/openmpi_1.10.2/lib:/opt/intel/mkl/lib/intel64:/opt/intel/lib/intel64:
PBS Job ID is: 158721.icqc
izeussn129
izeussn129
izeussn129
izeussn129

                                 *****************
                                 * O   R   C   A *
                                 *****************

           --- An Ab Initio, DFT and Semiempirical electronic structure package ---

                  #######################################################
                  #                        -***-                        #
                  #          Department of theory and spectroscopy      #
                  #               Directorship: Frank Neese             #
                  #        Max Planck Institute fuer Kohlenforschung    #
                  #                Kaiser Wilhelm Platz 1               #
                  #                 D-45470 Muelheim/Ruhr               #
                  #                      Germany                        #
                  #                                                     #
                  #                  All rights reserved                #
                  #                        -***-                        #
                  #######################################################


                         Program Version 4.1.x  -  STABLE  -
                                (SVN: $Rev: 14094$)
                ($Date: 2019-06-14 15:01:15 +0200 (Fri, 14 Jun 2019) $)

                         (BUILD: $Sun Jun 23 06:18:31 CEST 2019$)


 With contributions from (in alphabetic order):
   Daniel Aravena         : Magnetic Properties
   Michael Atanasov       : Ab Initio Ligand Field Theory
   Alexander A. Auer      : GIAO ZORA
   Ute Becker             : Parallelization
   Giovanni Bistoni       : ED, Open-shell LED
   Martin Brehm           : Molecular dynamics
   Dmytro Bykov           : SCF Hessian
   Vijay G. Chilkuri      : MRCI spin determinant printing
   Dipayan Datta          : RHF DLPNO-CCSD density
   Achintya Kumar Dutta   : EOM-CC, STEOM-CC
   Dmitry Ganyushin       : Spin-Orbit,Spin-Spin,Magnetic field MRCI
   Miquel Garcia          : C-PCM Hessian
   Yang Guo               : DLPNO-NEVPT2, CIM, IAO-localization
   Andreas Hansen         : Spin unrestricted coupled pair/coupled cluster methods
   Benjamin Helmich-Paris : CASSCF linear response (MC-RPA)
   Lee Huntington         : MR-EOM, pCC
   Robert Izsak           : Overlap fitted RIJCOSX, COSX-SCS-MP3, EOM
   Christian Kollmar      : KDIIS, OOCD, Brueckner-CCSD(T), CCSD density
   Simone Kossmann        : Meta GGA functionals, TD-DFT gradient, OOMP2, MP2 Hessian
   Martin Krupicka        : AUTO-CI
   Lucas Lang             : DCDCAS
   Dagmar Lenk            : GEPOL surface, SMD
   Dimitrios Liakos       : Extrapolation schemes; parallel MDCI
   Dimitrios Manganas     : ROCIS; embedding schemes
   Dimitrios Pantazis     : SARC Basis sets
   Taras Petrenko         : DFT Hessian,TD-DFT gradient, ASA, ECA, R-Raman, ABS, FL, XAS/XES, NRVS
   Peter Pinski           : DLPNO-MP2, DLPNO-MP2 Gradient
   Christoph Reimann      : Effective Core Potentials
   Marius Retegan         : Local ZFS, SOC
   Christoph Riplinger    : Optimizer, TS searches, QM/MM, DLPNO-CCSD(T), (RO)-DLPNO pert. Triples
   Tobias Risthaus        : Range-separated hybrids, TD-DFT gradient, RPA, STAB
   Michael Roemelt        : Restricted open shell CIS
   Masaaki Saitow         : Open-shell DLPNO
   Barbara Sandhoefer     : DKH picture change effects
   Avijit Sen             : IP-ROCIS
   Kantharuban Sivalingam : CASSCF convergence, NEVPT2, FIC-MRCI
   Bernardo de Souza      : ESD, SOC TD-DFT
   Georgi Stoychev        : AutoAux, RI-MP2 NMR
   Willem Van den Heuvel  : Paramagnetic NMR
   Boris Wezisla          : Elementary symmetry handling
   Frank Wennmohs         : Technical directorship


 We gratefully acknowledge several colleagues who have allowed us to
 interface, adapt or use parts of their codes:
   Stefan Grimme, W. Hujo, H. Kruse,             : VdW corrections, initial TS optimization,
                  C. Bannwarth                     DFT functionals, gCP, sTDA/sTD-DF
   Ed Valeev                                     : LibInt (2-el integral package), F12 methods
   Garnet Chan, S. Sharma, J. Yang, R. Olivares  : DMRG
   Ulf Ekstrom                                   : XCFun DFT Library
   Mihaly Kallay                                 : mrcc  (arbitrary order and MRCC methods)
   Andreas Klamt, Michael Diedenhofen            : otool_cosmo (COSMO solvation model)
   Jiri Pittner, Ondrej Demel                    : Mk-CCSD
   Frank Weinhold                                : gennbo (NPA and NBO analysis)
   Christopher J. Cramer and Donald G. Truhlar   : smd solvation model
   Lars Goerigk                                  : TD-DFT with DH, B97 family of functionals
   V. Asgeirsson, H. Jonsson                     : NEB implementation
   FAccTs GmbH                                   : IRC, NEB, NEB-TS, Multilevel


 Your calculation uses the libint2 library for the computation of 2-el integrals
 For citations please refer to: http://libint.valeyev.net

 This ORCA versions uses:
   CBLAS   interface :  Fast vector & matrix operations
   LAPACKE interface :  Fast linear algebra routines
   SCALAPACK package :  Parallel linear algebra routines




***************************************
The coordinates will be read from file: bicyclooctyl_CMe2Cl.xyz
***************************************


----- Orbital basis set information -----
Your calculation utilizes the basis: cc-pVDZ 
       H, B-Ne : Obtained from the ccRepo (grant-hill.group.shef.ac.uk/ccrepo) Feb. 2017
                 T. H. Dunning, Jr., J. Chem. Phys. 90, 1007 (1989)
            He : Obtained from the ccRepo (grant-hill.group.shef.ac.uk/ccrepo) Feb. 2017
                 D. E. Woon, T. H. Dunning, Jr., J. Chem. Phys. 100, 2975 (1994)
  Li-Be, Na-Mg : Obtained from the ccRepo (grant-hill.group.shef.ac.uk/ccrepo) Feb. 2017
                 B. P. Prascher, D. E. Woon, K. A. Peterson, T. H. Dunning, Jr., A. K. Wilson, Theor. Chem. Acc. 128, 69 (2011)
         Al-Ar : Obtained from the ccRepo (grant-hill.group.shef.ac.uk/ccrepo) Feb. 2017
                 D. E. Woon, T. H. Dunning, Jr., J. Chem. Phys. 98, 1358 (1993)
            Ca : Obtained from the Peterson Research Group Website (tyr0.chem.wsu.edu/~kipeters) Feb. 2017
                 J. Koput, K. A. Peterson, J. Phys. Chem. 106, 9595 (2002)
         Sc-Zn : Obtained from the ccRepo (grant-hill.group.shef.ac.uk/ccrepo) Feb. 2017
                 N. B. Balabanov, K. A. Peterson, J. Chem. Phys. 123, 064107 (2005)
                 N. B. Balabanov, K. A. Peterson, J. Chem. Phys. 125, 074110 (2006)
         Ga-Kr : Obtained from the ccRepo (grant-hill.group.shef.ac.uk/ccrepo) Feb. 2017
                 A. K. Wilson, D. E. Woon, K. A. Peterson, T. H. Dunning, Jr., J. Chem. Phys. 110, 7667 (1999)

----- AuxC basis set information -----
Your calculation utilizes the auxiliary basis: cc-pVDZ/C 
  H-He, B, Ne, Al-Ar, Ga-Br : Obtained from the EMSL Basis Set Exchange (bse.pnl.gov) Feb. 2017
                              F. Weigend, A. Kohn, C. Hattig, J. Chem. Phys. 116, 3175 (2002)
               Li-Be, Na-Mg : Obtained from the EMSL Basis Set Exchange (bse.pnl.gov) Feb. 2017
                              C. Haettig, Phys. Chem. Chem. Phys. 7, 59 (2005)
                        C-F : Obtained from the EMSL Basis Set Exchange (bse.pnl.gov) Feb. 2017
                              C. Haettig, Phys. Chem. Chem. Phys. 7, 59 (2005)
                              F. Weigend, A. Kohn, C. Hattig, J. Chem. Phys. 116, 3175 (2002)
                         Kr : Obtained from the TURBOMOLE 7.0 basis set library
                              F. Weigend, A. Kohn, C. Hattig, J. Chem. Phys. 116, 3175 (2002)
                              S function revised in Sep. 2009

----- AuxJK basis set information -----
Your calculation utilizes the auxiliary basis: cc-pVTZ/JK 
  H, B-F, Al-Cl, Ga-Br : Obtained from the TURBOMOLE 7.0 basis set library

================================================================================
                                        WARNINGS
                       Please study these warnings very carefully!
================================================================================


WARNING: MDCI localization with Augmented Hessian Foster-Boys
  ===> : Switching off randomization!

WARNING: Post HF methods need fully converged wavefunctions
  ===> : Setting SCFConvForced true
         You can overwrite this default with %scf ConvForced false 


INFO   : the flag for use of LIBINT has been found!

================================================================================
                                       INPUT FILE
================================================================================
NAME = bicyclooctyl_CMe2Cl.inp
|  1> ! RHF DLPNO-CCSD(T) cc-pVDZ RIJK cc-pVTZ/JK cc-pVDZ/C
|  2> ! KDIIS SOSCF TightSCF TightPNO
|  3> 
|  4> %pal nprocs 4 end
|  5> 
|  6> %maxcore 8000
|  7> 
|  8> %scf maxiter 300
|  9>      shift shift 0.2 erroff 0.1 end
| 10> end
| 11> 
| 12> * xyzfile 0 1 bicyclooctyl_CMe2Cl.xyz 
| 13> 
| 14> 
| 15>                          ****END OF INPUT****
================================================================================

                       ****************************
                       * Single Point Calculation *
                       ****************************

---------------------------------
CARTESIAN COORDINATES (ANGSTROEM)
---------------------------------
  C     -2.385190   -1.202380    0.000000
  C     -1.696300    0.189120    0.000000
  C     -1.336450   -2.316580    0.000000
  C     -0.151550    0.039730    0.000000
  C     -0.456650   -2.174530    1.242440
  C      0.228890   -0.783490    1.255040
  C     -0.456650   -2.174530   -1.242440
  C      0.228890   -0.783490   -1.255040
  C      0.528820    1.454560    0.000000
  C      0.228890    2.295600    1.244910
  Cl     2.369830    1.239160    0.000000
  C      0.228890    2.295600   -1.244910
  H     -3.027490   -1.302940   -0.870650
  H     -3.027490   -1.302940    0.870650
  H     -2.017090    0.750430    0.870020
  H     -2.017090    0.750430   -0.870020
  H     -1.827730   -3.286420    0.000000
  H      0.290210   -2.963550    1.253530
  H     -1.058360   -2.306520    2.137790
  H      1.304000   -0.896670    1.305450
  H     -0.070050   -0.247060    2.147850
  H     -1.058360   -2.306520   -2.137790
  H      0.290210   -2.963550   -1.253530
  H     -0.070050   -0.247060   -2.147850
  H      1.304000   -0.896670   -1.305450
  H      0.766920    3.233580    1.185700
  H     -0.829990    2.522560    1.300000
  H      0.527460    1.801730    2.158280
  H      0.766920    3.233580   -1.185700
  H      0.527460    1.801730   -2.158280
  H     -0.829990    2.522560   -1.300000

----------------------------
CARTESIAN COORDINATES (A.U.)
----------------------------
  NO LB      ZA    FRAG     MASS         X           Y           Z
   0 C     6.0000    0    12.011   -4.507356   -2.272169    0.000000
   1 C     6.0000    0    12.011   -3.205542    0.357385    0.000000
   2 C     6.0000    0    12.011   -2.525524   -4.377702    0.000000
   3 C     6.0000    0    12.011   -0.286388    0.075079    0.000000
   4 C     6.0000    0    12.011   -0.862943   -4.109266    2.347871
   5 C     6.0000    0    12.011    0.432539   -1.480582    2.371682
   6 C     6.0000    0    12.011   -0.862943   -4.109266   -2.347871
   7 C     6.0000    0    12.011    0.432539   -1.480582   -2.371682
   8 C     6.0000    0    12.011    0.999325    2.748720    0.000000
   9 C     6.0000    0    12.011    0.432539    4.338055    2.352539
  10 Cl   17.0000    0    35.453    4.478330    2.341673    0.000000
  11 C     6.0000    0    12.011    0.432539    4.338055   -2.352539
  12 H     1.0000    0     1.008   -5.721127   -2.462200   -1.645290
  13 H     1.0000    0     1.008   -5.721127   -2.462200    1.645290
  14 H     1.0000    0     1.008   -3.811748    1.418107    1.644100
  15 H     1.0000    0     1.008   -3.811748    1.418107   -1.644100
  16 H     1.0000    0     1.008   -3.453909   -6.210434    0.000000
  17 H     1.0000    0     1.008    0.548417   -5.600298    2.368828
  18 H     1.0000    0     1.008   -2.000011   -4.358691    4.039838
  19 H     1.0000    0     1.008    2.464203   -1.694461    2.466943
  20 H     1.0000    0     1.008   -0.132375   -0.466876    4.058848
  21 H     1.0000    0     1.008   -2.000011   -4.358691   -4.039838
  22 H     1.0000    0     1.008    0.548417   -5.600298   -2.368828
  23 H     1.0000    0     1.008   -0.132375   -0.466876   -4.058848
  24 H     1.0000    0     1.008    2.464203   -1.694461   -2.466943
  25 H     1.0000    0     1.008    1.449269    6.110581    2.240648
  26 H     1.0000    0     1.008   -1.568454    4.766948    2.456644
  27 H     1.0000    0     1.008    0.996755    3.404776    4.078558
  28 H     1.0000    0     1.008    1.449269    6.110581   -2.240648
  29 H     1.0000    0     1.008    0.996755    3.404776   -4.078558
  30 H     1.0000    0     1.008   -1.568454    4.766948   -2.456644

--------------------------------
INTERNAL COORDINATES (ANGSTROEM)
--------------------------------
 C      0   0   0     0.000000000000     0.00000000     0.00000000
 C      1   0   0     1.552688533512     0.00000000     0.00000000
 C      1   2   0     1.530129807435   110.39485667     0.00000000
 C      2   1   3     1.551956808226   110.81484009     0.00000000
 C      3   1   2     1.529013863933   109.07029520    59.28976490
 C      4   2   1     1.548402778220   107.20157354   301.95205137
 C      3   1   2     1.529013863933   109.07029520   300.71023510
 C      4   2   1     1.548402778220   107.20157354    58.04794863
 C      4   2   1     1.569919509338   110.15839160   180.00000121
 C      9   4   2     1.532027152044   114.19830359    62.98260594
 Cl     9   4   2     1.853568175196   109.00886331   180.00000085
 C      9   4   2     1.532027152044   114.19830359   297.01739406
 H      1   2   3     1.086596993416   110.19401399   238.62118846
 H      1   2   3     1.086596993416   110.19401399   121.37881154
 H      2   1   3     1.083932627334   109.43766422   238.33852424
 H      2   1   3     1.083932627334   109.43766422   121.66147576
 H      3   1   2     1.087173244704   109.86864246   180.00000085
 H      5   3   1     1.086496851399   109.65531282   179.82993419
 H      5   3   1     1.086797086259   109.85112200    63.11523790
 H      6   4   2     1.082225666208   109.72091195   181.06306438
 H      6   4   2     1.083619843211   109.68470324   297.97077127
 H      7   3   1     1.086797086259   109.85112200   296.88476210
 H      7   3   1     1.086496851399   109.65531282   180.17006581
 H      8   4   2     1.083619843211   109.68470324    62.02922873
 H      8   4   2     1.082225666208   109.72091195   178.93693562
 H     10   9   4     1.082953639543   109.49899179   177.58991970
 H     10   9   4     1.084330486568   110.32635704   296.14963130
 H     10   9   4     1.080414910440   112.45211578    57.83817716
 H     12   9   4     1.082953639543   109.49899179   182.41008030
 H     12   9   4     1.080414910440   112.45211578   302.16182284
 H     12   9   4     1.084330486568   110.32635704    63.85036870

---------------------------
INTERNAL COORDINATES (A.U.)
---------------------------
 C      0   0   0     0.000000000000     0.00000000     0.00000000
 C      1   0   0     2.934156099618     0.00000000     0.00000000
 C      1   2   0     2.891526285401   110.39485667     0.00000000
 C      2   1   3     2.932773339222   110.81484009     0.00000000
 C      3   1   2     2.889417457803   109.07029520    59.28976490
 C      4   2   1     2.926057195839   107.20157354   301.95205137
 C      3   1   2     2.889417457803   109.07029520   300.71023510
 C      4   2   1     2.926057195839   107.20157354    58.04794863
 C      4   2   1     2.966717924949   110.15839160   180.00000121
 C      9   4   2     2.895111747094   114.19830359    62.98260594
 Cl     9   4   2     3.502736221673   109.00886331   180.00000085
 C      9   4   2     2.895111747094   114.19830359   297.01739406
 H      1   2   3     2.053370735498   110.19401399   238.62118846
 H      1   2   3     2.053370735498   110.19401399   121.37881154
 H      2   1   3     2.048335813284   109.43766422   238.33852424
 H      2   1   3     2.048335813284   109.43766422   121.66147576
 H      3   1   2     2.054459692617   109.86864246   180.00000085
 H      5   3   1     2.053181494512   109.65531282   179.82993419
 H      5   3   1     2.053748856172   109.85112200    63.11523790
 H      6   4   2     2.045110124234   109.72091195   181.06306438
 H      6   4   2     2.047744736951   109.68470324   297.97077127
 H      7   3   1     2.053748856172   109.85112200   296.88476210
 H      7   3   1     2.053181494512   109.65531282   180.17006581
 H      8   4   2     2.047744736951   109.68470324    62.02922873
 H      8   4   2     2.045110124234   109.72091195   178.93693562
 H     10   9   4     2.046485794470   109.49899179   177.58991970
 H     10   9   4     2.049087658274   110.32635704   296.14963130
 H     10   9   4     2.041688291736   112.45211578    57.83817716
 H     12   9   4     2.046485794470   109.49899179   182.41008030
 H     12   9   4     2.041688291736   112.45211578   302.16182284
 H     12   9   4     2.049087658274   110.32635704    63.85036870

---------------------
BASIS SET INFORMATION
---------------------
There are 3 groups of distinct atoms

 Group   1 Type C   : 17s4p1d contracted to 3s2p1d pattern {881/31/1}
 Group   2 Type Cl  : 34s15p1d contracted to 4s3p1d pattern {1111111/771/1}
 Group   3 Type H   : 4s1p contracted to 2s1p pattern {31/1}

Atom   0C    basis set group =>   1
Atom   1C    basis set group =>   1
Atom   2C    basis set group =>   1
Atom   3C    basis set group =>   1
Atom   4C    basis set group =>   1
Atom   5C    basis set group =>   1
Atom   6C    basis set group =>   1
Atom   7C    basis set group =>   1
Atom   8C    basis set group =>   1
Atom   9C    basis set group =>   1
Atom  10Cl   basis set group =>   2
Atom  11C    basis set group =>   1
Atom  12H    basis set group =>   3
Atom  13H    basis set group =>   3
Atom  14H    basis set group =>   3
Atom  15H    basis set group =>   3
Atom  16H    basis set group =>   3
Atom  17H    basis set group =>   3
Atom  18H    basis set group =>   3
Atom  19H    basis set group =>   3
Atom  20H    basis set group =>   3
Atom  21H    basis set group =>   3
Atom  22H    basis set group =>   3
Atom  23H    basis set group =>   3
Atom  24H    basis set group =>   3
Atom  25H    basis set group =>   3
Atom  26H    basis set group =>   3
Atom  27H    basis set group =>   3
Atom  28H    basis set group =>   3
Atom  29H    basis set group =>   3
Atom  30H    basis set group =>   3
-------------------------------
AUXILIARY BASIS SET INFORMATION
-------------------------------
There are 3 groups of distinct atoms

 Group   1 Type C   : 7s5p4d2f contracted to 7s5p4d2f pattern {1111111/11111/1111/11}
 Group   2 Type Cl  : 9s7p5d3f contracted to 9s7p5d3f pattern {111111111/1111111/11111/111}
 Group   3 Type H   : 3s2p1d contracted to 3s2p1d pattern {111/11/1}

Atom   0C    basis set group =>   1
Atom   1C    basis set group =>   1
Atom   2C    basis set group =>   1
Atom   3C    basis set group =>   1
Atom   4C    basis set group =>   1
Atom   5C    basis set group =>   1
Atom   6C    basis set group =>   1
Atom   7C    basis set group =>   1
Atom   8C    basis set group =>   1
Atom   9C    basis set group =>   1
Atom  10Cl   basis set group =>   2
Atom  11C    basis set group =>   1
Atom  12H    basis set group =>   3
Atom  13H    basis set group =>   3
Atom  14H    basis set group =>   3
Atom  15H    basis set group =>   3
Atom  16H    basis set group =>   3
Atom  17H    basis set group =>   3
Atom  18H    basis set group =>   3
Atom  19H    basis set group =>   3
Atom  20H    basis set group =>   3
Atom  21H    basis set group =>   3
Atom  22H    basis set group =>   3
Atom  23H    basis set group =>   3
Atom  24H    basis set group =>   3
Atom  25H    basis set group =>   3
Atom  26H    basis set group =>   3
Atom  27H    basis set group =>   3
Atom  28H    basis set group =>   3
Atom  29H    basis set group =>   3
Atom  30H    basis set group =>   3
-------------------------------
AUXILIARY BASIS SET INFORMATION
-------------------------------
There are 3 groups of distinct atoms

 Group   1 Type C   : 10s7p5d2f1g contracted to 10s7p5d2f1g pattern {1111111111/1111111/11111/11/1}
 Group   2 Type Cl  : 13s11p9d3f1g contracted to 13s11p9d3f1g pattern {1111111111111/11111111111/111111111/111/1}
 Group   3 Type H   : 4s3p2d1f contracted to 4s3p2d1f pattern {1111/111/11/1}

Atom   0C    basis set group =>   1
Atom   1C    basis set group =>   1
Atom   2C    basis set group =>   1
Atom   3C    basis set group =>   1
Atom   4C    basis set group =>   1
Atom   5C    basis set group =>   1
Atom   6C    basis set group =>   1
Atom   7C    basis set group =>   1
Atom   8C    basis set group =>   1
Atom   9C    basis set group =>   1
Atom  10Cl   basis set group =>   2
Atom  11C    basis set group =>   1
Atom  12H    basis set group =>   3
Atom  13H    basis set group =>   3
Atom  14H    basis set group =>   3
Atom  15H    basis set group =>   3
Atom  16H    basis set group =>   3
Atom  17H    basis set group =>   3
Atom  18H    basis set group =>   3
Atom  19H    basis set group =>   3
Atom  20H    basis set group =>   3
Atom  21H    basis set group =>   3
Atom  22H    basis set group =>   3
Atom  23H    basis set group =>   3
Atom  24H    basis set group =>   3
Atom  25H    basis set group =>   3
Atom  26H    basis set group =>   3
Atom  27H    basis set group =>   3
Atom  28H    basis set group =>   3
Atom  29H    basis set group =>   3
Atom  30H    basis set group =>   3

Checking for AutoStart:
The File: bicyclooctyl_CMe2Cl.gbw exists
Trying to determine its content:
     ... Fine, the file contains calculation information
     ... Fine, the calculation information was read
     ... Fine, the file contains a basis set
     ... Fine, the basis set was read
     ... Fine, the file contains a geometry
     ... Fine, the geometry was read
     ... Fine, the file contains a set of orbitals
     ... Fine, the orbitals can be read
     => possible old guess file was deleted
     => GBW file was renamed to GES file
     => GES file is set as startup file
     => Guess is set to MORead
     ... now leaving AutoStart



           ************************************************************
           *        Program running with 4 parallel MPI-processes     *
           *              working on a common directory               *
           ************************************************************
------------------------------------------------------------------------------
                           ORCA GTO INTEGRAL CALCULATION
                           -- RI-GTO INTEGRALS CHOSEN --
------------------------------------------------------------------------------

                         BASIS SET STATISTICS AND STARTUP INFO

Gaussian basis set:
 # of primitive gaussian shells          ...  387
 # of primitive gaussian functions       ...  591
 # of contracted shells                  ...  131
 # of contracted basis functions         ...  267
 Highest angular momentum                ...    2
 Maximum contraction depth               ...   11
Auxiliary gaussian basis set:
 # of primitive gaussian shells          ...  502
 # of primitive gaussian functions       ... 1560
 # of contracted shells                  ...  502
 # of contracted aux-basis functions     ... 1560
 Highest angular momentum                ...    4
 Maximum contraction depth               ...    1
Ratio of auxiliary to basis functions    ...  5.84
Integral package used                  ... LIBINT
 One Electron integrals                  ... done
 Ordering auxiliary basis shells         ... done
 Integral threshhold             Thresh  ...  2.500e-11
 Primitive cut-off               TCut    ...  2.500e-12
 Pre-screening matrix                    ... done
 Shell pair data                         ... 
 Ordering of the shell pairs             ... done (   0.002 sec) 8280 of 8646 pairs
 Determination of significant pairs      ... done (   0.000 sec)
 Creation of shell pair data             ... done (   0.004 sec)
 Storage of shell pair data              ... done (   0.007 sec)
 Shell pair data done in (   0.012 sec)
 Computing two index integrals           ... done
 Cholesky decomposition of the V-matrix  ... done


Timings:
 Total evaluation time                   ...  50.843 sec (  0.847 min)
 One electron matrix time                ...  49.968 sec (  0.833 min) = 98.3%
 Schwartz matrix evaluation time         ...   0.355 sec (  0.006 min) =  0.7%
 Two index repulsion integral time       ...   0.190 sec (  0.003 min) =  0.4%
 Cholesky decomposition of V             ...   0.293 sec (  0.005 min) =  0.6%
 Three index repulsion integral time     ...   0.000 sec (  0.000 min) =  0.0%



           ************************************************************
           *        Program running with 4 parallel MPI-processes     *
           *              working on a common directory               *
           ************************************************************
-------------------------------------------------------------------------------
                                 ORCA SCF
-------------------------------------------------------------------------------

------------
SCF SETTINGS
------------
Hamiltonian:
 Ab initio Hamiltonian  Method          .... Hartree-Fock(GTOs)
 RI-approximation to the Coulomb term is turned on
   Number of auxiliary basis functions  .... 1560
   RI-JK (J+K treated both via RI)      .... on


General Settings:
 Integral files         IntName         .... bicyclooctyl_CMe2Cl
 Hartree-Fock type      HFTyp           .... RHF
 Total Charge           Charge          ....    0
 Multiplicity           Mult            ....    1
 Number of Electrons    NEL             ....  102
 Basis Dimension        Dim             ....  267
 Nuclear Repulsion      ENuc            ....    903.6994956997 Eh

Convergence Acceleration:
 DIIS                   CNVDIIS         .... off
 Newton-Raphson         CNVNR           .... off
 SOSCF                  CNVSOSCF        .... on
   Start iteration      SOSCFMaxIt      ....   150
   Startup grad/error   SOSCFStart      ....  0.003300
 Level Shifting         CNVShift        .... on
   Level shift para.    LevelShift      ....    0.2000
   Turn off err/grad.   ShiftErr        ....    0.1000
 Zerner damping         CNVZerner       .... off
 Static damping         CNVDamp         .... off
 Fernandez-Rico         CNVRico         .... off

SCF Procedure:
 Maximum # iterations   MaxIter         ....   300
 SCF integral mode      SCFMode         .... Direct
   Integral package                     .... LIBINT
 Reset frequency        DirectResetFreq ....    20
 Integral Threshold     Thresh          ....  2.500e-11 Eh
 Primitive CutOff       TCut            ....  2.500e-12 Eh

Convergence Tolerance:
 Convergence Check Mode ConvCheckMode   .... Total+1el-Energy
 Convergence forced     ConvForced      .... 1
 Energy Change          TolE            ....  1.000e-08 Eh
 1-El. energy change                    ....  1.000e-05 Eh
 Orbital Gradient       TolG            ....  1.000e-05
 Orbital Rotation angle TolX            ....  1.000e-05


Diagonalization of the overlap matrix:
Smallest eigenvalue                        ... 1.356e-03
Time for diagonalization                   ...    0.015 sec
Threshold for overlap eigenvalues          ... 1.000e-08
Number of eigenvalues below threshold      ... 0
Time for construction of square roots      ...    0.029 sec
Total time needed                          ...    0.045 sec

---------------------
INITIAL GUESS: MOREAD
---------------------
Guess MOs are being read from file: bicyclooctyl_CMe2Cl.ges
Input Geometry matches current geometry (good)
Atom 0: N(Shells)= 6 and 10 - projection required
Input basis set needs projection
NBasis(read)= 630
NBasis(calc)= 267
Basis set overlap was calculated
Using GuessMode=FMatrix for the initial guess
C*T matrix was formed
Effective Fockian was calculated
Effective Fockian was diagonalized
Initial density was built
                      ------------------
                      INITIAL GUESS DONE (   0.2 sec)
                      ------------------
--------------
SCF ITERATIONS
--------------
ITER       Energy         Delta-E        Max-DP      RMS-DP      [F,P]   Gradient Norm
                             ****Turning on KDIIS(Cayley)****
  0   -887.1495215357   0.000000000000 0.00616187  0.00006913  0.0042458   0.005472068
  1   -887.1497423157  -0.000220780020 0.01116885  0.00012737  0.0038350   0.004964647
                      *** Initiating the SOSCF procedure ***
                           *** Shutting down KDIIS ***
                      *** Re-Reading the Fockian *** 
                      *** Removing any level shift *** 
ITER      Energy       Delta-E        Grad      Rot      Max-DP    RMS-DP
  2   -887.15010968  -0.0003673681  0.003081  0.003081  0.017160  0.000202
  3   -887.15054950  -0.0004398168  0.001850  0.000629  0.024111  0.000289
  4   -887.15079111  -0.0002416072  0.000277  0.000267  0.001583  0.000033
  5   -887.15079866  -0.0000075483  0.000145  0.000106  0.001192  0.000014
  6   -887.15080020  -0.0000015400  0.000025  0.000036  0.000138  0.000003
  7   -887.15080024  -0.0000000450  0.000010  0.000019  0.000036  0.000001
  8   -887.15080025  -0.0000000043  0.000004  0.000009  0.000016  0.000000
                  ***Gradient check signals convergence***
              ***Rediagonalizing the Fockian in SOSCF/NRSCF***

               *****************************************************
               *                     SUCCESS                       *
               *           SCF CONVERGED AFTER   9 CYCLES          *
               *****************************************************


----------------
TOTAL SCF ENERGY
----------------

Total Energy       :         -887.15080025 Eh          -24140.60056 eV

Components:
Nuclear Repulsion  :          903.69949570 Eh           24590.91346 eV
Electronic Energy  :        -1790.85029595 Eh          -48731.51401 eV
One Electron Energy:        -3009.66973446 Eh          -81897.27705 eV
Two Electron Energy:         1218.81943851 Eh           33165.76304 eV

Virial components:
Potential Energy   :        -1774.19401010 Eh          -48278.27343 eV
Kinetic Energy     :          887.04320985 Eh           24137.67288 eV
Virial Ratio       :            2.00012129


---------------
SCF CONVERGENCE
---------------

  Last Energy change         ...   -5.0636e-10  Tolerance :   1.0000e-08
  Last MAX-Density change    ...    3.8416e-06  Tolerance :   1.0000e-07
  Last RMS-Density change    ...    7.0387e-08  Tolerance :   5.0000e-09
  Last Orbital Gradient      ...    7.7004e-07  Tolerance :   1.0000e-05
  Last Orbital Rotation      ...    1.6822e-06  Tolerance :   1.0000e-05

             **** THE GBW FILE WAS UPDATED (bicyclooctyl_CMe2Cl.gbw) ****
             **** DENSITY FILE WAS UPDATED (bicyclooctyl_CMe2Cl.scfp.tmp) ****
             **** ENERGY FILE WAS UPDATED (bicyclooctyl_CMe2Cl.en.tmp) ****
----------------
ORBITAL ENERGIES
----------------

  NO   OCC          E(Eh)            E(eV) 
   0   2.0000    -104.795113     -2851.6200 
   1   2.0000     -11.305644      -307.6422 
   2   2.0000     -11.245446      -306.0041 
   3   2.0000     -11.228007      -305.5296 
   4   2.0000     -11.227991      -305.5292 
   5   2.0000     -11.225507      -305.4616 
   6   2.0000     -11.221377      -305.3492 
   7   2.0000     -11.220763      -305.3325 
   8   2.0000     -11.217173      -305.2348 
   9   2.0000     -11.217113      -305.2332 
  10   2.0000     -11.216292      -305.2108 
  11   2.0000     -11.216273      -305.2103 
  12   2.0000     -10.522428      -286.3298 
  13   2.0000      -7.989698      -217.4107 
  14   2.0000      -7.986800      -217.3319 
  15   2.0000      -7.986763      -217.3309 
  16   2.0000      -1.170698       -31.8563 
  17   2.0000      -1.124818       -30.6078 
  18   2.0000      -1.030221       -28.0337 
  19   2.0000      -1.006441       -27.3867 
  20   2.0000      -1.003598       -27.3093 
  21   2.0000      -0.995474       -27.0882 
  22   2.0000      -0.948382       -25.8068 
  23   2.0000      -0.840161       -22.8619 
  24   2.0000      -0.835849       -22.7446 
  25   2.0000      -0.833338       -22.6763 
  26   2.0000      -0.752842       -20.4859 
  27   2.0000      -0.682517       -18.5722 
  28   2.0000      -0.659680       -17.9508 
  29   2.0000      -0.651126       -17.7180 
  30   2.0000      -0.648656       -17.6508 
  31   2.0000      -0.611566       -16.6416 
  32   2.0000      -0.593245       -16.1430 
  33   2.0000      -0.588298       -16.0084 
  34   2.0000      -0.567606       -15.4454 
  35   2.0000      -0.557419       -15.1681 
  36   2.0000      -0.543328       -14.7847 
  37   2.0000      -0.526746       -14.3335 
  38   2.0000      -0.519390       -14.1333 
  39   2.0000      -0.518512       -14.1094 
  40   2.0000      -0.505614       -13.7585 
  41   2.0000      -0.503456       -13.6997 
  42   2.0000      -0.493341       -13.4245 
  43   2.0000      -0.483585       -13.1590 
  44   2.0000      -0.468334       -12.7440 
  45   2.0000      -0.459851       -12.5132 
  46   2.0000      -0.429290       -11.6816 
  47   2.0000      -0.418665       -11.3924 
  48   2.0000      -0.411835       -11.2066 
  49   2.0000      -0.404623       -11.0103 
  50   2.0000      -0.404565       -11.0088 
  51   0.0000       0.163622         4.4524 
  52   0.0000       0.190312         5.1786 
  53   0.0000       0.197412         5.3719 
  54   0.0000       0.203241         5.5305 
  55   0.0000       0.214602         5.8396 
  56   0.0000       0.230472         6.2715 
  57   0.0000       0.235752         6.4151 
  58   0.0000       0.237745         6.4694 
  59   0.0000       0.241515         6.5720 
  60   0.0000       0.249281         6.7833 
  61   0.0000       0.260546         7.0898 
  62   0.0000       0.273502         7.4424 
  63   0.0000       0.289293         7.8721 
  64   0.0000       0.294048         8.0014 
  65   0.0000       0.298502         8.1226 
  66   0.0000       0.299175         8.1410 
  67   0.0000       0.313637         8.5345 
  68   0.0000       0.327399         8.9090 
  69   0.0000       0.335099         9.1185 
  70   0.0000       0.340038         9.2529 
  71   0.0000       0.359909         9.7936 
  72   0.0000       0.372579        10.1384 
  73   0.0000       0.378106        10.2888 
  74   0.0000       0.384036        10.4501 
  75   0.0000       0.388548        10.5729 
  76   0.0000       0.401276        10.9193 
  77   0.0000       0.419260        11.4087 
  78   0.0000       0.436462        11.8767 
  79   0.0000       0.445237        12.1155 
  80   0.0000       0.478481        13.0201 
  81   0.0000       0.520647        14.1675 
  82   0.0000       0.523482        14.2447 
  83   0.0000       0.556850        15.1527 
  84   0.0000       0.558047        15.1852 
  85   0.0000       0.568445        15.4682 
  86   0.0000       0.599561        16.3149 
  87   0.0000       0.618325        16.8255 
  88   0.0000       0.625054        17.0086 
  89   0.0000       0.653588        17.7850 
  90   0.0000       0.684179        18.6175 
  91   0.0000       0.712143        19.3784 
  92   0.0000       0.719147        19.5690 
  93   0.0000       0.723159        19.6782 
  94   0.0000       0.727044        19.7839 
  95   0.0000       0.731114        19.8946 
  96   0.0000       0.740167        20.1410 
  97   0.0000       0.761679        20.7263 
  98   0.0000       0.771764        21.0008 
  99   0.0000       0.786721        21.4078 
 100   0.0000       0.798055        21.7162 
 101   0.0000       0.802025        21.8242 
 102   0.0000       0.821719        22.3601 
 103   0.0000       0.827412        22.5150 
 104   0.0000       0.831939        22.6382 
 105   0.0000       0.870731        23.6938 
 106   0.0000       0.873226        23.7617 
 107   0.0000       0.874201        23.7882 
 108   0.0000       0.877032        23.8652 
 109   0.0000       0.880632        23.9632 
 110   0.0000       0.886186        24.1143 
 111   0.0000       0.887578        24.1522 
 112   0.0000       0.888272        24.1711 
 113   0.0000       0.891117        24.2485 
 114   0.0000       0.900086        24.4926 
 115   0.0000       0.904243        24.6057 
 116   0.0000       0.913396        24.8548 
 117   0.0000       0.921996        25.0888 
 118   0.0000       0.930819        25.3289 
 119   0.0000       0.933286        25.3960 
 120   0.0000       0.935992        25.4696 
 121   0.0000       0.936788        25.4913 
 122   0.0000       0.937202        25.5026 
 123   0.0000       0.947674        25.7875 
 124   0.0000       0.960199        26.1283 
 125   0.0000       0.966938        26.3117 
 126   0.0000       0.978062        26.6144 
 127   0.0000       0.978369        26.6228 
 128   0.0000       0.996022        27.1031 
 129   0.0000       1.000426        27.2230 
 130   0.0000       1.006798        27.3964 
 131   0.0000       1.020740        27.7758 
 132   0.0000       1.040932        28.3252 
 133   0.0000       1.050586        28.5879 
 134   0.0000       1.053951        28.6795 
 135   0.0000       1.066182        29.0123 
 136   0.0000       1.078005        29.3340 
 137   0.0000       1.079553        29.3761 
 138   0.0000       1.087471        29.5916 
 139   0.0000       1.099997        29.9324 
 140   0.0000       1.122438        30.5431 
 141   0.0000       1.165498        31.7148 
 142   0.0000       1.236219        33.6392 
 143   0.0000       1.249313        33.9955 
 144   0.0000       1.260900        34.3108 
 145   0.0000       1.336540        36.3691 
 146   0.0000       1.364192        37.1215 
 147   0.0000       1.382620        37.6230 
 148   0.0000       1.410362        38.3779 
 149   0.0000       1.423509        38.7357 
 150   0.0000       1.438043        39.1311 
 151   0.0000       1.452564        39.5263 
 152   0.0000       1.462806        39.8050 
 153   0.0000       1.515257        41.2323 
 154   0.0000       1.521251        41.3953 
 155   0.0000       1.571822        42.7714 
 156   0.0000       1.587149        43.1885 
 157   0.0000       1.590148        43.2701 
 158   0.0000       1.595731        43.4220 
 159   0.0000       1.619727        44.0750 
 160   0.0000       1.636457        44.5303 
 161   0.0000       1.650058        44.9004 
 162   0.0000       1.663918        45.2775 
 163   0.0000       1.666447        45.3463 
 164   0.0000       1.712015        46.5863 
 165   0.0000       1.719784        46.7977 
 166   0.0000       1.720417        46.8149 
 167   0.0000       1.725116        46.9428 
 168   0.0000       1.729590        47.0645 
 169   0.0000       1.738428        47.3050 
 170   0.0000       1.756036        47.7842 
 171   0.0000       1.757801        47.8322 
 172   0.0000       1.785396        48.5831 
 173   0.0000       1.794304        48.8255 
 174   0.0000       1.806030        49.1446 
 175   0.0000       1.819785        49.5189 
 176   0.0000       1.821953        49.5779 
 177   0.0000       1.841294        50.1042 
 178   0.0000       1.877731        51.0956 
 179   0.0000       1.881332        51.1936 
 180   0.0000       1.893322        51.5199 
 181   0.0000       1.898146        51.6512 
 182   0.0000       1.918719        52.2110 
 183   0.0000       1.920575        52.2615 
 184   0.0000       1.926800        52.4309 
 185   0.0000       1.962742        53.4089 
 186   0.0000       1.976287        53.7775 
 187   0.0000       1.982763        53.9537 
 188   0.0000       1.986879        54.0657 
 189   0.0000       1.991743        54.1981 
 190   0.0000       2.004303        54.5399 
 191   0.0000       2.012394        54.7600 
 192   0.0000       2.017560        54.9006 
 193   0.0000       2.018691        54.9314 
 194   0.0000       2.028319        55.1934 
 195   0.0000       2.035392        55.3858 
 196   0.0000       2.037401        55.4405 
 197   0.0000       2.041471        55.5512 
 198   0.0000       2.051014        55.8109 
 199   0.0000       2.057917        55.9988 
 200   0.0000       2.082619        56.6709 
 201   0.0000       2.086081        56.7651 
 202   0.0000       2.091863        56.9225 
 203   0.0000       2.116883        57.6033 
 204   0.0000       2.128439        57.9178 
 205   0.0000       2.155254        58.6474 
 206   0.0000       2.158859        58.7455 
 207   0.0000       2.162700        58.8501 
 208   0.0000       2.162718        58.8506 
 209   0.0000       2.189712        59.5851 
 210   0.0000       2.193916        59.6995 
 211   0.0000       2.214822        60.2684 
 212   0.0000       2.226466        60.5852 
 213   0.0000       2.234521        60.8044 
 214   0.0000       2.243540        61.0498 
 215   0.0000       2.264052        61.6080 
 216   0.0000       2.277365        61.9702 
 217   0.0000       2.292541        62.3832 
 218   0.0000       2.295717        62.4696 
 219   0.0000       2.329220        63.3813 
 220   0.0000       2.368046        64.4378 
 221   0.0000       2.403070        65.3908 
 222   0.0000       2.408962        65.5512 
 223   0.0000       2.413779        65.6823 
 224   0.0000       2.437182        66.3191 
 225   0.0000       2.437992        66.3411 
 226   0.0000       2.453600        66.7659 
 227   0.0000       2.460805        66.9619 
 228   0.0000       2.465556        67.0912 
 229   0.0000       2.471284        67.2471 
 230   0.0000       2.498663        67.9921 
 231   0.0000       2.499360        68.0111 
 232   0.0000       2.506606        68.2082 
 233   0.0000       2.515244        68.4433 
 234   0.0000       2.532362        68.9091 
 235   0.0000       2.549625        69.3788 
 236   0.0000       2.585836        70.3642 
 237   0.0000       2.596148        70.6448 
 238   0.0000       2.611007        71.0491 
 239   0.0000       2.647015        72.0290 
 240   0.0000       2.675644        72.8080 
 241   0.0000       2.682200        72.9864 
 242   0.0000       2.718737        73.9806 
 243   0.0000       2.734815        74.4181 
 244   0.0000       2.767791        75.3154 
 245   0.0000       2.791714        75.9664 
 246   0.0000       2.796944        76.1087 
 247   0.0000       2.816698        76.6463 
 248   0.0000       2.821883        76.7873 
 249   0.0000       2.826835        76.9221 
 250   0.0000       2.836292        77.1794 
 251   0.0000       2.847871        77.4945 
 252   0.0000       2.852404        77.6179 
 253   0.0000       2.879679        78.3601 
 254   0.0000       2.887292        78.5672 
 255   0.0000       2.922440        79.5236 
 256   0.0000       2.939174        79.9790 
 257   0.0000       2.960662        80.5637 
 258   0.0000       2.983713        81.1910 
 259   0.0000       3.004142        81.7469 
 260   0.0000       3.019394        82.1619 
 261   0.0000       3.025740        82.3346 
 262   0.0000       3.076984        83.7290 
 263   0.0000       3.115435        84.7753 
 264   0.0000       3.163496        86.0831 
 265   0.0000       3.180396        86.5430 
 266   0.0000       3.188313        86.7584 

                    ********************************
                    * MULLIKEN POPULATION ANALYSIS *
                    ********************************

-----------------------
MULLIKEN ATOMIC CHARGES
-----------------------
   0 C :    0.052800
   1 C :    0.069844
   2 C :   -0.185394
   3 C :   -0.419863
   4 C :    0.050138
   5 C :    0.090373
   6 C :    0.050138
   7 C :    0.090373
   8 C :   -0.379743
   9 C :    0.112617
  10 Cl:   -0.170213
  11 C :    0.112617
  12 H :    0.019756
  13 H :    0.019756
  14 H :    0.024608
  15 H :    0.024608
  16 H :   -0.003864
  17 H :    0.021686
  18 H :    0.016670
  19 H :    0.040460
  20 H :    0.021225
  21 H :    0.016670
  22 H :    0.021686
  23 H :    0.021225
  24 H :    0.040460
  25 H :    0.042674
  26 H :    0.033045
  27 H :    0.044963
  28 H :    0.042674
  29 H :    0.044963
  30 H :    0.033045
Sum of atomic charges:   -0.0000000

--------------------------------
MULLIKEN REDUCED ORBITAL CHARGES
--------------------------------
  0 C s       :     2.999748  s :     2.999748
      pz      :     0.980366  p :     2.867958
      px      :     0.959622
      py      :     0.927970
      dz2     :     0.013111  d :     0.079494
      dxz     :     0.020836
      dyz     :     0.008275
      dx2y2   :     0.016289
      dxy     :     0.020982
  1 C s       :     3.004331  s :     3.004331
      pz      :     0.969358  p :     2.848371
      px      :     0.894530
      py      :     0.984483
      dz2     :     0.013038  d :     0.077454
      dxz     :     0.010462
      dyz     :     0.018534
      dx2y2   :     0.019494
      dxy     :     0.015926
  2 C s       :     3.175858  s :     3.175858
      pz      :     0.964965  p :     2.902912
      px      :     0.965674
      py      :     0.972274
      dz2     :     0.026378  d :     0.106623
      dxz     :     0.030043
      dyz     :     0.010114
      dx2y2   :     0.014316
      dxy     :     0.025771
  3 C s       :     3.222991  s :     3.222991
      pz      :     1.079753  p :     3.077824
      px      :     1.012399
      py      :     0.985671
      dz2     :     0.027968  d :     0.119048
      dxz     :     0.017200
      dyz     :     0.027174
      dx2y2   :     0.025887
      dxy     :     0.020820
  4 C s       :     3.000224  s :     3.000224
      pz      :     0.949753  p :     2.869912
      px      :     0.959240
      py      :     0.960919
      dz2     :     0.017998  d :     0.079725
      dxz     :     0.019425
      dyz     :     0.008506
      dx2y2   :     0.011641
      dxy     :     0.022156
  5 C s       :     2.995228  s :     2.995228
      pz      :     0.921506  p :     2.837458
      px      :     0.988903
      py      :     0.927048
      dz2     :     0.017000  d :     0.076942
      dxz     :     0.007000
      dyz     :     0.020361
      dx2y2   :     0.019170
      dxy     :     0.013411
  6 C s       :     3.000224  s :     3.000224
      pz      :     0.949753  p :     2.869912
      px      :     0.959240
      py      :     0.960919
      dz2     :     0.017998  d :     0.079725
      dxz     :     0.019425
      dyz     :     0.008506
      dx2y2   :     0.011641
      dxy     :     0.022156
  7 C s       :     2.995228  s :     2.995228
      pz      :     0.921506  p :     2.837458
      px      :     0.988903
      py      :     0.927048
      dz2     :     0.017000  d :     0.076942
      dxz     :     0.007000
      dyz     :     0.020361
      dx2y2   :     0.019170
      dxy     :     0.013411
  8 C s       :     3.309638  s :     3.309638
      pz      :     1.116276  p :     2.939020
      px      :     0.770934
      py      :     1.051810
      dz2     :     0.029864  d :     0.131085
      dxz     :     0.016576
      dyz     :     0.031552
      dx2y2   :     0.032199
      dxy     :     0.020894
  9 C s       :     2.967994  s :     2.967994
      pz      :     0.928924  p :     2.861239
      px      :     0.970941
      py      :     0.961374
      dz2     :     0.016890  d :     0.058150
      dxz     :     0.004426
      dyz     :     0.015383
      dx2y2   :     0.012182
      dxy     :     0.009267
 10 Cls       :     5.931989  s :     5.931989
      pz      :     3.967125  p :    11.209325
      px      :     3.288951
      py      :     3.953249
      dz2     :     0.005355  d :     0.028898
      dxz     :     0.003527
      dyz     :     0.000507
      dx2y2   :     0.015506
      dxy     :     0.004005
 11 C s       :     2.967994  s :     2.967994
      pz      :     0.928924  p :     2.861239
      px      :     0.970941
      py      :     0.961374
      dz2     :     0.016890  d :     0.058150
      dxz     :     0.004426
      dyz     :     0.015383
      dx2y2   :     0.012182
      dxy     :     0.009267
 12 H s       :     0.950449  s :     0.950449
      pz      :     0.015303  p :     0.029794
      px      :     0.010221
      py      :     0.004271
 13 H s       :     0.950449  s :     0.950449
      pz      :     0.015303  p :     0.029794
      px      :     0.010221
      py      :     0.004271
 14 H s       :     0.945734  s :     0.945734
      pz      :     0.015391  p :     0.029657
      px      :     0.005622
      py      :     0.008644
 15 H s       :     0.945734  s :     0.945734
      pz      :     0.015391  p :     0.029657
      px      :     0.005622
      py      :     0.008644
 16 H s       :     0.975341  s :     0.975341
      pz      :     0.003834  p :     0.028523
      px      :     0.007285
      py      :     0.017404
 17 H s       :     0.948524  s :     0.948524
      pz      :     0.004609  p :     0.029790
      px      :     0.012326
      py      :     0.012855
 18 H s       :     0.953560  s :     0.953560
      pz      :     0.015485  p :     0.029770
      px      :     0.009544
      py      :     0.004741
 19 H s       :     0.929083  s :     0.929083
      pz      :     0.004598  p :     0.030457
      px      :     0.021659
      py      :     0.004200
 20 H s       :     0.949002  s :     0.949002
      pz      :     0.015438  p :     0.029773
      px      :     0.006247
      py      :     0.008088
 21 H s       :     0.953560  s :     0.953560
      pz      :     0.015485  p :     0.029770
      px      :     0.009544
      py      :     0.004741
 22 H s       :     0.948524  s :     0.948524
      pz      :     0.004609  p :     0.029790
      px      :     0.012326
      py      :     0.012855
 23 H s       :     0.949002  s :     0.949002
      pz      :     0.015438  p :     0.029773
      px      :     0.006247
      py      :     0.008088
 24 H s       :     0.929083  s :     0.929083
      pz      :     0.004598  p :     0.030457
      px      :     0.021659
      py      :     0.004200
 25 H s       :     0.926179  s :     0.926179
      pz      :     0.004494  p :     0.031147
      px      :     0.009547
      py      :     0.017105
 26 H s       :     0.935698  s :     0.935698
      pz      :     0.004688  p :     0.031257
      px      :     0.020433
      py      :     0.006136
 27 H s       :     0.923518  s :     0.923518
      pz      :     0.016253  p :     0.031520
      px      :     0.006810
      py      :     0.008456
 28 H s       :     0.926179  s :     0.926179
      pz      :     0.004494  p :     0.031147
      px      :     0.009547
      py      :     0.017105
 29 H s       :     0.923518  s :     0.923518
      pz      :     0.016253  p :     0.031520
      px      :     0.006810
      py      :     0.008456
 30 H s       :     0.935698  s :     0.935698
      pz      :     0.004688  p :     0.031257
      px      :     0.020433
      py      :     0.006136


                     *******************************
                     * LOEWDIN POPULATION ANALYSIS *
                     *******************************

----------------------
LOEWDIN ATOMIC CHARGES
----------------------
   0 C :   -0.016374
   1 C :   -0.013983
   2 C :   -0.038431
   3 C :   -0.058090
   4 C :   -0.017777
   5 C :   -0.014311
   6 C :   -0.017777
   7 C :   -0.014311
   8 C :   -0.063346
   9 C :   -0.038323
  10 Cl:   -0.013431
  11 C :   -0.038323
  12 H :    0.016355
  13 H :    0.016355
  14 H :    0.014382
  15 H :    0.014382
  16 H :    0.014991
  17 H :    0.016913
  18 H :    0.015178
  19 H :    0.016574
  20 H :    0.013780
  21 H :    0.015178
  22 H :    0.016913
  23 H :    0.013780
  24 H :    0.016574
  25 H :    0.026102
  26 H :    0.021933
  27 H :    0.023528
  28 H :    0.026102
  29 H :    0.023528
  30 H :    0.021933

-------------------------------
LOEWDIN REDUCED ORBITAL CHARGES
-------------------------------
  0 C s       :     2.783951  s :     2.783951
      pz      :     1.037215  p :     3.028836
      px      :     1.002939
      py      :     0.988682
      dz2     :     0.031831  d :     0.203586
      dxz     :     0.060768
      dyz     :     0.018808
      dx2y2   :     0.040485
      dxy     :     0.051693
  1 C s       :     2.785257  s :     2.785257
      pz      :     1.039440  p :     3.028006
      px      :     0.982300
      py      :     1.006266
      dz2     :     0.031762  d :     0.200721
      dxz     :     0.028953
      dyz     :     0.050066
      dx2y2   :     0.048594
      dxy     :     0.041346
  2 C s       :     2.781729  s :     2.781729
      pz      :     0.997891  p :     3.004080
      px      :     0.998890
      py      :     1.007300
      dz2     :     0.061814  d :     0.252621
      dxz     :     0.068048
      dyz     :     0.023734
      dx2y2   :     0.035574
      dxy     :     0.063451
  3 C s       :     2.796967  s :     2.796967
      pz      :     1.014635  p :     2.991576
      px      :     1.000715
      py      :     0.976225
      dz2     :     0.061540  d :     0.269548
      dxz     :     0.037336
      dyz     :     0.061930
      dx2y2   :     0.059062
      dxy     :     0.049679
  4 C s       :     2.783541  s :     2.783541
      pz      :     1.009264  p :     3.029842
      px      :     1.019559
      py      :     1.001019
      dz2     :     0.048478  d :     0.204394
      dxz     :     0.051124
      dyz     :     0.020520
      dx2y2   :     0.027166
      dxy     :     0.057106
  5 C s       :     2.783218  s :     2.783218
      pz      :     0.999758  p :     3.031135
      px      :     1.037710
      py      :     0.993668
      dz2     :     0.046179  d :     0.199958
      dxz     :     0.018319
      dyz     :     0.054116
      dx2y2   :     0.050245
      dxy     :     0.031099
  6 C s       :     2.783541  s :     2.783541
      pz      :     1.009264  p :     3.029842
      px      :     1.019559
      py      :     1.001019
      dz2     :     0.048478  d :     0.204394
      dxz     :     0.051124
      dyz     :     0.020520
      dx2y2   :     0.027166
      dxy     :     0.057106
  7 C s       :     2.783218  s :     2.783218
      pz      :     0.999758  p :     3.031135
      px      :     1.037710
      py      :     0.993668
      dz2     :     0.046179  d :     0.199958
      dxz     :     0.018319
      dyz     :     0.054116
      dx2y2   :     0.050245
      dxy     :     0.031099
  8 C s       :     2.860503  s :     2.860503
      pz      :     1.058171  p :     2.920886
      px      :     0.817332
      py      :     1.045383
      dz2     :     0.063292  d :     0.281957
      dxz     :     0.034555
      dyz     :     0.067040
      dx2y2   :     0.070291
      dxy     :     0.046779
  9 C s       :     2.786209  s :     2.786209
      pz      :     1.007108  p :     3.086837
      px      :     1.049609
      py      :     1.030121
      dz2     :     0.048217  d :     0.165277
      dxz     :     0.013818
      dyz     :     0.041485
      dx2y2   :     0.034369
      dxy     :     0.027388
 10 Cls       :     5.763934  s :     5.763934
      pz      :     3.938012  p :    11.214238
      px      :     3.350606
      py      :     3.925620
      dz2     :     0.006120  d :     0.035259
      dxz     :     0.005106
      dyz     :     0.000581
      dx2y2   :     0.017975
      dxy     :     0.005478
 11 C s       :     2.786209  s :     2.786209
      pz      :     1.007108  p :     3.086837
      px      :     1.049609
      py      :     1.030121
      dz2     :     0.048217  d :     0.165277
      dxz     :     0.013818
      dyz     :     0.041485
      dx2y2   :     0.034369
      dxy     :     0.027388
 12 H s       :     0.902347  s :     0.902347
      pz      :     0.036264  p :     0.081298
      px      :     0.027755
      py      :     0.017279
 13 H s       :     0.902347  s :     0.902347
      pz      :     0.036264  p :     0.081298
      px      :     0.027755
      py      :     0.017279
 14 H s       :     0.902094  s :     0.902094
      pz      :     0.037071  p :     0.083525
      px      :     0.020495
      py      :     0.025959
 15 H s       :     0.902094  s :     0.902094
      pz      :     0.037071  p :     0.083525
      px      :     0.020495
      py      :     0.025959
 16 H s       :     0.903500  s :     0.903500
      pz      :     0.017326  p :     0.081508
      px      :     0.023258
      py      :     0.040924
 17 H s       :     0.901777  s :     0.901777
      pz      :     0.016947  p :     0.081310
      px      :     0.031553
      py      :     0.032810
 18 H s       :     0.903686  s :     0.903686
      pz      :     0.038090  p :     0.081136
      px      :     0.026155
      py      :     0.016890
 19 H s       :     0.897904  s :     0.897904
      pz      :     0.017191  p :     0.085522
      px      :     0.050496
      py      :     0.017835
 20 H s       :     0.902677  s :     0.902677
      pz      :     0.038660  p :     0.083544
      px      :     0.019678
      py      :     0.025206
 21 H s       :     0.903686  s :     0.903686
      pz      :     0.038090  p :     0.081136
      px      :     0.026155
      py      :     0.016890
 22 H s       :     0.901777  s :     0.901777
      pz      :     0.016947  p :     0.081310
      px      :     0.031553
      py      :     0.032810
 23 H s       :     0.902677  s :     0.902677
      pz      :     0.038660  p :     0.083544
      px      :     0.019678
      py      :     0.025206
 24 H s       :     0.897904  s :     0.897904
      pz      :     0.017191  p :     0.085522
      px      :     0.050496
      py      :     0.017835
 25 H s       :     0.892377  s :     0.892377
      pz      :     0.015902  p :     0.081521
      px      :     0.024412
      py      :     0.041208
 26 H s       :     0.895854  s :     0.895854
      pz      :     0.016449  p :     0.082214
      px      :     0.047344
      py      :     0.018420
 27 H s       :     0.893343  s :     0.893343
      pz      :     0.040423  p :     0.083129
      px      :     0.018996
      py      :     0.023711
 28 H s       :     0.892377  s :     0.892377
      pz      :     0.015902  p :     0.081521
      px      :     0.024412
      py      :     0.041208
 29 H s       :     0.893343  s :     0.893343
      pz      :     0.040423  p :     0.083129
      px      :     0.018996
      py      :     0.023711
 30 H s       :     0.895854  s :     0.895854
      pz      :     0.016449  p :     0.082214
      px      :     0.047344
      py      :     0.018420


                      *****************************
                      * MAYER POPULATION ANALYSIS *
                      *****************************

  NA   - Mulliken gross atomic population
  ZA   - Total nuclear charge
  QA   - Mulliken gross atomic charge
  VA   - Mayer's total valence
  BVA  - Mayer's bonded valence
  FA   - Mayer's free valence

  ATOM       NA         ZA         QA         VA         BVA        FA
  0 C      5.9472     6.0000     0.0528     3.9648     3.9648     0.0000
  1 C      5.9302     6.0000     0.0698     3.8926     3.8926    -0.0000
  2 C      6.1854     6.0000    -0.1854     4.0552     4.0552     0.0000
  3 C      6.4199     6.0000    -0.4199     4.0331     4.0331    -0.0000
  4 C      5.9499     6.0000     0.0501     3.9638     3.9638     0.0000
  5 C      5.9096     6.0000     0.0904     3.8891     3.8891     0.0000
  6 C      5.9499     6.0000     0.0501     3.9638     3.9638    -0.0000
  7 C      5.9096     6.0000     0.0904     3.8891     3.8891     0.0000
  8 C      6.3797     6.0000    -0.3797     4.0452     4.0452    -0.0000
  9 C      5.8874     6.0000     0.1126     3.8732     3.8732    -0.0000
 10 Cl    17.1702    17.0000    -0.1702     0.9788     0.9788    -0.0000
 11 C      5.8874     6.0000     0.1126     3.8732     3.8732    -0.0000
 12 H      0.9802     1.0000     0.0198     0.9683     0.9683     0.0000
 13 H      0.9802     1.0000     0.0198     0.9683     0.9683     0.0000
 14 H      0.9754     1.0000     0.0246     0.9702     0.9702     0.0000
 15 H      0.9754     1.0000     0.0246     0.9702     0.9702     0.0000
 16 H      1.0039     1.0000    -0.0039     0.9834     0.9834     0.0000
 17 H      0.9783     1.0000     0.0217     0.9685     0.9685     0.0000
 18 H      0.9833     1.0000     0.0167     0.9682     0.9682    -0.0000
 19 H      0.9595     1.0000     0.0405     0.9836     0.9836     0.0000
 20 H      0.9788     1.0000     0.0212     0.9686     0.9686     0.0000
 21 H      0.9833     1.0000     0.0167     0.9682     0.9682     0.0000
 22 H      0.9783     1.0000     0.0217     0.9685     0.9685     0.0000
 23 H      0.9788     1.0000     0.0212     0.9686     0.9686     0.0000
 24 H      0.9595     1.0000     0.0405     0.9836     0.9836     0.0000
 25 H      0.9573     1.0000     0.0427     0.9871     0.9871    -0.0000
 26 H      0.9670     1.0000     0.0330     0.9811     0.9811    -0.0000
 27 H      0.9550     1.0000     0.0450     0.9886     0.9886     0.0000
 28 H      0.9573     1.0000     0.0427     0.9871     0.9871    -0.0000
 29 H      0.9550     1.0000     0.0450     0.9886     0.9886     0.0000
 30 H      0.9670     1.0000     0.0330     0.9811     0.9811    -0.0000

  Mayer bond orders larger than 0.1
B(  0-C ,  1-C ) :   1.0444 B(  0-C ,  2-C ) :   1.0315 B(  0-C , 12-H ) :   0.9676 
B(  0-C , 13-H ) :   0.9676 B(  1-C ,  3-C ) :   1.0000 B(  1-C , 14-H ) :   0.9624 
B(  1-C , 15-H ) :   0.9624 B(  2-C ,  4-C ) :   1.0316 B(  2-C ,  6-C ) :   1.0316 
B(  2-C , 16-H ) :   0.9692 B(  3-C ,  5-C ) :   1.0091 B(  3-C ,  7-C ) :   1.0091 
B(  3-C ,  8-C ) :   1.0128 B(  4-C ,  5-C ) :   1.0442 B(  4-C , 17-H ) :   0.9670 
B(  4-C , 18-H ) :   0.9676 B(  5-C , 19-H ) :   0.9605 B(  5-C , 20-H ) :   0.9598 
B(  6-C ,  7-C ) :   1.0442 B(  6-C , 21-H ) :   0.9676 B(  6-C , 22-H ) :   0.9670 
B(  7-C , 23-H ) :   0.9598 B(  7-C , 24-H ) :   0.9605 B(  8-C ,  9-C ) :   1.0192 
B(  8-C , 10-Cl) :   0.9959 B(  8-C , 11-C ) :   1.0192 B(  9-C , 25-H ) :   0.9749 
B(  9-C , 26-H ) :   0.9679 B(  9-C , 27-H ) :   0.9758 B( 11-C , 28-H ) :   0.9749 
B( 11-C , 29-H ) :   0.9758 B( 11-C , 30-H ) :   0.9679 

-------
TIMINGS
-------

Total SCF time: 0 days 0 hours 0 min 37 sec 

Total time                  ....      37.014 sec
Sum of individual times     ....      36.790 sec  ( 99.4%)

Fock matrix formation       ....      36.476 sec  ( 98.5%)
Diagonalization             ....       0.031 sec  (  0.1%)
Density matrix formation    ....       0.007 sec  (  0.0%)
Population analysis         ....       0.063 sec  (  0.2%)
Initial guess               ....       0.153 sec  (  0.4%)
Orbital Transformation      ....       0.000 sec  (  0.0%)
Orbital Orthonormalization  ....       0.000 sec  (  0.0%)
DIIS solution               ....       0.000 sec  (  0.0%)
SOSCF solution              ....       0.060 sec  (  0.2%)


           ************************************************************
           *        Program running with 4 parallel MPI-processes     *
           *              working on a common directory               *
           ************************************************************


------------------------------------------------------------------------------- 
                              ORCA-MATRIX DRIVEN CI                            
------------------------------------------------------------------------------- 


Wavefunction type
-----------------
Correlation treatment                      ...      CCSD     
Single excitations                         ... ON
Orbital optimization                       ... OFF
Calculation of Z vector                    ... OFF
Calculation of Brueckner orbitals          ... OFF
Perturbative triple excitations            ... ON
Calculation of F12 correction              ... OFF
Frozen core treatment                      ... chemical core (32 el)
Reference Wavefunction                     ... RHF
  Internal Orbitals:    16 ...   50 ( 35 MO's/ 70 electrons)
  Virtual  Orbitals:    51 ...  266 (216 MO's              )
Number of AO's                             ...    267
Number of electrons                        ...    102
Number of correlated electrons             ...     70

Algorithmic settings
--------------------
Integral transformation                    ... All integrals via the RI transformation
K(C) Formation                             ... RI-DLPNO
   PNO-Integral Storage                    ... ON DISK
   PNO occupation number cut-off           ... 1.000e-07
   Singles PNO occupation number cut-off   ... 3.000e-09
   PNO Mulliken prescreening cut-off       ... 1.000e-03
   Domain cut-off (Mulliken population)    ... 1.000e-03
   PNO Normalization                       ...    1
Maximum number of iterations               ...        50
Convergence tolerance (max. residuum)      ... 1.000e-05
Level shift for amplitude update           ... 2.000e-01
Maximum number of DIIS vectors             ...         7
DIIS turned on at iteration                ...         0
Damping before turning on DIIS             ...     0.500
Damping after turning on DIIS              ...     0.000
Pair specific amplitude update             ... OFF
Natural orbital iterations                 ... OFF
Perturbative natural orbital generation    ... OFF
Printlevel                                 ... 2

Singles Fock matrix elements calculated using PNOs.

Memory handling:
----------------
Maximum memory for working arrays          ...   8000 MB
Data storage in matrix containers          ... UNCOMPRESSED
Data type for integral storage             ... DOUBLE
In-Core Storage of quantities:
   Amplitudes+Sigma Vector      ... NO
   J+K operators                ... NO
   DIIS vectors                 ... NO
   3-external integrals         ... NO
   4-external integrals         ... NO

Localization treatment:
-----------------------
Localization option                        ...    6
Localization threshhold                    ... -1.0e+00
Using relative localization threshhold     ... 1.0e-08
Neglect threshold for strong pairs         ... 1.000e-05 Eh
Prescreening threshold for very weak pairs ... 1.000e-07 Eh

Initializing the integral package          ... done
Localizing the valence orbitals
------------------------------------------------------------------------------
                           ORCA ORBITAL LOCALIZATION
------------------------------------------------------------------------------

Input orbitals are from                  ... bicyclooctyl_CMe2Cl.proc0.gbw
Output orbitals are to                   ... bicyclooctyl_CMe2Cl.proc0.loc
Max. number of iterations                ... 128
Localizations seeded randomly            ... off
Convergence tolerance                    ... 1.000e-06
Using relative localization threshhold   ... 1.000e-08
Treshold for strong local MOs            ... 9.500e-01
Treshold for bond MOs                    ... 8.500e-01
Operator                                 ... 0
Orbital range for localization           ... 16 to 50
Localization criterion                   ... FOSTER-BOYS (AUGMENTED HESSIAN)
Doing the dipole integrals     ... o.k.
Initial value of the localization sum :   720.976205
ITERATION   0 : L=  751.0104553005 DL=  3.00e+01 (AVERGE_DL)=    0.2246724999 
ITERATION   1 : L=  754.1490773434 DL=  3.14e+00 (AVERGE_DL)=    0.0726291610 
ITERATION   2 : L=  754.1742899490 DL=  2.52e-02 (AVERGE_DL)=    0.0065095412 
ITERATION   3 : L=  754.1748697443 DL=  5.80e-04 (AVERGE_DL)=    0.0009871403 
ITERATION   4 : L=  754.1753068574 DL=  4.37e-04 (AVERGE_DL)=    0.0008571136 
ITERATION   5 : L=  754.1756865677 DL=  3.80e-04 (AVERGE_DL)=    0.0007988546 
ITERATION   6 : L=  754.1760118609 DL=  3.25e-04 (AVERGE_DL)=    0.0007393992 
ITERATION   7 : L=  754.1762891246 DL=  2.77e-04 (AVERGE_DL)=    0.0006826342 
ITERATION   8 : L=  754.1765250029 DL=  2.36e-04 (AVERGE_DL)=    0.0006296301 
ITERATION   9 : L=  754.1767253415 DL=  2.00e-04 (AVERGE_DL)=    0.0005802616 
ITERATION  10 : L=  754.1768952515 DL=  1.70e-04 (AVERGE_DL)=    0.0005343811 
ITERATION  11 : L=  754.1770391882 DL=  1.44e-04 (AVERGE_DL)=    0.0004918439 
ITERATION  12 : L=  754.1771609950 DL=  1.22e-04 (AVERGE_DL)=    0.0004524569 
ITERATION  13 : L=  754.1772639900 DL=  1.03e-04 (AVERGE_DL)=    0.0004160539 
ITERATION  14 : L=  754.1773510171 DL=  8.70e-05 (AVERGE_DL)=    0.0003824449 
ITERATION  15 : L=  754.1774245107 DL=  7.35e-05 (AVERGE_DL)=    0.0003514522 
ITERATION  16 : L=  754.1774865417 DL=  6.20e-05 (AVERGE_DL)=    0.0003228836 
ITERATION  17 : L=  754.1775388781 DL=  5.23e-05 (AVERGE_DL)=    0.0002965809 
ITERATION  18 : L=  754.1775830200 DL=  4.41e-05 (AVERGE_DL)=    0.0002723749 
ITERATION  19 : L=  754.1776202414 DL=  3.72e-05 (AVERGE_DL)=    0.0002501140 
ITERATION  20 : L=  754.1776516186 DL=  3.14e-05 (AVERGE_DL)=    0.0002296405 
ITERATION  21 : L=  754.1776780640 DL=  2.64e-05 (AVERGE_DL)=    0.0002108225 
ITERATION  22 : L=  754.1777003498 DL=  2.23e-05 (AVERGE_DL)=    0.0001935331 
ITERATION  23 : L=  754.1777191295 DL=  1.88e-05 (AVERGE_DL)=    0.0001776584 
ITERATION  24 : L=  754.1777349494 DL=  1.58e-05 (AVERGE_DL)=    0.0001630586 
ITERATION  25 : L=  754.1777482775 DL=  1.33e-05 (AVERGE_DL)=    0.0001496665 
ITERATION  26 : L=  754.1777595047 DL=  1.12e-05 (AVERGE_DL)=    0.0001373654 
ITERATION  27 : L=  754.1777689606 DL=  9.46e-06 (AVERGE_DL)=    0.0001260646 
ITERATION  28 : L=  754.1777769265 DL=  7.97e-06 (AVERGE_DL)=    0.0001157067 
ITERATION  29 : L=  754.1777836351 DL=  6.71e-06 (AVERGE_DL)=    0.0001061842 
ITERATION  30 : L=  754.1777892854 DL=  5.65e-06 (AVERGE_DL)=    0.0000974488 
ITERATION  31 : L=  754.1777940442 DL=  4.76e-06 (AVERGE_DL)=    0.0000894311 
ITERATION  32 : L=  754.1777980534 DL=  4.01e-06 (AVERGE_DL)=    0.0000820864 
ITERATION  33 : L=  754.1778014288 DL=  3.38e-06 (AVERGE_DL)=    0.0000753194 
ITERATION  34 : L=  754.1778042713 DL=  2.84e-06 (AVERGE_DL)=    0.0000691176 
ITERATION  35 : L=  754.1778066661 DL=  2.39e-06 (AVERGE_DL)=    0.0000634424 
ITERATION  36 : L=  754.1778086836 DL=  2.02e-06 (AVERGE_DL)=    0.0000582304 
ITERATION  37 : L=  754.1778103813 DL=  1.70e-06 (AVERGE_DL)=    0.0000534147 
ITERATION  38 : L=  754.1778118106 DL=  1.43e-06 (AVERGE_DL)=    0.0000490136 
ITERATION  39 : L=  754.1778130164 DL=  1.21e-06 (AVERGE_DL)=    0.0000450173 
ITERATION  40 : L=  754.1778140302 DL=  1.01e-06 (AVERGE_DL)=    0.0000412773 
ITERATION  41 : L=  754.1778148843 DL=  8.54e-07 (AVERGE_DL)=    0.0000378872 
LOCALIZATION SUM CONVERGED

------------------------------------------------------
AUGMENTED HESSIAN OPTIMIZATION OF FOSTER-BOYS ORBITALS
------------------------------------------------------

Spin operator:           0
Orbital window:          16 to 50
Number of iterations:    128
Gradient tolerance:      1.000e-06
Number of pairs:         595
Davidson threshold:      2000
Diagonalization method:  LAPACK
Iter:    0   L: 754.1778148843   Grad. norm: 3.444963e-03
   *** Likely close to a maximum now. ***
       Augmented Hessian eigenvalues:  9.17e-06 -2.01e-01 -5.93e+00 -5.95e+00 ... 
Iter:    1   L: 754.1778194668   Grad. norm: 1.622077e-05
Iter:    2   L: 754.1778194668   Grad. norm: 7.497809e-13
LOCALIZATION HAS CONVERGED.

Eigenvalues of the Hessian:
  0 -2.010e-01
  1 -5.925e+00
  2 -5.949e+00
  3 -1.117e+01
  4 -1.122e+01
  5 -1.675e+01
  6 -1.675e+01
  7 -1.714e+01
  8 -1.744e+01
  9 -1.747e+01
    ...


------------------------------------------------------------------------------- 
                    LOCALIZED MOLECULAR ORBITAL COMPOSITIONS                   
------------------------------------------------------------------------------- 

The Mulliken populations for each LMO on each atom are computed
The LMO`s will be ordered according to atom index and type
  (A) Strongly localized MO`s have populations of >=0.950 on one atom
  (B) Two center bond orbitals have populations of >=0.850 on two atoms
  (C) Other MO`s are considered to be `delocalized`

FOUND  -   3 strongly local MO`s
       -  32 two center bond MO`s
       -   0 significantly delocalized MO`s

Rather strongly localized orbitals:
MO  18:  10Cl -   0.999413
MO  17:  10Cl -   0.998883
MO  16:  10Cl -   0.998883
Bond-like localized orbitals:
MO  50:  30H  -   0.499131  and  11C  -   0.506208
MO  49:  29H  -   0.489677  and  11C  -   0.518558
MO  48:  28H  -   0.491437  and  11C  -   0.515950
MO  47:  27H  -   0.489677  and   9C  -   0.518558
MO  46:  26H  -   0.499131  and   9C  -   0.506208
MO  45:  25H  -   0.491437  and   9C  -   0.515950
MO  44:  24H  -   0.493820  and   7C  -   0.512898
MO  43:  23H  -   0.510528  and   7C  -   0.497122
MO  42:  22H  -   0.509349  and   6C  -   0.500007
MO  41:  21H  -   0.512148  and   6C  -   0.497476
MO  40:  20H  -   0.510528  and   5C  -   0.497122
MO  39:  19H  -   0.493820  and   5C  -   0.512898
MO  38:  18H  -   0.512148  and   4C  -   0.497476
MO  37:  17H  -   0.509349  and   4C  -   0.500007
MO  36:  16H  -   0.514667  and   2C  -   0.493911
MO  35:  15H  -   0.507869  and   1C  -   0.500493
MO  34:  14H  -   0.507869  and   1C  -   0.500493
MO  33:  13H  -   0.510439  and   0C  -   0.499128
MO  32:  12H  -   0.510439  and   0C  -   0.499128
MO  31:  11C  -   0.450390  and   8C  -   0.599445
MO  30:  10Cl -   0.625533  and   8C  -   0.422601
MO  29:   9C  -   0.450390  and   8C  -   0.599445
MO  28:   8C  -   0.546467  and   3C  -   0.521037
MO  27:   7C  -   0.535345  and   6C  -   0.506310
MO  26:   7C  -   0.472771  and   3C  -   0.580605
MO  25:   6C  -   0.514036  and   2C  -   0.542672
MO  24:   5C  -   0.535345  and   4C  -   0.506310
MO  23:   5C  -   0.472771  and   3C  -   0.580605
MO  22:   4C  -   0.514036  and   2C  -   0.542672
MO  21:   3C  -   0.562859  and   1C  -   0.485775
MO  20:   2C  -   0.537357  and   0C  -   0.519370
MO  19:   1C  -   0.543753  and   0C  -   0.497998
Localized MO's were stored in: bicyclooctyl_CMe2Cl.proc0.loc

Localizing the core orbitals
------------------------------------------------------------------------------
                           ORCA ORBITAL LOCALIZATION
------------------------------------------------------------------------------

Input orbitals are from                  ... bicyclooctyl_CMe2Cl.proc0.loc
Output orbitals are to                   ... bicyclooctyl_CMe2Cl.proc0.loc
Max. number of iterations                ... 128
Localizations seeded randomly            ... off
Convergence tolerance                    ... 1.000e-06
Using relative localization threshhold   ... 1.000e-08
Treshold for strong local MOs            ... 9.500e-01
Treshold for bond MOs                    ... 8.500e-01
Operator                                 ... 0
Orbital range for localization           ... 0 to 15
Localization criterion                   ... FOSTER-BOYS (AUGMENTED HESSIAN)
Doing the dipole integrals     ... o.k.
Initial value of the localization sum :   309.133302
ITERATION   0 : L=  309.3040228623 DL=  1.71e-01 (AVERGE_DL)=    0.0377184033 
ITERATION   1 : L=  309.3092866098 DL=  5.26e-03 (AVERGE_DL)=    0.0066230327 
ITERATION   2 : L=  309.3096223449 DL=  3.36e-04 (AVERGE_DL)=    0.0016726603 
ITERATION   3 : L=  309.3096430539 DL=  2.07e-05 (AVERGE_DL)=    0.0004154217 
ITERATION   4 : L=  309.3096443598 DL=  1.31e-06 (AVERGE_DL)=    0.0001043215 
ITERATION   5 : L=  309.3096444406 DL=  8.07e-08 (AVERGE_DL)=    0.0000259394 
LOCALIZATION SUM CONVERGED

------------------------------------------------------
AUGMENTED HESSIAN OPTIMIZATION OF FOSTER-BOYS ORBITALS
------------------------------------------------------

Spin operator:           0
Orbital window:          0 to 15
Number of iterations:    128
Gradient tolerance:      1.000e-06
Number of pairs:         120
Davidson threshold:      2000
Diagonalization method:  LAPACK
Iter:    0   L: 309.3096444406   Grad. norm: 6.611717e-04
   *** Detected a saddle point. ***
       Augmented Hessian eigenvalues:  1.10e-05  4.36e-06  3.08e-06 -3.63e-06 ... 
Iter:    1   L: 309.3096447366   Grad. norm: 6.528651e-04
Iter:    2   L: 309.3096454320   Grad. norm: 6.112967e-04
Iter:    3   L: 309.3096463737   Grad. norm: 5.205412e-04
Iter:    4   L: 309.3096472889   Grad. norm: 3.831882e-04
Iter:    5   L: 309.3096479461   Grad. norm: 2.234735e-04
Iter:    6   L: 309.3096482475   Grad. norm: 4.870431e-05
Iter:    7   L: 309.3096482609   Grad. norm: 3.166910e-07
   *** Likely close to a maximum now. ***
       Augmented Hessian eigenvalues:  4.16e-13 -8.98e-06 -1.07e-05 -1.14e-05 ... 
Iter:    8   L: 309.3096482609   Grad. norm: 4.206466e-12
LOCALIZATION HAS CONVERGED.

Eigenvalues of the Hessian:
  0 -8.978e-06
  1 -1.065e-05
  2 -1.136e-05
  3 -1.174e-01
  4 -1.174e-01
  5 -1.177e-01
  6 -3.526e-01
  7 -4.698e-01
  8 -4.699e-01
  9 -4.706e-01
    ...


------------------------------------------------------------------------------- 
                    LOCALIZED MOLECULAR ORBITAL COMPOSITIONS                   
------------------------------------------------------------------------------- 

The Mulliken populations for each LMO on each atom are computed
The LMO`s will be ordered according to atom index and type
  (A) Strongly localized MO`s have populations of >=0.950 on one atom
  (B) Two center bond orbitals have populations of >=0.850 on two atoms
  (C) Other MO`s are considered to be `delocalized`

FOUND  -  16 strongly local MO`s
       -   0 two center bond MO`s
       -   0 significantly delocalized MO`s

Rather strongly localized orbitals:
MO  15:  11C  -   0.999609
MO  14:  10Cl -   0.999908
MO  13:  10Cl -   0.999748
MO  12:  10Cl -   0.999927
MO  11:  10Cl -   0.999999
MO  10:  10Cl -   0.999927
MO   9:   9C  -   0.999609
MO   8:   8C  -   0.998853
MO   7:   7C  -   0.999226
MO   6:   6C  -   0.999244
MO   5:   5C  -   0.999226
MO   4:   4C  -   0.999244
MO   3:   3C  -   0.998495
MO   2:   2C  -   0.998555
MO   1:   1C  -   0.999242
MO   0:   0C  -   0.999242
Localized MO's were stored in: bicyclooctyl_CMe2Cl.proc0.loc

Warning: internal orbitals are localized - no re-canonicalization of internal orbitals

--------------------------
CLOSED-SHELL FOCK OPERATOR
--------------------------

RI-JK section for the Fock operator:
  RHF full Fock operator         ... done
  RHF frozen core Fock operator  ... done
Time needed for Fock operator              ...            6.918 sec
Reference energy                           ...   -887.150800246

--------------
DLPNO SETTINGS (2015 fully linear scaling implementation)
--------------

TCutMKN:           1.000e-03
TCutPAO:           1.000e-03
TCutPNO:           1.000e-07
TCutPNOSingles:    3.000e-09
TCutEN:            9.700e-01
TCutPAOExt:        1.000e-01
TCutPairs:         1.000e-05
TCutPre:           1.000e-07
TCutOSV:           1.000e-06
TCutDOij:          1.000e-05
TCutDO:            5.000e-03
TCutC:             1.000e-04
TCutCPAO:          1.000e-03
TCutCMO:           1.000e-03
TScaleDOMP2PreScr: 2.000e+00
TScaleMKNMP2PreScr:1.000e+01
TScalePNOMP2PreScr:1.000e+00
PAO overlap thresh 1.000e-08
Using PNOs for Singles Fock computation
Use new domains
Use fully linear algorithm
TCutTNO:           1.000e-09
[...]
LOCAL RI TRANSFORMATION (IAVPAO)
--------------------------------

Orbital window:      16 to 50
Number of PAOs:     267
Basis functions:    267 (131 shells)
Aux. functions:     958 (336 shells)

Processing maps (0.0 sec)
Average map sizes:
   Aux shells -> MOs              35.0
   Aux shells -> PAOs            267.0
   MOs        -> AO shells       122.2
   PAOs       -> AO shells       131.0

Calculating integrals (1.3 sec, 68.313 MB)
Sorting integrals (0.1 sec, 68.303 MB)
Total time for the integral transformation: 1.4 sec
--------------------------------
INITIAL GUESS AND PNO GENERATION
--------------------------------

PNO truncation parameters                   .... 
    ScaleTCutPNO       =        1.000e-02
    PAOOverlapThresh   =        1.000e-08

    TCutPairs          =        1.000e-05
    TCutPNO            =        1.000e-07
    TCutPNOSingles     =        3.000e-09
    TCutMP2Pairs       =        1.000e-06
    TCutMKN            =        1.000e-03
    TCutDO             =        5.000e-03

Pair selection                          .... not used
Type of local MP2 treatment                 .... full local PMP2
Strategy for PNO selection                  .... occupation number selection
Pair density normalization                  .... MP2 norm
Spin component scaling                      .... not used

PASS-1: Formation of initial guess LMP2 amplitudes
Initial amplitudes guess done. Entering LMP2 iteration loop:
   Max. no of iterations          ...  50
   Energy convergence tolerance   ...    1.0e-07
   Residual convergence tolerance ...    5.0e-07
   Fock matrix cutoff             ...    1.0e-05 Eh
   DIIS convergence acceleration parameters:
        Max # vectors in DIIS     ... 7
        Start iteration of DIIS   ... 0
        Levelshift                ... 2.000e-01
        Damping factor 1          ... 5.000e-01
        Damping factor 2          ... 1.000e+00
   L-MP2 PNO cut-off              ...   1.0e-09
   L-MP2 PNO cut-off (core)       ...   1.0e-11
                           *** Turning on DIIS ***
LMP2-Iter=   0:  ELMP2= -1.681866946845  DE=   3.9e-02 RMAX=   7.8e-03
LMP2-Iter=   1:  ELMP2= -1.700402600079  DE=   1.9e-02 RMAX=   5.2e-03
LMP2-Iter=   2:  ELMP2= -1.703305816147  DE=   2.9e-03 RMAX=   9.3e-04
LMP2-Iter=   3:  ELMP2= -1.703539125127  DE=   2.3e-04 RMAX=   4.4e-04
LMP2-Iter=   4:  ELMP2= -1.703548874571  DE=   9.7e-06 RMAX=   5.7e-05
LMP2-Iter=   5:  ELMP2= -1.703546218957  DE=   2.7e-06 RMAX=   2.4e-05
LMP2-Iter=   6:  ELMP2= -1.703545772464  DE=   4.5e-07 RMAX=   1.9e-06
LMP2-Iter=   7:  ELMP2= -1.703545746374  DE=   2.6e-08 RMAX=   7.0e-07
LMP2-Iter=   8:  ELMP2= -1.703545757241  DE=   1.1e-08 RMAX=   7.3e-08 => CONVERGED
PASS-2: Formation of Pair natural orbitals
   .... Finished loop over pairs

 PNO Occupation Number Statistics: 
  | Av. % of trace(Dij) retained        ...  99.098383179769
  | sigma^2 in % of trace(Dij) retained ...   1.33e+00
  | Av. % of trace(Di) retained         ...  99.999812360827
  | sigma^2 in % of trace(Di) retained  ...   4.01e-09
 Distributions of % trace(Dij) recovered:
  |       >= 99.9  ...   149 ( 23.7 % of all pairs)
  |   [90.0, 99.0) ...   189 ( 30.0 % of all pairs)
  |   [99.0, 99.9) ...   292 ( 46.3 % of all pairs)
 Distributions of % trace(Di) recovered :
  |       >= 99.9  ...    35 (100.0 % of all I-pairs )

Making pair pair interaction lists          ... done

                       ===========================
                        573 OF  630 PAIRS ARE KEPT
                       ===========================

Total time spent in the initial guess                 ...    68.203 sec
L-MP2 correlation energy (all non-screened pairs)     ...      -1.703545757241 Eh
L-MP2 PNO error correction                            ...      -0.000028523581 Eh
                                                          --------------------
Initial total L-MP2 energy (non-screened pairs)       ...      -1.703574280822 Eh

Initial PNO correlation energy                        ...      -1.702211825759 Eh
sum of pair energies estimated for screened out pairs ...       0.000000000000 Eh
sum of MP2 pair energies for pairs that were not kept ...      -0.000534313410 Eh
sum of PNO error estimates for the kept pairs         ...      -0.001116509185 Eh
                                                          --------------------
sum of all corrections                                         -0.001650822595
Initial total correlation energy                               -1.703862648354
Thresholds for map construction and integral transformation for fine MP2 and CCSD(T) calculation:
   TCutMKN   ...     1.0e-03
   TCutDO    ...     5.0e-03
   TCutPairs ...     1.0e-05
   TCutCMO   ...     1.0e-03
   TCutCPAO  ...     1.0e-03

Time for aux screen maps:            0.014
Time for maps after fine MP2:            0.047
-----------------------------
LOCAL RI TRANSFORMATION (IJV)
-----------------------------

Orbital window:      16 to 50
Basis functions:    267 (131 shells)
Aux. functions:     958 (336 shells)

Processing maps (0.0 sec)
Average map sizes:
   Aux shells -> MOs(i)           35.0
   Aux shells -> MOs(j)           35.0
   MOs        -> AO shells       122.2

Calculating integrals (1.2 sec, 8.964 MB)
Sorting integrals (0.0 sec, 8.954 MB)
Total time for the integral transformation: 1.3 sec
--------------------------------
LOCAL RI TRANSFORMATION (VABPAO)
--------------------------------

Number of PAOs:     267
Basis functions:    267 (131 shells)
Aux. functions:     958 (336 shells)

Processing maps (0.0 sec)
Average map sizes:
   Aux shells -> PAOs            267.0
   PAOs       -> AO shells       131.0

Calculating integrals (2.4 sec, 925.724 MB)
Finished


-------------------------------------
Pair Pair Term precalculation with     
RI-(ij|mn) and (im|jn) transformation  
ON THE FLY                             
-------------------------------------

   IBatch   1 (of   4)              ... done (   43.267 sec)
   IBatch   2 (of   4)              ... done (   47.488 sec)
   IBatch   3 (of   4)              ... done (   52.657 sec)
   IBatch   4 (of   4)              ... done (   31.366 sec)
Total EXT                           ...         174.778 sec

---------------------
RI-PNO TRANSFORMATION
---------------------

Total Number of PNOs                   ... 14667
Average number of PNOs per pair        ...    25
Maximal number of PNOs per pair        ...    47
   #pairs with  1 -  5 PNOs   :    0
   #pairs with  6 - 10 PNOs   :   76
   #pairs with 11 - 15 PNOs   :   53
   #pairs with 16 - 20 PNOs   :   37
   #pairs with 21 - 25 PNOs   :  131
   #pairs with 26 - 30 PNOs   :   69
   #pairs with 31 - 35 PNOs   :   83
   #pairs with 36 - 40 PNOs   :   90
   #pairs with 41 - 45 PNOs   :   25
   #pairs with 46 - 50 PNOs   :    9

Generation of (ij|ab)[P] integrals            ... on
Generation of (ia|bc)[P],(ja|bc)[P] integrals ... on
Storage of 3 and 4 external integrals         ... on
Generation of ALL (ka|bc)[P] integrals        ... on
Keep RI integrals in memory                   ... off

Ibatch:  1 (of  1)
Starting 2-4 index PNO integral generation ... done

Timings:
Total PNO integral transformation time     ...         45.838 sec
Size of the 3-external file                ...       113 MB
Size of the 4-external file                ...       511 MB
Size of the IKJL file                      ...         1 MB
Size of the all 3-external file            ...      1992 MB
Size of the 1-external file                ...        11 MB

Making pair/pair overlap matrices          ... done (   13.177 sec)
Size of the pair overlap file              ... 1023 MB
Redoing the guess amplitudes               ... done (    0.004 sec)

-------------------------
FINAL STARTUP INFORMATION
-------------------------

E(0)                                       ...   -887.150800246
E(L-MP2)                                   ...     -1.703574281
E(L-MP2) including corrections             ...     -1.703862648
Initial E(tot)                             ...   -888.854662894
<T|T>                                      ...      0.540213919
Number of pairs included                   ... 573
Total number of pairs                      ... 630

------------------------------------------------
                  RHF COUPLED CLUSTER ITERATIONS
------------------------------------------------

Number of PNO amplitudes to be optimized   ...       439717
Number of non-PNO amplitudes               ...     26733888
Untruncated number of regular amplitudes   ...     29393280

Iter       E(tot)           E(Corr)          Delta-E          Residual     Time
  0   -888.793301396     -1.640850327      0.062723954      0.020312703   15.51
                           *** Turning on DIIS ***
  1   -888.915829941     -1.763378873     -0.122528546      0.010507423   15.55
  2   -888.972571849     -1.820120781     -0.056741908      0.003492087   15.57
  3   -888.979824221     -1.827373153     -0.007252372      0.001931376   15.54
  4   -888.981289825     -1.828838756     -0.001465603      0.000618407   15.54
  5   -888.981548406     -1.829097338     -0.000258582      0.000306603   15.55
  6   -888.981603618     -1.829152550     -0.000055212      0.000135936   15.53
  7   -888.981611423     -1.829160355     -0.000007805      0.000064469   15.53
  8   -888.981611862     -1.829160793     -0.000000438      0.000020135   15.52
  9   -888.981611536     -1.829160467      0.000000326      0.000005609   15.43
               --- The Coupled-Cluster iterations have converged ---

----------------------
COUPLED CLUSTER ENERGY
----------------------

E(0)                                       ...   -887.150800246
E(CORR)(strong-pairs)                      ...     -1.829160467
E(CORR)(weak-pairs)                        ...     -0.001650823
E(CORR)(corrected)                         ...     -1.830811290
E(TOT)                                     ...   -888.981611536
Singles Norm <S|S>**1/2                    ...      0.066999212  
T1 diagnostic                              ...      0.008007938  

------------------
LARGEST AMPLITUDES
------------------
  30-> 51  30-> 51       0.063639
  45-> 60  45-> 60       0.042823
  48-> 60  48-> 60       0.042823
  50-> 60  50-> 60       0.040487
  46-> 60  46-> 60       0.040487
  32-> 60  32-> 60       0.040356
  33-> 60  33-> 60       0.040356
  42-> 60  42-> 60       0.040347
  37-> 60  37-> 60       0.040347
  38-> 60  38-> 60       0.039591
  41-> 60  41-> 60       0.039591
  43-> 60  43-> 60       0.038644
  40-> 60  40-> 60       0.038644
  49-> 60  49-> 60       0.038300
  47-> 60  47-> 60       0.038300
  39-> 60  39-> 60       0.037009


-------------------------------------------
DLPNO BASED TRIPLES CORRECTION
-------------------------------------------

Singles multiplier          ...  1.000000
TCutTNO                     ... 1.000e-09
TCutMP2Pairs                ... 1.000e-06
TCutDOStrong                ... 1.000e-02
TCutMKNStrong               ... 1.000e-02
TCutDOWeak                  ... 2.000e-02
TCutMKNWeak                 ... 1.000e-01

Fragment selection                          .... not used
Number of Triples that are to be computed   ...      7297

 . . . . . . . . .
10% done  
20% done  
30% done  
40% done  
50% done               (    291.378 sec)
 . . . . . . . . .
60% done  
70% done  
80% done  
90% done               (    158.478 sec)
Triples timings:
Total time for T0               ...   492.312 sec
Total time for Iterative (T)    ...     0.000 sec
Total time of overall (T)       ...   510.546 sec

Triples List generation         ...     0.000 sec
TNO generation                  ...    42.445 sec
Pair density generation         ...     0.006 sec
Look up tables                  ...     0.000 sec
Generating 3-index integrals    ...   280.780 sec
  Make 4-ind.int. from 3-ind.int...    43.307 sec
  Projecting amplitudes (D + S) ...    78.916 sec
  Downprojecting integrals      ...     0.013 sec
  Energy contr. (sum over a,b,c)...    12.848 sec
Fitting ET(->0)                 ...     0.000 sec

Everything after 3-index        ...   169.075 sec

Timing details:
 TNO integrals                  ...   319.048 sec
   Reading 3-index integrals    ...     0.375 sec
   Sorting integrals            ...    43.504 sec
       Sorting integrals 1      ...     0.011 sec
       Sorting integrals 2      ...    27.032 sec
       Sorting integrals 3      ...     1.962 sec
       Sorting integrals 4      ...     0.390 sec
       Sorting integrals 5      ...     0.768 sec
       Sorting integrals 6      ...    13.341 sec
   Calculating local VM**-1/2   ...     2.606 sec
   Orthogonal. integrals        ...     3.488 sec
   Multipl. 3-index integrals   ...   269.075 sec
   All concerning IRIab (w/TNO) ...    21.874 sec

 Calculate W0/W1                ...    33.938 sec
 W 3-ext contribution           ...    16.685 sec
 W 3-int contribution           ...     8.406 sec
 Sorting W                      ...     8.159 sec

 V exchange contribution        ...     5.043 sec

 Timings for Triples without generation
     of 3-index integrals       ...   169.050 sec
       0 weak pairs             ...   153.143 sec
       1 weak pair              ...    15.907 sec
       2 weak pairs             ...     0.000 sec
       3 weak pairs             ...     0.000 sec
  Extra time for extrapolation  ...     0.000 sec

Number of Triples   (0, 1, 2, 3 weak pairs; overall):   6064    1233       0       0  (  7297)
Number of Atoms     (0, 1, 2, 3 weak pairs; overall):   26.2    21.1     0.0     0.0  (    31)
Number of PAOs      (0, 1, 2, 3 weak pairs; overall):  235.6   207.1     0.0     0.0  (   267)
Number of AuxFcns   (0, 1, 2, 3 weak pairs; overall):  316.4   236.4     0.0     0.0  (   958)
Number of TNOs      (0, 1, 2, 3 weak pairs         ):   65.3    49.8     0.0     0.0
Aver. Number of NTNO, Atoms, PAOs, AuxFcns / Triples:   7297    62.7    25.3   230.8   302.9

Triples Correction (T)                     ...     -0.059688287
Final correlation energy                   ...     -1.890499577
E(CCSD)                                    ...   -888.981611536
E(CCSD(T))                                 ...   -889.041299823


Maximum memory used throughout the entire calculation: 8137.7 MB


------------------------------------------------------------------------------- 
                                     TIMINGS                                   
------------------------------------------------------------------------------- 


Total execution time                   ...      989.253 sec

Localization of occupied MO's          ...        0.821 sec (  0.1%)
Fock Matrix Formation                  ...        6.918 sec (  0.7%)
Global overlap, Fock, MKN matrices     ...        0.179 sec (  0.0%)
Differential overlap integrals         ...        0.364 sec (  0.0%)
Organizing maps                        ...        0.141 sec (  0.0%)
RI 3-index integral generations        ...        6.647 sec (  0.7%)
RI-PNO integral transformation         ...      234.284 sec ( 23.7%)
Initial Guess                          ...       73.165 sec (  7.4%)
DIIS Solver                            ...       17.209 sec (  1.7%)
State Vector Update                    ...        0.037 sec (  0.0%)
Sigma-vector construction              ...      154.900 sec ( 15.7%)
  <0|H|D>                              ...        0.002 sec (  0.0% of sigma)
  <D|H|D>(0-ext)                       ...       15.457 sec ( 10.0% of sigma)
  <D|H|D>(2-ext Fock)                  ...        0.033 sec (  0.0% of sigma)
  <D|H|D>(2-ext)                       ...       39.565 sec ( 25.5% of sigma)
  <D|H|D>(4-ext)                       ...        6.058 sec (  3.9% of sigma)
  <D|H|D>(4-ext-corr)                  ...       37.803 sec ( 24.4% of sigma)
  CCSD doubles correction              ...        0.920 sec (  0.6% of sigma)
  <S|H|S>                              ...        0.914 sec (  0.6% of sigma)
  <S|H|D>(1-ext)                       ...        1.403 sec (  0.9% of sigma)
  <D|H|S>(1-ext)                       ...        0.047 sec (  0.0% of sigma)
  <S|H|D>(3-ext)                       ...        0.451 sec (  0.3% of sigma)
  Fock-dressing                        ...       31.387 sec ( 20.3% of sigma)
  Singles amplitudes                   ...        1.050 sec (  0.7% of sigma)
  (ik|jl)-dressing                     ...       11.214 sec (  7.2% of sigma)
  (ij|ab),(ia|jb)-dressing             ...        6.132 sec (  4.0% of sigma)
  Pair energies                        ...        0.012 sec (  0.0% of sigma)
Total Time for computing (T)           ...      510.734 sec ( 51.6% of ALL)


-------------------------   --------------------
FINAL SINGLE POINT ENERGY      -889.041299823112
-------------------------   --------------------


                            ***************************************
                            *     ORCA property calculations      *
                            ***************************************

                                    ---------------------
                                    Active property flags
                                    ---------------------
   (+) Dipole Moment


------------------------------------------------------------------------------
                       ORCA ELECTRIC PROPERTIES CALCULATION
------------------------------------------------------------------------------

Dipole Moment Calculation                       ... on
Quadrupole Moment Calculation                   ... off
Polarizability Calculation                      ... off
GBWName                                         ... bicyclooctyl_CMe2Cl.gbw
Electron density file                           ... bicyclooctyl_CMe2Cl.scfp.tmp
The origin for moment calculation is the CENTER OF MASS  = ( 0.135251,  0.038987  0.000000)

-------------
DIPOLE MOMENT
-------------
                                X             Y             Z
Electronic contribution:     12.81477       3.98549      -0.00000
Nuclear contribution   :    -13.79531      -3.97654       0.00000
                        -----------------------------------------
Total Dipole Moment    :     -0.98054       0.00895      -0.00000
                        -----------------------------------------
Magnitude (a.u.)       :      0.98058
Magnitude (Debye)      :      2.49244



--------------------
Rotational spectrum 
--------------------
 
Rotational constants in cm-1:     0.047192     0.020300     0.019249 
Rotational constants in MHz :  1414.793367   608.567415   577.083577 

 Dipole components along the rotational axes: 
x,y,z [a.u.] :    -0.583049     0.788414    -0.000000 
x,y,z [Debye]:    -1.481992     2.003989    -0.000000 

 

Timings for individual modules:

Sum of individual times         ...     1077.768 sec (=  17.963 min)
GTO integral calculation        ...       50.962 sec (=   0.849 min)   4.7 %
SCF iterations                  ...       37.135 sec (=   0.619 min)   3.4 %
MDCI module                     ...      989.670 sec (=  16.495 min)  91.8 %
                             ****ORCA TERMINATED NORMALLY****
TOTAL RUN TIME: 0 days 0 hours 17 minutes 58 seconds 50 msec
bicyclooctyl_CMe2Cl.gbw -> /home1/pantazis/klk/VDZ/Energy_barrier/bicyclooctyl_CMe2Cl.gbw
bicyclooctyl_CMe2Cl.ges -> /home1/pantazis/klk/VDZ/Energy_barrier/bicyclooctyl_CMe2Cl.ges
bicyclooctyl_CMe2Cl.job -> /home1/pantazis/klk/VDZ/Energy_barrier/bicyclooctyl_CMe2Cl.job
bicyclooctyl_CMe2Cl.loc -> /home1/pantazis/klk/VDZ/Energy_barrier/bicyclooctyl_CMe2Cl.loc
bicyclooctyl_CMe2Cl.nodes -> /home1/pantazis/klk/VDZ/Energy_barrier/bicyclooctyl_CMe2Cl.nodes
bicyclooctyl_CMe2Cl.prop -> /home1/pantazis/klk/VDZ/Energy_barrier/bicyclooctyl_CMe2Cl.prop
bicyclooctyl_CMe2Cl_property.txt -> /home1/pantazis/klk/VDZ/Energy_barrier/bicyclooctyl_CMe2Cl_property.txt
bicyclooctyl_CMe2Cl.xyz -> /home1/pantazis/klk/VDZ/Energy_barrier/bicyclooctyl_CMe2Cl.xyz
cp: cannot stat bicyclooctyl_CMe2Cl.asa.inp: No such file or directory
