! Job execution by suborca V 6.07 on ZEUS !
Job started from zeus1, running /scratch/pantazis/bicyclooctyl_CMe2Cl_ts__OoWCqr/orca/orca copied from /opt/orca on zeussn129 in /scratch/pantazis/bicyclooctyl_CMe2Cl_ts__OoWCqr
Job execution start: Sat Jun 29 10:49:13 CEST 2019
Shared library path: /scratch/pantazis/bicyclooctyl_CMe2Cl_ts__OoWCqr/orca:/opt/openmpi_1.10.2/lib:/opt/intel/mkl/lib/intel64:/opt/intel/lib/intel64:
PBS Job ID is: 158722.icqc
izeussn129
izeussn129
izeussn129
izeussn129

                                 *****************
                                 * O   R   C   A *
                                 *****************

           --- An Ab Initio, DFT and Semiempirical electronic structure package ---

                  #######################################################
                  #                        -***-                        #
                  #          Department of theory and spectroscopy      #
                  #               Directorship: Frank Neese             #
                  #        Max Planck Institute fuer Kohlenforschung    #
                  #                Kaiser Wilhelm Platz 1               #
                  #                 D-45470 Muelheim/Ruhr               #
                  #                      Germany                        #
                  #                                                     #
                  #                  All rights reserved                #
                  #                        -***-                        #
                  #######################################################


                         Program Version 4.1.x  -  STABLE  -
                                (SVN: $Rev: 14094$)
                ($Date: 2019-06-14 15:01:15 +0200 (Fri, 14 Jun 2019) $)

                         (BUILD: $Sun Jun 23 06:18:31 CEST 2019$)


 With contributions from (in alphabetic order):
   Daniel Aravena         : Magnetic Properties
   Michael Atanasov       : Ab Initio Ligand Field Theory
   Alexander A. Auer      : GIAO ZORA
   Ute Becker             : Parallelization
   Giovanni Bistoni       : ED, Open-shell LED
   Martin Brehm           : Molecular dynamics
   Dmytro Bykov           : SCF Hessian
   Vijay G. Chilkuri      : MRCI spin determinant printing
   Dipayan Datta          : RHF DLPNO-CCSD density
   Achintya Kumar Dutta   : EOM-CC, STEOM-CC
   Dmitry Ganyushin       : Spin-Orbit,Spin-Spin,Magnetic field MRCI
   Miquel Garcia          : C-PCM Hessian
   Yang Guo               : DLPNO-NEVPT2, CIM, IAO-localization
   Andreas Hansen         : Spin unrestricted coupled pair/coupled cluster methods
   Benjamin Helmich-Paris : CASSCF linear response (MC-RPA)
   Lee Huntington         : MR-EOM, pCC
   Robert Izsak           : Overlap fitted RIJCOSX, COSX-SCS-MP3, EOM
   Christian Kollmar      : KDIIS, OOCD, Brueckner-CCSD(T), CCSD density
   Simone Kossmann        : Meta GGA functionals, TD-DFT gradient, OOMP2, MP2 Hessian
   Martin Krupicka        : AUTO-CI
   Lucas Lang             : DCDCAS
   Dagmar Lenk            : GEPOL surface, SMD
   Dimitrios Liakos       : Extrapolation schemes; parallel MDCI
   Dimitrios Manganas     : ROCIS; embedding schemes
   Dimitrios Pantazis     : SARC Basis sets
   Taras Petrenko         : DFT Hessian,TD-DFT gradient, ASA, ECA, R-Raman, ABS, FL, XAS/XES, NRVS
   Peter Pinski           : DLPNO-MP2, DLPNO-MP2 Gradient
   Christoph Reimann      : Effective Core Potentials
   Marius Retegan         : Local ZFS, SOC
   Christoph Riplinger    : Optimizer, TS searches, QM/MM, DLPNO-CCSD(T), (RO)-DLPNO pert. Triples
   Tobias Risthaus        : Range-separated hybrids, TD-DFT gradient, RPA, STAB
   Michael Roemelt        : Restricted open shell CIS
   Masaaki Saitow         : Open-shell DLPNO
   Barbara Sandhoefer     : DKH picture change effects
   Avijit Sen             : IP-ROCIS
   Kantharuban Sivalingam : CASSCF convergence, NEVPT2, FIC-MRCI
   Bernardo de Souza      : ESD, SOC TD-DFT
   Georgi Stoychev        : AutoAux, RI-MP2 NMR
   Willem Van den Heuvel  : Paramagnetic NMR
   Boris Wezisla          : Elementary symmetry handling
   Frank Wennmohs         : Technical directorship


 We gratefully acknowledge several colleagues who have allowed us to
 interface, adapt or use parts of their codes:
   Stefan Grimme, W. Hujo, H. Kruse,             : VdW corrections, initial TS optimization,
                  C. Bannwarth                     DFT functionals, gCP, sTDA/sTD-DF
   Ed Valeev                                     : LibInt (2-el integral package), F12 methods
   Garnet Chan, S. Sharma, J. Yang, R. Olivares  : DMRG
   Ulf Ekstrom                                   : XCFun DFT Library
   Mihaly Kallay                                 : mrcc  (arbitrary order and MRCC methods)
   Andreas Klamt, Michael Diedenhofen            : otool_cosmo (COSMO solvation model)
   Jiri Pittner, Ondrej Demel                    : Mk-CCSD
   Frank Weinhold                                : gennbo (NPA and NBO analysis)
   Christopher J. Cramer and Donald G. Truhlar   : smd solvation model
   Lars Goerigk                                  : TD-DFT with DH, B97 family of functionals
   V. Asgeirsson, H. Jonsson                     : NEB implementation
   FAccTs GmbH                                   : IRC, NEB, NEB-TS, Multilevel


 Your calculation uses the libint2 library for the computation of 2-el integrals
 For citations please refer to: http://libint.valeyev.net

 This ORCA versions uses:
   CBLAS   interface :  Fast vector & matrix operations
   LAPACKE interface :  Fast linear algebra routines
   SCALAPACK package :  Parallel linear algebra routines




***************************************
The coordinates will be read from file: bicyclooctyl_CMe2Cl_ts.xyz
***************************************


----- Orbital basis set information -----
Your calculation utilizes the basis: cc-pVDZ 
       H, B-Ne : Obtained from the ccRepo (grant-hill.group.shef.ac.uk/ccrepo) Feb. 2017
                 T. H. Dunning, Jr., J. Chem. Phys. 90, 1007 (1989)
            He : Obtained from the ccRepo (grant-hill.group.shef.ac.uk/ccrepo) Feb. 2017
                 D. E. Woon, T. H. Dunning, Jr., J. Chem. Phys. 100, 2975 (1994)
  Li-Be, Na-Mg : Obtained from the ccRepo (grant-hill.group.shef.ac.uk/ccrepo) Feb. 2017
                 B. P. Prascher, D. E. Woon, K. A. Peterson, T. H. Dunning, Jr., A. K. Wilson, Theor. Chem. Acc. 128, 69 (2011)
         Al-Ar : Obtained from the ccRepo (grant-hill.group.shef.ac.uk/ccrepo) Feb. 2017
                 D. E. Woon, T. H. Dunning, Jr., J. Chem. Phys. 98, 1358 (1993)
            Ca : Obtained from the Peterson Research Group Website (tyr0.chem.wsu.edu/~kipeters) Feb. 2017
                 J. Koput, K. A. Peterson, J. Phys. Chem. 106, 9595 (2002)
         Sc-Zn : Obtained from the ccRepo (grant-hill.group.shef.ac.uk/ccrepo) Feb. 2017
                 N. B. Balabanov, K. A. Peterson, J. Chem. Phys. 123, 064107 (2005)
                 N. B. Balabanov, K. A. Peterson, J. Chem. Phys. 125, 074110 (2006)
         Ga-Kr : Obtained from the ccRepo (grant-hill.group.shef.ac.uk/ccrepo) Feb. 2017
                 A. K. Wilson, D. E. Woon, K. A. Peterson, T. H. Dunning, Jr., J. Chem. Phys. 110, 7667 (1999)

----- AuxC basis set information -----
Your calculation utilizes the auxiliary basis: cc-pVDZ/C 
  H-He, B, Ne, Al-Ar, Ga-Br : Obtained from the EMSL Basis Set Exchange (bse.pnl.gov) Feb. 2017
                              F. Weigend, A. Kohn, C. Hattig, J. Chem. Phys. 116, 3175 (2002)
               Li-Be, Na-Mg : Obtained from the EMSL Basis Set Exchange (bse.pnl.gov) Feb. 2017
                              C. Haettig, Phys. Chem. Chem. Phys. 7, 59 (2005)
                        C-F : Obtained from the EMSL Basis Set Exchange (bse.pnl.gov) Feb. 2017
                              C. Haettig, Phys. Chem. Chem. Phys. 7, 59 (2005)
                              F. Weigend, A. Kohn, C. Hattig, J. Chem. Phys. 116, 3175 (2002)
                         Kr : Obtained from the TURBOMOLE 7.0 basis set library
                              F. Weigend, A. Kohn, C. Hattig, J. Chem. Phys. 116, 3175 (2002)
                              S function revised in Sep. 2009

----- AuxJK basis set information -----
Your calculation utilizes the auxiliary basis: cc-pVTZ/JK 
  H, B-F, Al-Cl, Ga-Br : Obtained from the TURBOMOLE 7.0 basis set library

================================================================================
                                        WARNINGS
                       Please study these warnings very carefully!
================================================================================


WARNING: MDCI localization with Augmented Hessian Foster-Boys
  ===> : Switching off randomization!

WARNING: Post HF methods need fully converged wavefunctions
  ===> : Setting SCFConvForced true
         You can overwrite this default with %scf ConvForced false 


INFO   : the flag for use of LIBINT has been found!

================================================================================
                                       INPUT FILE
================================================================================
NAME = bicyclooctyl_CMe2Cl_ts.inp
|  1> ! RHF DLPNO-CCSD(T) cc-pVDZ RIJK cc-pVTZ/JK cc-pVDZ/C
|  2> ! KDIIS SOSCF TightSCF TightPNO
|  3> 
|  4> %pal nprocs 4 end
|  5> 
|  6> %maxcore 8000
|  7> 
|  8> %scf maxiter 300
|  9>      shift shift 0.2 erroff 0.1 end
| 10> end
| 11> 
| 12> * xyzfile 0 1 bicyclooctyl_CMe2Cl_ts.xyz 
| 13> 
| 14> 
| 15>                          ****END OF INPUT****
================================================================================

                       ****************************
                       * Single Point Calculation *
                       ****************************

---------------------------------
CARTESIAN COORDINATES (ANGSTROEM)
---------------------------------
  C     -2.310300   -0.717500   -1.145400
  C     -0.757400   -0.801400   -1.239900
  C     -2.719100    0.219600    0.000400
  C     -0.075100   -0.142200   -0.003300
  C     -1.994700    1.561200   -0.179400
  C     -0.458000    1.366100   -0.025600
  C     -2.267300   -0.405600    1.327900
  C     -0.750600   -0.754600    1.262700
  C      1.517900   -0.397200    0.003200
  C      2.049400   -1.117300   -1.246500
  Cl     2.475900    1.230900    0.001800
  C      2.050400   -1.129500    1.243000
  H     -2.736400   -1.714000   -0.974400
  H     -2.726300   -0.359500   -2.094500
  H     -0.414300   -0.300400   -2.150900
  H     -0.459300   -1.849900   -1.327800
  H     -3.805800    0.368200    0.000200
  H     -2.357900    2.287900    0.557000
  H     -2.230400    1.975500   -1.167600
  H     -0.102800    1.837800    0.895500
  H      0.063100    1.867600   -0.844000
  H     -2.852600   -1.308100    1.541500
  H     -2.463000    0.294400    2.149600
  H     -0.623200   -1.843000    1.254100
  H     -0.257000   -0.388800    2.166400
  H      3.138800   -1.180300   -1.194100
  H      1.656000   -2.138000   -1.295100
  H      1.786300   -0.598700   -2.170000
  H      3.132100   -1.255200    1.153400
  H      1.852500   -0.586300    2.168200
  H      1.599300   -2.124600    1.319000

----------------------------
CARTESIAN COORDINATES (A.U.)
----------------------------
  NO LB      ZA    FRAG     MASS         X           Y           Z
   0 C     6.0000    0    12.011   -4.365834   -1.355879   -2.164492
   1 C     6.0000    0    12.011   -1.431279   -1.514427   -2.343071
   2 C     6.0000    0    12.011   -5.138354    0.414984    0.000756
   3 C     6.0000    0    12.011   -0.141918   -0.268719   -0.006236
   4 C     6.0000    0    12.011   -3.769437    2.950240   -0.339017
   5 C     6.0000    0    12.011   -0.865495    2.581555   -0.048377
   6 C     6.0000    0    12.011   -4.284576   -0.766473    2.509367
   7 C     6.0000    0    12.011   -1.418428   -1.425987    2.386157
   8 C     6.0000    0    12.011    2.868415   -0.750599    0.006047
   9 C     6.0000    0    12.011    3.872805   -2.111391   -2.355544
  10 Cl   17.0000    0    35.453    4.678773    2.326064    0.003402
  11 C     6.0000    0    12.011    3.874694   -2.134446    2.348930
  12 H     1.0000    0     1.008   -5.171047   -3.238991   -1.841349
  13 H     1.0000    0     1.008   -5.151960   -0.679357   -3.958031
  14 H     1.0000    0     1.008   -0.782914   -0.567674   -4.064612
  15 H     1.0000    0     1.008   -0.867951   -3.495804   -2.509178
  16 H     1.0000    0     1.008   -7.191920    0.695797    0.000378
  17 H     1.0000    0     1.008   -4.455785    4.323504    1.052577
  18 H     1.0000    0     1.008   -4.214845    3.733154   -2.206444
  19 H     1.0000    0     1.008   -0.194264    3.472939    1.692250
  20 H     1.0000    0     1.008    0.119242    3.529253   -1.594929
  21 H     1.0000    0     1.008   -5.390633   -2.471951    2.913013
  22 H     1.0000    0     1.008   -4.654395    0.556335    4.062155
  23 H     1.0000    0     1.008   -1.177677   -3.482765    2.369906
  24 H     1.0000    0     1.008   -0.485660   -0.734726    4.093903
  25 H     1.0000    0     1.008    5.931472   -2.230444   -2.256522
  26 H     1.0000    0     1.008    3.129386   -4.040234   -2.447384
  27 H     1.0000    0     1.008    3.375618   -1.131379   -4.100706
  28 H     1.0000    0     1.008    5.918811   -2.371984    2.179610
  29 H     1.0000    0     1.008    3.500718   -1.107946    4.097304
  30 H     1.0000    0     1.008    3.022239   -4.014912    2.492549

--------------------------------
INTERNAL COORDINATES (ANGSTROEM)
--------------------------------
 C      0   0   0     0.000000000000     0.00000000     0.00000000
 C      1   0   0     1.558033334046     0.00000000     0.00000000
 C      1   2   0     1.535620880947   110.08734745     0.00000000
 C      2   1   3     1.558607548423   111.43358103    10.68596061
 C      3   1   2     1.535243941529   108.67952122    52.60363697
 C      4   2   1     1.556302859343   106.90731389   296.89084230
 C      3   1   2     1.535335315167   108.56078982   294.70513828
 C      7   3   1     1.557700526417   109.97231537    53.02553761
 C      4   2   1     1.613293603161   111.62940451   172.42104028
 C      9   4   2     1.537135761733   114.34278709     4.98214036
 Cl     9   4   2     1.889040912739   111.37837690   121.44436326
 C      9   4   2     1.535227533625   114.90657170   238.89336905
 H      1   2   3     1.097184788447   110.34197940   238.96832115
 H      1   2   3     1.096362535843   110.07584545   121.70182537
 H      2   1   3     1.094824008688   109.76593982   249.54371471
 H      2   1   3     1.093591454795   109.15923819   132.98814133
 H      3   1   2     1.096813060644   110.26108455   173.77468683
 H      5   3   1     1.096490807075   110.13348413   173.36909267
 H      5   3   1     1.097150044433   109.51805230    56.60660051
 H      6   4   2     1.094117516540   109.01950786   172.90504880
 H      6   4   2     1.092165747494   109.77732190   288.78026880
 H      7   3   1     1.096680126564   110.27090545   291.44107432
 H      7   3   1     1.097036635669   109.59068431   174.51691305
 H      8   7   3     1.095864626676   109.63614525   249.01046443
 H      8   7   3     1.092759941616   109.28068827   132.45799774
 H     10   9   4     1.092477514643   109.43995777   175.72227599
 H     10   9   4     1.094967583995   110.39865459   294.28908927
 H     10   9   4     1.091338545090   112.45754393    55.73822650
 H     12   9   4     1.092658931232   109.39187423   179.91710644
 H     12   9   4     1.090974651401   112.60895978   299.81484688
 H     12   9   4     1.095212865155   110.27776032    61.28477405

---------------------------
INTERNAL COORDINATES (A.U.)
---------------------------
 C      0   0   0     0.000000000000     0.00000000     0.00000000
 C      1   0   0     2.944256308868     0.00000000     0.00000000
 C      1   2   0     2.901902910520   110.08734745     0.00000000
 C      2   1   3     2.945341416781   111.43358103    10.68596061
 C      3   1   2     2.901190598251   108.67952122    52.60363697
 C      4   2   1     2.940986185597   106.90731389   296.89084230
 C      3   1   2     2.901363269404   108.56078982   294.70513828
 C      7   3   1     2.943627393593   109.97231537    53.02553761
 C      4   2   1     3.048683083581   111.62940451   172.42104028
 C      9   4   2     2.904765620333   114.34278709     4.98214036
 Cl     9   4   2     3.569769980848   111.37837690   121.44436326
 C      9   4   2     2.901159591806   114.90657170   238.89336905
 H      1   2   3     2.073378768470   110.34197940   238.96832115
 H      1   2   3     2.071824936235   110.07584545   121.70182537
 H      2   1   3     2.068917541262   109.76593982   249.54371471
 H      2   1   3     2.066588351959   109.15923819   132.98814133
 H      3   1   2     2.072676304726   110.26108455   173.77468683
 H      5   3   1     2.072067333734   110.13348413   173.36909267
 H      5   3   1     2.073313111798   109.51805230    56.60660051
 H      6   4   2     2.067582464587   109.01950786   172.90504880
 H      6   4   2     2.063894155614   109.77732190   288.78026880
 H      7   3   1     2.072425095720   110.27090545   291.44107432
 H      7   3   1     2.073098800293   109.59068431   174.51691305
 H      8   7   3     2.070884024270   109.63614525   249.01046443
 H      8   7   3     2.065017019773   109.28068827   132.45799774
 H     10   9   4     2.064483310142   109.43995777   175.72227599
 H     10   9   4     2.069188859272   110.39865459   294.28908927
 H     10   9   4     2.062330969613   112.45754393    55.73822650
 H     12   9   4     2.064826137811   109.39187423   179.91710644
 H     12   9   4     2.061643310199   112.60895978   299.81484688
 H     12   9   4     2.069652373489   110.27776032    61.28477405

---------------------
BASIS SET INFORMATION
---------------------
There are 3 groups of distinct atoms

 Group   1 Type C   : 17s4p1d contracted to 3s2p1d pattern {881/31/1}
 Group   2 Type Cl  : 34s15p1d contracted to 4s3p1d pattern {1111111/771/1}
 Group   3 Type H   : 4s1p contracted to 2s1p pattern {31/1}

Atom   0C    basis set group =>   1
Atom   1C    basis set group =>   1
Atom   2C    basis set group =>   1
Atom   3C    basis set group =>   1
Atom   4C    basis set group =>   1
Atom   5C    basis set group =>   1
Atom   6C    basis set group =>   1
Atom   7C    basis set group =>   1
Atom   8C    basis set group =>   1
Atom   9C    basis set group =>   1
Atom  10Cl   basis set group =>   2
Atom  11C    basis set group =>   1
Atom  12H    basis set group =>   3
Atom  13H    basis set group =>   3
Atom  14H    basis set group =>   3
Atom  15H    basis set group =>   3
Atom  16H    basis set group =>   3
Atom  17H    basis set group =>   3
Atom  18H    basis set group =>   3
Atom  19H    basis set group =>   3
Atom  20H    basis set group =>   3
Atom  21H    basis set group =>   3
Atom  22H    basis set group =>   3
Atom  23H    basis set group =>   3
Atom  24H    basis set group =>   3
Atom  25H    basis set group =>   3
Atom  26H    basis set group =>   3
Atom  27H    basis set group =>   3
Atom  28H    basis set group =>   3
Atom  29H    basis set group =>   3
Atom  30H    basis set group =>   3
-------------------------------
AUXILIARY BASIS SET INFORMATION
-------------------------------
There are 3 groups of distinct atoms

 Group   1 Type C   : 7s5p4d2f contracted to 7s5p4d2f pattern {1111111/11111/1111/11}
 Group   2 Type Cl  : 9s7p5d3f contracted to 9s7p5d3f pattern {111111111/1111111/11111/111}
 Group   3 Type H   : 3s2p1d contracted to 3s2p1d pattern {111/11/1}

Atom   0C    basis set group =>   1
Atom   1C    basis set group =>   1
Atom   2C    basis set group =>   1
Atom   3C    basis set group =>   1
Atom   4C    basis set group =>   1
Atom   5C    basis set group =>   1
Atom   6C    basis set group =>   1
Atom   7C    basis set group =>   1
Atom   8C    basis set group =>   1
Atom   9C    basis set group =>   1
Atom  10Cl   basis set group =>   2
Atom  11C    basis set group =>   1
Atom  12H    basis set group =>   3
Atom  13H    basis set group =>   3
Atom  14H    basis set group =>   3
Atom  15H    basis set group =>   3
Atom  16H    basis set group =>   3
Atom  17H    basis set group =>   3
Atom  18H    basis set group =>   3
Atom  19H    basis set group =>   3
Atom  20H    basis set group =>   3
Atom  21H    basis set group =>   3
Atom  22H    basis set group =>   3
Atom  23H    basis set group =>   3
Atom  24H    basis set group =>   3
Atom  25H    basis set group =>   3
Atom  26H    basis set group =>   3
Atom  27H    basis set group =>   3
Atom  28H    basis set group =>   3
Atom  29H    basis set group =>   3
Atom  30H    basis set group =>   3
-------------------------------
AUXILIARY BASIS SET INFORMATION
-------------------------------
There are 3 groups of distinct atoms

 Group   1 Type C   : 10s7p5d2f1g contracted to 10s7p5d2f1g pattern {1111111111/1111111/11111/11/1}
 Group   2 Type Cl  : 13s11p9d3f1g contracted to 13s11p9d3f1g pattern {1111111111111/11111111111/111111111/111/1}
 Group   3 Type H   : 4s3p2d1f contracted to 4s3p2d1f pattern {1111/111/11/1}

Atom   0C    basis set group =>   1
Atom   1C    basis set group =>   1
Atom   2C    basis set group =>   1
Atom   3C    basis set group =>   1
Atom   4C    basis set group =>   1
Atom   5C    basis set group =>   1
Atom   6C    basis set group =>   1
Atom   7C    basis set group =>   1
Atom   8C    basis set group =>   1
Atom   9C    basis set group =>   1
Atom  10Cl   basis set group =>   2
Atom  11C    basis set group =>   1
Atom  12H    basis set group =>   3
Atom  13H    basis set group =>   3
Atom  14H    basis set group =>   3
Atom  15H    basis set group =>   3
Atom  16H    basis set group =>   3
Atom  17H    basis set group =>   3
Atom  18H    basis set group =>   3
Atom  19H    basis set group =>   3
Atom  20H    basis set group =>   3
Atom  21H    basis set group =>   3
Atom  22H    basis set group =>   3
Atom  23H    basis set group =>   3
Atom  24H    basis set group =>   3
Atom  25H    basis set group =>   3
Atom  26H    basis set group =>   3
Atom  27H    basis set group =>   3
Atom  28H    basis set group =>   3
Atom  29H    basis set group =>   3
Atom  30H    basis set group =>   3

Checking for AutoStart:
The File: bicyclooctyl_CMe2Cl_ts.gbw exists
Trying to determine its content:
     ... Fine, the file contains calculation information
     ... Fine, the calculation information was read
     ... Fine, the file contains a basis set
     ... Fine, the basis set was read
     ... Fine, the file contains a geometry
     ... Fine, the geometry was read
     ... Fine, the file contains a set of orbitals
     ... Fine, the orbitals can be read
     => possible old guess file was deleted
     => GBW file was renamed to GES file
     => GES file is set as startup file
     => Guess is set to MORead
     ... now leaving AutoStart



           ************************************************************
           *        Program running with 4 parallel MPI-processes     *
           *              working on a common directory               *
           ************************************************************
------------------------------------------------------------------------------
                           ORCA GTO INTEGRAL CALCULATION
                           -- RI-GTO INTEGRALS CHOSEN --
------------------------------------------------------------------------------

                         BASIS SET STATISTICS AND STARTUP INFO

Gaussian basis set:
 # of primitive gaussian shells          ...  387
 # of primitive gaussian functions       ...  591
 # of contracted shells                  ...  131
 # of contracted basis functions         ...  267
 Highest angular momentum                ...    2
 Maximum contraction depth               ...   11
Auxiliary gaussian basis set:
 # of primitive gaussian shells          ...  502
 # of primitive gaussian functions       ... 1560
 # of contracted shells                  ...  502
 # of contracted aux-basis functions     ... 1560
 Highest angular momentum                ...    4
 Maximum contraction depth               ...    1
Ratio of auxiliary to basis functions    ...  5.84
Integral package used                  ... LIBINT
 One Electron integrals                  ... done
 Ordering auxiliary basis shells         ... done
 Integral threshhold             Thresh  ...  2.500e-11
 Primitive cut-off               TCut    ...  2.500e-12
 Pre-screening matrix                    ... done
 Shell pair data                         ... 
 Ordering of the shell pairs             ... done (   0.002 sec) 8249 of 8646 pairs
 Determination of significant pairs      ... done (   0.000 sec)
 Creation of shell pair data             ... done (   0.003 sec)
 Storage of shell pair data              ... done (   0.011 sec)
 Shell pair data done in (   0.016 sec)
 Computing two index integrals           ... done
 Cholesky decomposition of the V-matrix  ... done


Timings:
 Total evaluation time                   ...  50.818 sec (  0.847 min)
 One electron matrix time                ...  49.927 sec (  0.832 min) = 98.2%
 Schwartz matrix evaluation time         ...   0.355 sec (  0.006 min) =  0.7%
 Two index repulsion integral time       ...   0.229 sec (  0.004 min) =  0.5%
 Cholesky decomposition of V             ...   0.264 sec (  0.004 min) =  0.5%
 Three index repulsion integral time     ...   0.000 sec (  0.000 min) =  0.0%



           ************************************************************
           *        Program running with 4 parallel MPI-processes     *
           *              working on a common directory               *
           ************************************************************
-------------------------------------------------------------------------------
                                 ORCA SCF
-------------------------------------------------------------------------------

------------
SCF SETTINGS
------------
Hamiltonian:
 Ab initio Hamiltonian  Method          .... Hartree-Fock(GTOs)
 RI-approximation to the Coulomb term is turned on
   Number of auxiliary basis functions  .... 1560
   RI-JK (J+K treated both via RI)      .... on


General Settings:
 Integral files         IntName         .... bicyclooctyl_CMe2Cl_ts
 Hartree-Fock type      HFTyp           .... RHF
 Total Charge           Charge          ....    0
 Multiplicity           Mult            ....    1
 Number of Electrons    NEL             ....  102
 Basis Dimension        Dim             ....  267
 Nuclear Repulsion      ENuc            ....    893.9743321622 Eh

Convergence Acceleration:
 DIIS                   CNVDIIS         .... off
 Newton-Raphson         CNVNR           .... off
 SOSCF                  CNVSOSCF        .... on
   Start iteration      SOSCFMaxIt      ....   150
   Startup grad/error   SOSCFStart      ....  0.003300
 Level Shifting         CNVShift        .... on
   Level shift para.    LevelShift      ....    0.2000
   Turn off err/grad.   ShiftErr        ....    0.1000
 Zerner damping         CNVZerner       .... off
 Static damping         CNVDamp         .... off
 Fernandez-Rico         CNVRico         .... off

SCF Procedure:
 Maximum # iterations   MaxIter         ....   300
 SCF integral mode      SCFMode         .... Direct
   Integral package                     .... LIBINT
 Reset frequency        DirectResetFreq ....    20
 Integral Threshold     Thresh          ....  2.500e-11 Eh
 Primitive CutOff       TCut            ....  2.500e-12 Eh

Convergence Tolerance:
 Convergence Check Mode ConvCheckMode   .... Total+1el-Energy
 Convergence forced     ConvForced      .... 1
 Energy Change          TolE            ....  1.000e-08 Eh
 1-El. energy change                    ....  1.000e-05 Eh
 Orbital Gradient       TolG            ....  1.000e-05
 Orbital Rotation angle TolX            ....  1.000e-05


Diagonalization of the overlap matrix:
Smallest eigenvalue                        ... 1.191e-03
Time for diagonalization                   ...    0.015 sec
Threshold for overlap eigenvalues          ... 1.000e-08
Number of eigenvalues below threshold      ... 0
Time for construction of square roots      ...    0.027 sec
Total time needed                          ...    0.042 sec

---------------------
INITIAL GUESS: MOREAD
---------------------
Guess MOs are being read from file: bicyclooctyl_CMe2Cl_ts.ges
Input Geometry matches current geometry (good)
Atom 0: N(Shells)= 6 and 10 - projection required
Input basis set needs projection
NBasis(read)= 630
NBasis(calc)= 267
Basis set overlap was calculated
Using GuessMode=FMatrix for the initial guess
C*T matrix was formed
Effective Fockian was calculated
Effective Fockian was diagonalized
Initial density was built
                      ------------------
                      INITIAL GUESS DONE (   0.2 sec)
                      ------------------
--------------
SCF ITERATIONS
--------------
ITER       Energy         Delta-E        Max-DP      RMS-DP      [F,P]   Gradient Norm
                             ****Turning on KDIIS(Cayley)****
  0   -887.1337631010   0.000000000000 0.00686537  0.00007248  0.0036849   0.005323432
  1   -887.1339749277  -0.000211826668 0.01222845  0.00013246  0.0033438   0.004829736
                      *** Initiating the SOSCF procedure ***
                           *** Shutting down KDIIS ***
                      *** Re-Reading the Fockian *** 
                      *** Removing any level shift *** 
ITER      Energy       Delta-E        Grad      Rot      Max-DP    RMS-DP
  2   -887.13432731  -0.0003523823  0.002685  0.002685  0.018720  0.000210
  3   -887.13475089  -0.0004235818  0.001609  0.000835  0.026848  0.000302
  4   -887.13498311  -0.0002322206  0.000273  0.000271  0.001388  0.000034
  5   -887.13499082  -0.0000077077  0.000142  0.000083  0.001482  0.000015
  6   -887.13499246  -0.0000016384  0.000026  0.000037  0.000097  0.000002
  7   -887.13499250  -0.0000000433  0.000010  0.000019  0.000031  0.000001
  8   -887.13499251  -0.0000000041  0.000004  0.000009  0.000016  0.000000
                  ***Gradient check signals convergence***
              ***Rediagonalizing the Fockian in SOSCF/NRSCF***

               *****************************************************
               *                     SUCCESS                       *
               *           SCF CONVERGED AFTER   9 CYCLES          *
               *****************************************************


----------------
TOTAL SCF ENERGY
----------------

Total Energy       :         -887.13499251 Eh          -24140.17041 eV

Components:
Nuclear Repulsion  :          893.97433216 Eh           24326.27830 eV
Electronic Energy  :        -1781.10932467 Eh          -48466.44871 eV
One Electron Energy:        -2990.29669498 Eh          -81370.10985 eV
Two Electron Energy:         1209.18737031 Eh           32903.66114 eV

Virial components:
Potential Energy   :        -1773.71238262 Eh          -48265.16768 eV
Kinetic Energy     :          886.57739011 Eh           24124.99728 eV
Virial Ratio       :            2.00062894


---------------
SCF CONVERGENCE
---------------

  Last Energy change         ...   -4.7157e-10  Tolerance :   1.0000e-08
  Last MAX-Density change    ...    4.1334e-06  Tolerance :   1.0000e-07
  Last RMS-Density change    ...    7.5322e-08  Tolerance :   5.0000e-09
  Last Orbital Gradient      ...    6.9484e-07  Tolerance :   1.0000e-05
  Last Orbital Rotation      ...    1.8847e-06  Tolerance :   1.0000e-05

             **** THE GBW FILE WAS UPDATED (bicyclooctyl_CMe2Cl_ts.gbw) ****
             **** DENSITY FILE WAS UPDATED (bicyclooctyl_CMe2Cl_ts.scfp.tmp) ****
             **** ENERGY FILE WAS UPDATED (bicyclooctyl_CMe2Cl_ts.en.tmp) ****
----------------
ORBITAL ENERGIES
----------------

  NO   OCC          E(Eh)            E(eV) 
   0   2.0000    -104.792108     -2851.5382 
   1   2.0000     -11.313309      -307.8508 
   2   2.0000     -11.253480      -306.2228 
   3   2.0000     -11.232782      -305.6595 
   4   2.0000     -11.232354      -305.6479 
   5   2.0000     -11.228119      -305.5327 
   6   2.0000     -11.227658      -305.5201 
   7   2.0000     -11.225290      -305.4557 
   8   2.0000     -11.224596      -305.4368 
   9   2.0000     -11.224121      -305.4238 
  10   2.0000     -11.220251      -305.3185 
  11   2.0000     -11.218987      -305.2841 
  12   2.0000     -10.518974      -286.2358 
  13   2.0000      -7.986197      -217.3155 
  14   2.0000      -7.983365      -217.2384 
  15   2.0000      -7.983329      -217.2374 
  16   2.0000      -1.162719       -31.6392 
  17   2.0000      -1.119483       -30.4627 
  18   2.0000      -1.026683       -27.9375 
  19   2.0000      -1.004310       -27.3287 
  20   2.0000      -1.003031       -27.2939 
  21   2.0000      -0.989764       -26.9328 
  22   2.0000      -0.944603       -25.7040 
  23   2.0000      -0.834988       -22.7212 
  24   2.0000      -0.834044       -22.6955 
  25   2.0000      -0.827482       -22.5169 
  26   2.0000      -0.750757       -20.4291 
  27   2.0000      -0.681910       -18.5557 
  28   2.0000      -0.655994       -17.8505 
  29   2.0000      -0.650939       -17.7130 
  30   2.0000      -0.646452       -17.5909 
  31   2.0000      -0.603964       -16.4347 
  32   2.0000      -0.593970       -16.1627 
  33   2.0000      -0.582627       -15.8541 
  34   2.0000      -0.562397       -15.3036 
  35   2.0000      -0.553215       -15.0537 
  36   2.0000      -0.530716       -14.4415 
  37   2.0000      -0.528304       -14.3759 
  38   2.0000      -0.521576       -14.1928 
  39   2.0000      -0.519435       -14.1345 
  40   2.0000      -0.512948       -13.9580 
  41   2.0000      -0.500508       -13.6195 
  42   2.0000      -0.487961       -13.2781 
  43   2.0000      -0.483151       -13.1472 
  44   2.0000      -0.461778       -12.5656 
  45   2.0000      -0.460189       -12.5224 
  46   2.0000      -0.423739       -11.5305 
  47   2.0000      -0.421056       -11.4575 
  48   2.0000      -0.411725       -11.2036 
  49   2.0000      -0.403442       -10.9782 
  50   2.0000      -0.400217       -10.8904 
  51   0.0000       0.158470         4.3122 
  52   0.0000       0.179538         4.8855 
  53   0.0000       0.190628         5.1872 
  54   0.0000       0.203218         5.5298 
  55   0.0000       0.204569         5.5666 
  56   0.0000       0.221788         6.0351 
  57   0.0000       0.227034         6.1779 
  58   0.0000       0.234691         6.3863 
  59   0.0000       0.240230         6.5370 
  60   0.0000       0.250084         6.8051 
  61   0.0000       0.259931         7.0731 
  62   0.0000       0.269688         7.3386 
  63   0.0000       0.286186         7.7875 
  64   0.0000       0.290441         7.9033 
  65   0.0000       0.299153         8.1404 
  66   0.0000       0.306667         8.3448 
  67   0.0000       0.307354         8.3635 
  68   0.0000       0.330575         8.9954 
  69   0.0000       0.331838         9.0298 
  70   0.0000       0.337082         9.1725 
  71   0.0000       0.339769         9.2456 
  72   0.0000       0.342933         9.3317 
  73   0.0000       0.378466        10.2986 
  74   0.0000       0.387044        10.5320 
  75   0.0000       0.393868        10.7177 
  76   0.0000       0.412246        11.2178 
  77   0.0000       0.421954        11.4819 
  78   0.0000       0.432730        11.7752 
  79   0.0000       0.436059        11.8658 
  80   0.0000       0.476566        12.9680 
  81   0.0000       0.523974        14.2580 
  82   0.0000       0.531894        14.4736 
  83   0.0000       0.558888        15.2081 
  84   0.0000       0.564585        15.3631 
  85   0.0000       0.569127        15.4867 
  86   0.0000       0.611740        16.6463 
  87   0.0000       0.622612        16.9421 
  88   0.0000       0.631829        17.1929 
  89   0.0000       0.642897        17.4941 
  90   0.0000       0.691302        18.8113 
  91   0.0000       0.698672        19.0118 
  92   0.0000       0.706164        19.2157 
  93   0.0000       0.722829        19.6692 
  94   0.0000       0.740370        20.1465 
  95   0.0000       0.754401        20.5283 
  96   0.0000       0.758402        20.6372 
  97   0.0000       0.767444        20.8832 
  98   0.0000       0.768128        20.9018 
  99   0.0000       0.778657        21.1883 
 100   0.0000       0.791009        21.5245 
 101   0.0000       0.804045        21.8792 
 102   0.0000       0.806339        21.9416 
 103   0.0000       0.829482        22.5714 
 104   0.0000       0.839730        22.8502 
 105   0.0000       0.852181        23.1890 
 106   0.0000       0.857365        23.3301 
 107   0.0000       0.861910        23.4538 
 108   0.0000       0.866636        23.5824 
 109   0.0000       0.870469        23.6867 
 110   0.0000       0.877863        23.8879 
 111   0.0000       0.882493        24.0139 
 112   0.0000       0.888345        24.1731 
 113   0.0000       0.892402        24.2835 
 114   0.0000       0.894978        24.3536 
 115   0.0000       0.902218        24.5506 
 116   0.0000       0.909160        24.7395 
 117   0.0000       0.913975        24.8705 
 118   0.0000       0.924785        25.1647 
 119   0.0000       0.927816        25.2472 
 120   0.0000       0.929886        25.3035 
 121   0.0000       0.934376        25.4257 
 122   0.0000       0.936149        25.4739 
 123   0.0000       0.940254        25.5856 
 124   0.0000       0.948132        25.8000 
 125   0.0000       0.961778        26.1713 
 126   0.0000       0.968002        26.3407 
 127   0.0000       0.979015        26.6404 
 128   0.0000       0.988722        26.9045 
 129   0.0000       0.993072        27.0229 
 130   0.0000       1.005000        27.3475 
 131   0.0000       1.017674        27.6923 
 132   0.0000       1.031157        28.0592 
 133   0.0000       1.047794        28.5119 
 134   0.0000       1.048864        28.5410 
 135   0.0000       1.052894        28.6507 
 136   0.0000       1.057339        28.7716 
 137   0.0000       1.061835        28.8940 
 138   0.0000       1.075410        29.2634 
 139   0.0000       1.112232        30.2654 
 140   0.0000       1.129147        30.7257 
 141   0.0000       1.158571        31.5263 
 142   0.0000       1.225611        33.3506 
 143   0.0000       1.252843        34.0916 
 144   0.0000       1.281008        34.8580 
 145   0.0000       1.333615        36.2895 
 146   0.0000       1.343648        36.5625 
 147   0.0000       1.383878        37.6572 
 148   0.0000       1.389421        37.8081 
 149   0.0000       1.420558        38.6553 
 150   0.0000       1.433883        39.0179 
 151   0.0000       1.439771        39.1782 
 152   0.0000       1.450134        39.4601 
 153   0.0000       1.501744        40.8645 
 154   0.0000       1.524517        41.4842 
 155   0.0000       1.541447        41.9449 
 156   0.0000       1.561913        42.5018 
 157   0.0000       1.601201        43.5709 
 158   0.0000       1.615148        43.9504 
 159   0.0000       1.621107        44.1126 
 160   0.0000       1.641491        44.6672 
 161   0.0000       1.656123        45.0654 
 162   0.0000       1.664011        45.2800 
 163   0.0000       1.684381        45.8343 
 164   0.0000       1.693769        46.0898 
 165   0.0000       1.698240        46.2115 
 166   0.0000       1.701913        46.3114 
 167   0.0000       1.713347        46.6225 
 168   0.0000       1.734206        47.1902 
 169   0.0000       1.741685        47.3936 
 170   0.0000       1.753625        47.7185 
 171   0.0000       1.763814        47.9958 
 172   0.0000       1.775117        48.3034 
 173   0.0000       1.791101        48.7383 
 174   0.0000       1.795769        48.8654 
 175   0.0000       1.821867        49.5755 
 176   0.0000       1.856713        50.5237 
 177   0.0000       1.869572        50.8736 
 178   0.0000       1.880386        51.1679 
 179   0.0000       1.890544        51.4443 
 180   0.0000       1.897280        51.6276 
 181   0.0000       1.903489        51.7966 
 182   0.0000       1.916624        52.1540 
 183   0.0000       1.929657        52.5086 
 184   0.0000       1.949760        53.0557 
 185   0.0000       1.954673        53.1894 
 186   0.0000       1.963105        53.4188 
 187   0.0000       1.973635        53.7053 
 188   0.0000       1.976343        53.7790 
 189   0.0000       1.978488        53.8374 
 190   0.0000       1.987347        54.0785 
 191   0.0000       1.992313        54.2136 
 192   0.0000       1.999264        54.4027 
 193   0.0000       2.013172        54.7812 
 194   0.0000       2.017265        54.8926 
 195   0.0000       2.018506        54.9263 
 196   0.0000       2.027685        55.1761 
 197   0.0000       2.037219        55.4355 
 198   0.0000       2.043365        55.6028 
 199   0.0000       2.067762        56.2667 
 200   0.0000       2.090437        56.8837 
 201   0.0000       2.091527        56.9133 
 202   0.0000       2.103574        57.2412 
 203   0.0000       2.135203        58.1018 
 204   0.0000       2.138497        58.1914 
 205   0.0000       2.145568        58.3839 
 206   0.0000       2.158192        58.7274 
 207   0.0000       2.181042        59.3492 
 208   0.0000       2.184689        59.4484 
 209   0.0000       2.190744        59.6132 
 210   0.0000       2.200831        59.8877 
 211   0.0000       2.209029        60.1107 
 212   0.0000       2.219061        60.3837 
 213   0.0000       2.234716        60.8097 
 214   0.0000       2.238760        60.9198 
 215   0.0000       2.270937        61.7953 
 216   0.0000       2.275965        61.9322 
 217   0.0000       2.293548        62.4106 
 218   0.0000       2.318470        63.0888 
 219   0.0000       2.323833        63.2347 
 220   0.0000       2.365578        64.3707 
 221   0.0000       2.377892        64.7057 
 222   0.0000       2.380192        64.7683 
 223   0.0000       2.391902        65.0870 
 224   0.0000       2.395857        65.1946 
 225   0.0000       2.415531        65.7299 
 226   0.0000       2.433938        66.2308 
 227   0.0000       2.453850        66.7726 
 228   0.0000       2.463638        67.0390 
 229   0.0000       2.477055        67.4041 
 230   0.0000       2.483819        67.5881 
 231   0.0000       2.489968        67.7555 
 232   0.0000       2.492467        67.8235 
 233   0.0000       2.516729        68.4837 
 234   0.0000       2.528380        68.8007 
 235   0.0000       2.545693        69.2718 
 236   0.0000       2.561857        69.7117 
 237   0.0000       2.580035        70.2063 
 238   0.0000       2.601079        70.7790 
 239   0.0000       2.606616        70.9296 
 240   0.0000       2.644394        71.9576 
 241   0.0000       2.655523        72.2605 
 242   0.0000       2.679157        72.9036 
 243   0.0000       2.686329        73.0987 
 244   0.0000       2.748480        74.7899 
 245   0.0000       2.763578        75.2008 
 246   0.0000       2.778692        75.6121 
 247   0.0000       2.782950        75.7279 
 248   0.0000       2.789047        75.8938 
 249   0.0000       2.796908        76.1077 
 250   0.0000       2.815458        76.6125 
 251   0.0000       2.817326        76.6633 
 252   0.0000       2.820457        76.7485 
 253   0.0000       2.852087        77.6092 
 254   0.0000       2.860026        77.8253 
 255   0.0000       2.901242        78.9468 
 256   0.0000       2.919299        79.4382 
 257   0.0000       2.940898        80.0259 
 258   0.0000       2.947451        80.2042 
 259   0.0000       2.959448        80.5307 
 260   0.0000       2.993744        81.4639 
 261   0.0000       3.002044        81.6898 
 262   0.0000       3.053568        83.0918 
 263   0.0000       3.087944        84.0272 
 264   0.0000       3.136784        85.3562 
 265   0.0000       3.141235        85.4773 
 266   0.0000       3.145172        85.5845 

                    ********************************
                    * MULLIKEN POPULATION ANALYSIS *
                    ********************************

-----------------------
MULLIKEN ATOMIC CHARGES
-----------------------
   0 C :    0.059479
   1 C :    0.040497
   2 C :   -0.188405
   3 C :   -0.411875
   4 C :    0.044347
   5 C :    0.083702
   6 C :    0.060341
   7 C :    0.038648
   8 C :   -0.331280
   9 C :    0.093457
  10 Cl:   -0.197962
  11 C :    0.094776
  12 H :    0.021657
  13 H :    0.026653
  14 H :    0.032776
  15 H :    0.027232
  16 H :    0.001486
  17 H :    0.025837
  18 H :    0.022045
  19 H :    0.036299
  20 H :    0.045147
  21 H :    0.024468
  22 H :    0.024384
  23 H :    0.024929
  24 H :    0.034502
  25 H :    0.051116
  26 H :    0.035013
  27 H :    0.047046
  28 H :    0.048881
  29 H :    0.048993
  30 H :    0.035809
Sum of atomic charges:    0.0000000

--------------------------------
MULLIKEN REDUCED ORBITAL CHARGES
--------------------------------
  0 C s       :     3.003362  s :     3.003362
      pz      :     0.955687  p :     2.858615
      px      :     0.936767
      py      :     0.966161
      dz2     :     0.017583  d :     0.078545
      dxz     :     0.013774
      dyz     :     0.013175
      dx2y2   :     0.019693
      dxy     :     0.014320
  1 C s       :     3.014952  s :     3.014952
      pz      :     0.938444  p :     2.867495
      px      :     0.973730
      py      :     0.955320
      dz2     :     0.016850  d :     0.077056
      dxz     :     0.015722
      dyz     :     0.011869
      dx2y2   :     0.020920
      dxy     :     0.011694
  2 C s       :     3.185878  s :     3.185878
      pz      :     0.955748  p :     2.897739
      px      :     0.981411
      py      :     0.960580
      dz2     :     0.025724  d :     0.104788
      dxz     :     0.011952
      dyz     :     0.027676
      dx2y2   :     0.023054
      dxy     :     0.016382
  3 C s       :     3.257774  s :     3.257774
      pz      :     1.034963  p :     3.039882
      px      :     0.933197
      py      :     1.071721
      dz2     :     0.026153  d :     0.114220
      dxz     :     0.020217
      dyz     :     0.023346
      dx2y2   :     0.029631
      dxy     :     0.014872
  4 C s       :     3.012181  s :     3.012181
      pz      :     0.979987  p :     2.864931
      px      :     0.941360
      py      :     0.943585
      dz2     :     0.014588  d :     0.078541
      dxz     :     0.010662
      dyz     :     0.016310
      dx2y2   :     0.019853
      dxy     :     0.017129
  5 C s       :     3.013753  s :     3.013753
      pz      :     0.990248  p :     2.825476
      px      :     0.944502
      py      :     0.890726
      dz2     :     0.013702  d :     0.077069
      dxz     :     0.013663
      dyz     :     0.013889
      dx2y2   :     0.021930
      dxy     :     0.013886
  6 C s       :     3.003271  s :     3.003271
      pz      :     0.951748  p :     2.857824
      px      :     0.937957
      py      :     0.968119
      dz2     :     0.016637  d :     0.078564
      dxz     :     0.012446
      dyz     :     0.017591
      dx2y2   :     0.015738
      dxy     :     0.016152
  7 C s       :     3.016467  s :     3.016467
      pz      :     0.932408  p :     2.867842
      px      :     0.974118
      py      :     0.961316
      dz2     :     0.017189  d :     0.077044
      dxz     :     0.017816
      dyz     :     0.009128
      dx2y2   :     0.022160
      dxy     :     0.010751
  8 C s       :     3.342930  s :     3.342930
      pz      :     1.091319  p :     2.864709
      px      :     0.973064
      py      :     0.800326
      dz2     :     0.028517  d :     0.123641
      dxz     :     0.020326
      dyz     :     0.025053
      dx2y2   :     0.024751
      dxy     :     0.024995
  9 C s       :     2.988901  s :     2.988901
      pz      :     0.923810  p :     2.858995
      px      :     0.991209
      py      :     0.943976
      dz2     :     0.016963  d :     0.058647
      dxz     :     0.007240
      dyz     :     0.012674
      dx2y2   :     0.014556
      dxy     :     0.007214
 10 Cls       :     5.937705  s :     5.937705
      pz      :     3.970765  p :    11.233385
      px      :     3.776353
      py      :     3.486267
      dz2     :     0.005013  d :     0.026871
      dxz     :     0.000894
      dyz     :     0.002777
      dx2y2   :     0.005398
      dxy     :     0.012789
 11 C s       :     2.987450  s :     2.987450
      pz      :     0.925344  p :     2.859156
      px      :     0.988122
      py      :     0.945689
      dz2     :     0.016767  d :     0.058618
      dxz     :     0.006762
      dyz     :     0.013386
      dx2y2   :     0.013256
      dxy     :     0.008448
 12 H s       :     0.949115  s :     0.949115
      pz      :     0.004860  p :     0.029228
      px      :     0.006530
      py      :     0.017839
 13 H s       :     0.943960  s :     0.943960
      pz      :     0.016534  p :     0.029388
      px      :     0.006487
      py      :     0.006366
 14 H s       :     0.938367  s :     0.938367
      pz      :     0.015566  p :     0.028857
      px      :     0.005147
      py      :     0.008145
 15 H s       :     0.943672  s :     0.943672
      pz      :     0.004620  p :     0.029096
      px      :     0.005030
      py      :     0.019446
 16 H s       :     0.970393  s :     0.970393
      pz      :     0.003659  p :     0.028121
      px      :     0.020477
      py      :     0.003985
 17 H s       :     0.944786  s :     0.944786
      pz      :     0.012087  p :     0.029377
      px      :     0.005832
      py      :     0.011458
 18 H s       :     0.948724  s :     0.948724
      pz      :     0.017816  p :     0.029231
      px      :     0.004734
      py      :     0.006682
 19 H s       :     0.934532  s :     0.934532
      pz      :     0.016137  p :     0.029169
      px      :     0.005806
      py      :     0.007226
 20 H s       :     0.925204  s :     0.925204
      pz      :     0.013783  p :     0.029649
      px      :     0.008178
      py      :     0.007687
 21 H s       :     0.946187  s :     0.946187
      pz      :     0.005009  p :     0.029345
      px      :     0.008786
      py      :     0.015550
 22 H s       :     0.946331  s :     0.946331
      pz      :     0.013419  p :     0.029285
      px      :     0.004627
      py      :     0.011239
 23 H s       :     0.946377  s :     0.946377
      pz      :     0.004395  p :     0.028694
      px      :     0.003916
      py      :     0.020382
 24 H s       :     0.936290  s :     0.936290
      pz      :     0.015469  p :     0.029209
      px      :     0.007150
      py      :     0.006590
 25 H s       :     0.918402  s :     0.918402
      pz      :     0.004243  p :     0.030482
      px      :     0.021342
      py      :     0.004897
 26 H s       :     0.934375  s :     0.934375
      pz      :     0.004478  p :     0.030612
      px      :     0.007182
      py      :     0.018952
 27 H s       :     0.922258  s :     0.922258
      pz      :     0.016153  p :     0.030695
      px      :     0.005995
      py      :     0.008547
 28 H s       :     0.920607  s :     0.920607
      pz      :     0.004328  p :     0.030512
      px      :     0.021131
      py      :     0.005052
 29 H s       :     0.920176  s :     0.920176
      pz      :     0.016172  p :     0.030831
      px      :     0.005723
      py      :     0.008937
 30 H s       :     0.933678  s :     0.933678
      pz      :     0.004554  p :     0.030513
      px      :     0.007715
      py      :     0.018244


                     *******************************
                     * LOEWDIN POPULATION ANALYSIS *
                     *******************************

----------------------
LOEWDIN ATOMIC CHARGES
----------------------
   0 C :   -0.019328
   1 C :   -0.019661
   2 C :   -0.039645
   3 C :   -0.048841
   4 C :   -0.021913
   5 C :   -0.022774
   6 C :   -0.019317
   7 C :   -0.019859
   8 C :   -0.037608
   9 C :   -0.044046
  10 Cl:   -0.036725
  11 C :   -0.043719
  12 H :    0.016443
  13 H :    0.018844
  14 H :    0.018163
  15 H :    0.015518
  16 H :    0.016034
  17 H :    0.018499
  18 H :    0.016729
  19 H :    0.017103
  20 H :    0.016533
  21 H :    0.017836
  22 H :    0.017750
  23 H :    0.013973
  24 H :    0.019094
  25 H :    0.026586
  26 H :    0.022761
  27 H :    0.025440
  28 H :    0.027006
  29 H :    0.025208
  30 H :    0.023916

-------------------------------
LOEWDIN REDUCED ORBITAL CHARGES
-------------------------------
  0 C s       :     2.791173  s :     2.791173
      pz      :     1.015542  p :     3.027786
      px      :     0.989792
      py      :     1.022453
      dz2     :     0.047484  d :     0.200368
      dxz     :     0.035408
      dyz     :     0.032727
      dx2y2   :     0.048759
      dxy     :     0.035990
  1 C s       :     2.794620  s :     2.794620
      pz      :     1.004192  p :     3.026872
      px      :     0.996435
      py      :     1.026244
      dz2     :     0.045047  d :     0.198169
      dxz     :     0.039866
      dyz     :     0.031972
      dx2y2   :     0.051850
      dxy     :     0.029434
  2 C s       :     2.787952  s :     2.787952
      pz      :     0.994537  p :     3.003422
      px      :     1.011402
      py      :     0.997483
      dz2     :     0.060491  d :     0.248271
      dxz     :     0.028023
      dyz     :     0.062543
      dx2y2   :     0.058617
      dxy     :     0.038597
  3 C s       :     2.811790  s :     2.811790
      pz      :     1.006064  p :     2.982349
      px      :     0.956241
      py      :     1.020044
      dz2     :     0.057176  d :     0.254702
      dxz     :     0.046520
      dyz     :     0.049284
      dx2y2   :     0.067327
      dxy     :     0.034394
  4 C s       :     2.791689  s :     2.791689
      pz      :     1.034189  p :     3.029728
      px      :     0.994442
      py      :     1.001097
      dz2     :     0.036314  d :     0.200496
      dxz     :     0.025764
      dyz     :     0.046859
      dx2y2   :     0.048802
      dxy     :     0.042758
  5 C s       :     2.794555  s :     2.794555
      pz      :     1.045749  p :     3.029380
      px      :     1.003341
      py      :     0.980290
      dz2     :     0.033059  d :     0.198839
      dxz     :     0.035017
      dyz     :     0.040243
      dx2y2   :     0.053037
      dxy     :     0.037482
  6 C s       :     2.791070  s :     2.791070
      pz      :     1.007698  p :     3.027733
      px      :     0.991874
      py      :     1.028160
      dz2     :     0.043156  d :     0.200514
      dxz     :     0.030268
      dyz     :     0.048273
      dx2y2   :     0.037046
      dxy     :     0.041772
  7 C s       :     2.795011  s :     2.795011
      pz      :     1.004316  p :     3.026814
      px      :     0.998583
      py      :     1.023915
      dz2     :     0.046290  d :     0.198033
      dxz     :     0.046763
      dyz     :     0.023466
      dx2y2   :     0.056159
      dxy     :     0.025355
  8 C s       :     2.878209  s :     2.878209
      pz      :     1.059655  p :     2.896787
      px      :     0.991099
      py      :     0.846033
      dz2     :     0.060522  d :     0.262613
      dxz     :     0.043796
      dyz     :     0.050990
      dx2y2   :     0.053783
      dxy     :     0.053523
  9 C s       :     2.797852  s :     2.797852
      pz      :     1.004807  p :     3.081800
      px      :     1.042356
      py      :     1.034637
      dz2     :     0.047816  d :     0.164394
      dxz     :     0.019083
      dyz     :     0.035810
      dx2y2   :     0.042201
      dxy     :     0.019485
 10 Cls       :     5.780308  s :     5.780308
      pz      :     3.943297  p :    11.224371
      px      :     3.768428
      py      :     3.512645
      dz2     :     0.005603  d :     0.032046
      dxz     :     0.001233
      dyz     :     0.003840
      dx2y2   :     0.006682
      dxy     :     0.014688
 11 C s       :     2.797252  s :     2.797252
      pz      :     1.005506  p :     3.081989
      px      :     1.041511
      py      :     1.034972
      dz2     :     0.047469  d :     0.164478
      dxz     :     0.017673
      dyz     :     0.037805
      dx2y2   :     0.038489
      dxy     :     0.023042
 12 H s       :     0.904628  s :     0.904628
      pz      :     0.016874  p :     0.078930
      px      :     0.020435
      py      :     0.041620
 13 H s       :     0.901977  s :     0.901977
      pz      :     0.039642  p :     0.079179
      px      :     0.020196
      py      :     0.019341
 14 H s       :     0.901109  s :     0.901109
      pz      :     0.038590  p :     0.080728
      px      :     0.019674
      py      :     0.022464
 15 H s       :     0.903362  s :     0.903362
      pz      :     0.016711  p :     0.081120
      px      :     0.019136
      py      :     0.045274
 16 H s       :     0.904562  s :     0.904562
      pz      :     0.016431  p :     0.079405
      px      :     0.045873
      py      :     0.017101
 17 H s       :     0.902390  s :     0.902390
      pz      :     0.029636  p :     0.079112
      px      :     0.019424
      py      :     0.030051
 18 H s       :     0.904320  s :     0.904320
      pz      :     0.040773  p :     0.078951
      px      :     0.017414
      py      :     0.020764
 19 H s       :     0.902006  s :     0.902006
      pz      :     0.038513  p :     0.080891
      px      :     0.019899
      py      :     0.022480
 20 H s       :     0.901092  s :     0.901092
      pz      :     0.033992  p :     0.082375
      px      :     0.024866
      py      :     0.023518
 21 H s       :     0.903111  s :     0.903111
      pz      :     0.017587  p :     0.079053
      px      :     0.024620
      py      :     0.036846
 22 H s       :     0.903237  s :     0.903237
      pz      :     0.033881  p :     0.079013
      px      :     0.016714
      py      :     0.028417
 23 H s       :     0.905713  s :     0.905713
      pz      :     0.016342  p :     0.080314
      px      :     0.017032
      py      :     0.046940
 24 H s       :     0.899370  s :     0.899370
      pz      :     0.038652  p :     0.081535
      px      :     0.023384
      py      :     0.019500
 25 H s       :     0.893856  s :     0.893856
      pz      :     0.015073  p :     0.079558
      px      :     0.049158
      py      :     0.015327
 26 H s       :     0.897566  s :     0.897566
      pz      :     0.015510  p :     0.079674
      px      :     0.020207
      py      :     0.043957
 27 H s       :     0.894336  s :     0.894336
      pz      :     0.039716  p :     0.080224
      px      :     0.017764
      py      :     0.022744
 28 H s       :     0.893596  s :     0.893596
      pz      :     0.015176  p :     0.079398
      px      :     0.048533
      py      :     0.015688
 29 H s       :     0.894326  s :     0.894326
      pz      :     0.039836  p :     0.080466
      px      :     0.017087
      py      :     0.023543
 30 H s       :     0.896599  s :     0.896599
      pz      :     0.015638  p :     0.079484
      px      :     0.021241
      py      :     0.042605


                      *****************************
                      * MAYER POPULATION ANALYSIS *
                      *****************************

  NA   - Mulliken gross atomic population
  ZA   - Total nuclear charge
  QA   - Mulliken gross atomic charge
  VA   - Mayer's total valence
  BVA  - Mayer's bonded valence
  FA   - Mayer's free valence

  ATOM       NA         ZA         QA         VA         BVA        FA
  0 C      5.9405     6.0000     0.0595     3.9492     3.9492     0.0000
  1 C      5.9595     6.0000     0.0405     3.9262     3.9262    -0.0000
  2 C      6.1884     6.0000    -0.1884     4.0440     4.0440     0.0000
  3 C      6.4119     6.0000    -0.4119     3.9845     3.9845     0.0000
  4 C      5.9557     6.0000     0.0443     3.9503     3.9503    -0.0000
  5 C      5.9163     6.0000     0.0837     3.8914     3.8914     0.0000
  6 C      5.9397     6.0000     0.0603     3.9495     3.9495     0.0000
  7 C      5.9614     6.0000     0.0386     3.9245     3.9245    -0.0000
  8 C      6.3313     6.0000    -0.3313     3.9779     3.9779     0.0000
  9 C      5.9065     6.0000     0.0935     3.8842     3.8842     0.0000
 10 Cl    17.1980    17.0000    -0.1980     0.9678     0.9678    -0.0000
 11 C      5.9052     6.0000     0.0948     3.8868     3.8868    -0.0000
 12 H      0.9783     1.0000     0.0217     0.9667     0.9667     0.0000
 13 H      0.9733     1.0000     0.0267     0.9691     0.9691     0.0000
 14 H      0.9672     1.0000     0.0328     0.9646     0.9646     0.0000
 15 H      0.9728     1.0000     0.0272     0.9656     0.9656     0.0000
 16 H      0.9985     1.0000     0.0015     0.9833     0.9833     0.0000
 17 H      0.9742     1.0000     0.0258     0.9691     0.9691    -0.0000
 18 H      0.9780     1.0000     0.0220     0.9675     0.9675    -0.0000
 19 H      0.9637     1.0000     0.0363     0.9728     0.9728    -0.0000
 20 H      0.9549     1.0000     0.0451     0.9753     0.9753    -0.0000
 21 H      0.9755     1.0000     0.0245     0.9685     0.9685     0.0000
 22 H      0.9756     1.0000     0.0244     0.9675     0.9675     0.0000
 23 H      0.9751     1.0000     0.0249     0.9627     0.9627    -0.0000
 24 H      0.9655     1.0000     0.0345     0.9674     0.9674     0.0000
 25 H      0.9489     1.0000     0.0511     0.9829     0.9829     0.0000
 26 H      0.9650     1.0000     0.0350     0.9752     0.9752     0.0000
 27 H      0.9530     1.0000     0.0470     0.9824     0.9824     0.0000
 28 H      0.9511     1.0000     0.0489     0.9832     0.9832    -0.0000
 29 H      0.9510     1.0000     0.0490     0.9817     0.9817     0.0000
 30 H      0.9642     1.0000     0.0358     0.9759     0.9759     0.0000

  Mayer bond orders larger than 0.1
B(  0-C ,  1-C ) :   1.0383 B(  0-C ,  2-C ) :   1.0288 B(  0-C , 12-H ) :   0.9670 
B(  0-C , 13-H ) :   0.9672 B(  1-C ,  3-C ) :   1.0240 B(  1-C , 14-H ) :   0.9609 
B(  1-C , 15-H ) :   0.9611 B(  2-C ,  4-C ) :   1.0275 B(  2-C ,  6-C ) :   1.0288 
B(  2-C , 16-H ) :   0.9703 B(  3-C ,  5-C ) :   1.0170 B(  3-C ,  7-C ) :   1.0235 
B(  3-C ,  8-C ) :   0.9402 B(  4-C ,  5-C ) :   1.0378 B(  4-C , 17-H ) :   0.9681 
B(  4-C , 18-H ) :   0.9675 B(  5-C , 19-H ) :   0.9622 B(  5-C , 20-H ) :   0.9612 
B(  6-C ,  7-C ) :   1.0386 B(  6-C , 21-H ) :   0.9673 B(  6-C , 22-H ) :   0.9672 
B(  7-C , 23-H ) :   0.9610 B(  7-C , 24-H ) :   0.9609 B(  8-C ,  9-C ) :   1.0305 
B(  8-C , 10-Cl) :   0.9923 B(  8-C , 11-C ) :   1.0326 B(  9-C , 25-H ) :   0.9729 
B(  9-C , 26-H ) :   0.9657 B(  9-C , 27-H ) :   0.9729 B( 11-C , 28-H ) :   0.9733 
B( 11-C , 29-H ) :   0.9736 B( 11-C , 30-H ) :   0.9632 

-------
TIMINGS
-------

Total SCF time: 0 days 0 hours 0 min 36 sec 

Total time                  ....      36.889 sec
Sum of individual times     ....      36.667 sec  ( 99.4%)

Fock matrix formation       ....      36.376 sec  ( 98.6%)
Diagonalization             ....       0.030 sec  (  0.1%)
Density matrix formation    ....       0.009 sec  (  0.0%)
Population analysis         ....       0.041 sec  (  0.1%)
Initial guess               ....       0.150 sec  (  0.4%)
Orbital Transformation      ....       0.000 sec  (  0.0%)
Orbital Orthonormalization  ....       0.000 sec  (  0.0%)
DIIS solution               ....       0.000 sec  (  0.0%)
SOSCF solution              ....       0.060 sec  (  0.2%)


           ************************************************************
           *        Program running with 4 parallel MPI-processes     *
           *              working on a common directory               *
           ************************************************************


------------------------------------------------------------------------------- 
                              ORCA-MATRIX DRIVEN CI                            
------------------------------------------------------------------------------- 


Wavefunction type
-----------------
Correlation treatment                      ...      CCSD     
Single excitations                         ... ON
Orbital optimization                       ... OFF
Calculation of Z vector                    ... OFF
Calculation of Brueckner orbitals          ... OFF
Perturbative triple excitations            ... ON
Calculation of F12 correction              ... OFF
Frozen core treatment                      ... chemical core (32 el)
Reference Wavefunction                     ... RHF
  Internal Orbitals:    16 ...   50 ( 35 MO's/ 70 electrons)
  Virtual  Orbitals:    51 ...  266 (216 MO's              )
Number of AO's                             ...    267
Number of electrons                        ...    102
Number of correlated electrons             ...     70

Algorithmic settings
--------------------
Integral transformation                    ... All integrals via the RI transformation
K(C) Formation                             ... RI-DLPNO
   PNO-Integral Storage                    ... ON DISK
   PNO occupation number cut-off           ... 1.000e-07
   Singles PNO occupation number cut-off   ... 3.000e-09
   PNO Mulliken prescreening cut-off       ... 1.000e-03
   Domain cut-off (Mulliken population)    ... 1.000e-03
   PNO Normalization                       ...    1
Maximum number of iterations               ...        50
Convergence tolerance (max. residuum)      ... 1.000e-05
Level shift for amplitude update           ... 2.000e-01
Maximum number of DIIS vectors             ...         7
DIIS turned on at iteration                ...         0
Damping before turning on DIIS             ...     0.500
Damping after turning on DIIS              ...     0.000
Pair specific amplitude update             ... OFF
Natural orbital iterations                 ... OFF
Perturbative natural orbital generation    ... OFF
Printlevel                                 ... 2

Singles Fock matrix elements calculated using PNOs.

Memory handling:
----------------
Maximum memory for working arrays          ...   8000 MB
Data storage in matrix containers          ... UNCOMPRESSED
Data type for integral storage             ... DOUBLE
In-Core Storage of quantities:
   Amplitudes+Sigma Vector      ... NO
   J+K operators                ... NO
   DIIS vectors                 ... NO
   3-external integrals         ... NO
   4-external integrals         ... NO

Localization treatment:
-----------------------
Localization option                        ...    6
Localization threshhold                    ... -1.0e+00
Using relative localization threshhold     ... 1.0e-08
Neglect threshold for strong pairs         ... 1.000e-05 Eh
Prescreening threshold for very weak pairs ... 1.000e-07 Eh

Initializing the integral package          ... done
Localizing the valence orbitals
------------------------------------------------------------------------------
                           ORCA ORBITAL LOCALIZATION
------------------------------------------------------------------------------

Input orbitals are from                  ... bicyclooctyl_CMe2Cl_ts.proc0.gbw
Output orbitals are to                   ... bicyclooctyl_CMe2Cl_ts.proc0.loc
Max. number of iterations                ... 128
Localizations seeded randomly            ... off
Convergence tolerance                    ... 1.000e-06
Using relative localization threshhold   ... 1.000e-08
Treshold for strong local MOs            ... 9.500e-01
Treshold for bond MOs                    ... 8.500e-01
Operator                                 ... 0
Orbital range for localization           ... 16 to 50
Localization criterion                   ... FOSTER-BOYS (AUGMENTED HESSIAN)
Doing the dipole integrals     ... o.k.
Initial value of the localization sum :   740.351704
ITERATION   0 : L=  772.2413301715 DL=  3.19e+01 (AVERGE_DL)=    0.2315081217 
ITERATION   1 : L=  776.3229206156 DL=  4.08e+00 (AVERGE_DL)=    0.0828240054 
ITERATION   2 : L=  776.3898847850 DL=  6.70e-02 (AVERGE_DL)=    0.0106087145 
ITERATION   3 : L=  776.3956226246 DL=  5.74e-03 (AVERGE_DL)=    0.0031053869 
ITERATION   4 : L=  776.4001755603 DL=  4.55e-03 (AVERGE_DL)=    0.0027662235 
ITERATION   5 : L=  776.4046134217 DL=  4.44e-03 (AVERGE_DL)=    0.0027310421 
ITERATION   6 : L=  776.4088479989 DL=  4.23e-03 (AVERGE_DL)=    0.0026677587 
ITERATION   7 : L=  776.4127755741 DL=  3.93e-03 (AVERGE_DL)=    0.0025692347 
ITERATION   8 : L=  776.4163149283 DL=  3.54e-03 (AVERGE_DL)=    0.0024389536 
ITERATION   9 : L=  776.4194225598 DL=  3.11e-03 (AVERGE_DL)=    0.0022853687 
ITERATION  10 : L=  776.4220891967 DL=  2.67e-03 (AVERGE_DL)=    0.0021170127 
ITERATION  11 : L=  776.4243325245 DL=  2.24e-03 (AVERGE_DL)=    0.0019417257 
ITERATION  12 : L=  776.4261883138 DL=  1.86e-03 (AVERGE_DL)=    0.0017660616 
ITERATION  13 : L=  776.4277021427 DL=  1.51e-03 (AVERGE_DL)=    0.0015950706 
ITERATION  14 : L=  776.4289228383 DL=  1.22e-03 (AVERGE_DL)=    0.0014323370 
ITERATION  15 : L=  776.4298979345 DL=  9.75e-04 (AVERGE_DL)=    0.0012801629 
ITERATION  16 : L=  776.4306709361 DL=  7.73e-04 (AVERGE_DL)=    0.0011398081 
ITERATION  17 : L=  776.4312799882 DL=  6.09e-04 (AVERGE_DL)=    0.0010117395 
ITERATION  18 : L=  776.4317575297 DL=  4.78e-04 (AVERGE_DL)=    0.0008958744 
ITERATION  19 : L=  776.4321304958 DL=  3.73e-04 (AVERGE_DL)=    0.0007917283 
ITERATION  20 : L=  776.4324208924 DL=  2.90e-04 (AVERGE_DL)=    0.0006986141 
ITERATION  21 : L=  776.4326464446 DL=  2.26e-04 (AVERGE_DL)=    0.0006156941 
ITERATION  22 : L=  776.4328212935 DL=  1.75e-04 (AVERGE_DL)=    0.0005420920 
ITERATION  23 : L=  776.4329566241 DL=  1.35e-04 (AVERGE_DL)=    0.0004769133 
ITERATION  24 : L=  776.4330612432 DL=  1.05e-04 (AVERGE_DL)=    0.0004193214 
ITERATION  25 : L=  776.4331420423 DL=  8.08e-05 (AVERGE_DL)=    0.0003685062 
ITERATION  26 : L=  776.4332043947 DL=  6.24e-05 (AVERGE_DL)=    0.0003237190 
ITERATION  27 : L=  776.4332524852 DL=  4.81e-05 (AVERGE_DL)=    0.0002842962 
ITERATION  28 : L=  776.4332895571 DL=  3.71e-05 (AVERGE_DL)=    0.0002496112 
ITERATION  29 : L=  776.4333181223 DL=  2.86e-05 (AVERGE_DL)=    0.0002191089 
ITERATION  30 : L=  776.4333401288 DL=  2.20e-05 (AVERGE_DL)=    0.0001923166 
ITERATION  31 : L=  776.4333570763 DL=  1.69e-05 (AVERGE_DL)=    0.0001687695 
ITERATION  32 : L=  776.4333701258 DL=  1.30e-05 (AVERGE_DL)=    0.0001480943 
ITERATION  33 : L=  776.4333801704 DL=  1.00e-05 (AVERGE_DL)=    0.0001299296 
ITERATION  34 : L=  776.4333879019 DL=  7.73e-06 (AVERGE_DL)=    0.0001139920 
ITERATION  35 : L=  776.4333938528 DL=  5.95e-06 (AVERGE_DL)=    0.0001000077 
ITERATION  36 : L=  776.4333984328 DL=  4.58e-06 (AVERGE_DL)=    0.0000877355 
ITERATION  37 : L=  776.4334019574 DL=  3.52e-06 (AVERGE_DL)=    0.0000769656 
ITERATION  38 : L=  776.4334046694 DL=  2.71e-06 (AVERGE_DL)=    0.0000675118 
ITERATION  39 : L=  776.4334067566 DL=  2.09e-06 (AVERGE_DL)=    0.0000592285 
ITERATION  40 : L=  776.4334083618 DL=  1.61e-06 (AVERGE_DL)=    0.0000519406 
ITERATION  41 : L=  776.4334095970 DL=  1.24e-06 (AVERGE_DL)=    0.0000455627 
ITERATION  42 : L=  776.4334105474 DL=  9.50e-07 (AVERGE_DL)=    0.0000399662 
LOCALIZATION SUM CONVERGED

------------------------------------------------------
AUGMENTED HESSIAN OPTIMIZATION OF FOSTER-BOYS ORBITALS
------------------------------------------------------

Spin operator:           0
Orbital window:          16 to 50
Number of iterations:    128
Gradient tolerance:      1.000e-06
Number of pairs:         595
Davidson threshold:      2000
Diagonalization method:  LAPACK
Iter:    0   L: 776.4334105474   Grad. norm: 3.934006e-03
   *** Likely close to a maximum now. ***
       Augmented Hessian eigenvalues:  6.39e-06 -3.10e-01 -6.02e+00 -6.05e+00 ... 
Iter:    1   L: 776.4334137433   Grad. norm: 8.768900e-06
Iter:    2   L: 776.4334137433   Grad. norm: 1.662278e-13
LOCALIZATION HAS CONVERGED.

Eigenvalues of the Hessian:
  0 -3.103e-01
  1 -6.018e+00
  2 -6.046e+00
  3 -1.130e+01
  4 -1.136e+01
  5 -1.711e+01
  6 -1.712e+01
  7 -1.724e+01
  8 -1.778e+01
  9 -1.791e+01
    ...


------------------------------------------------------------------------------- 
                    LOCALIZED MOLECULAR ORBITAL COMPOSITIONS                   
------------------------------------------------------------------------------- 

The Mulliken populations for each LMO on each atom are computed
The LMO`s will be ordered according to atom index and type
  (A) Strongly localized MO`s have populations of >=0.950 on one atom
  (B) Two center bond orbitals have populations of >=0.850 on two atoms
  (C) Other MO`s are considered to be `delocalized`

FOUND  -   3 strongly local MO`s
       -  32 two center bond MO`s
       -   0 significantly delocalized MO`s

Rather strongly localized orbitals:
MO  18:  10Cl -   0.999137
MO  17:  10Cl -   0.999032
MO  16:  10Cl -   0.998445
Bond-like localized orbitals:
MO  50:  30H  -   0.499349  and  11C  -   0.504706
MO  49:  29H  -   0.489799  and  11C  -   0.518195
MO  48:  28H  -   0.489565  and  11C  -   0.519436
MO  47:  27H  -   0.490589  and   9C  -   0.516847
MO  46:  26H  -   0.500120  and   9C  -   0.505547
MO  45:  25H  -   0.488455  and   9C  -   0.520419
MO  44:  24H  -   0.503484  and   7C  -   0.504307
MO  43:  23H  -   0.510283  and   7C  -   0.499226
MO  42:  22H  -   0.508095  and   6C  -   0.502541
MO  41:  21H  -   0.507689  and   6C  -   0.501029
MO  40:  20H  -   0.494375  and   5C  -   0.514096
MO  39:  19H  -   0.500079  and   5C  -   0.509235
MO  38:  18H  -   0.509452  and   4C  -   0.501551
MO  37:  17H  -   0.506753  and   4C  -   0.502195
MO  36:  16H  -   0.511802  and   2C  -   0.497677
MO  35:  15H  -   0.508216  and   1C  -   0.500269
MO  34:  14H  -   0.505193  and   1C  -   0.503454
MO  33:  13H  -   0.506253  and   0C  -   0.502124
MO  32:  12H  -   0.509910  and   0C  -   0.500991
MO  31:  11C  -   0.454197  and   8C  -   0.599220
MO  30:  10Cl -   0.637889  and   8C  -   0.412542
MO  29:   9C  -   0.455638  and   8C  -   0.598413
MO  28:   8C  -   0.543386  and   3C  -   0.520238
MO  27:   7C  -   0.545525  and   6C  -   0.495506
MO  26:   7C  -   0.486076  and   3C  -   0.570610
MO  25:   6C  -   0.517284  and   2C  -   0.539288
MO  24:   5C  -   0.530134  and   4C  -   0.510116
MO  23:   5C  -   0.466361  and   3C  -   0.588296
MO  22:   4C  -   0.510883  and   2C  -   0.545255
MO  21:   3C  -   0.571613  and   1C  -   0.484588
MO  20:   2C  -   0.538726  and   0C  -   0.517867
MO  19:   1C  -   0.544987  and   0C  -   0.495951
Localized MO's were stored in: bicyclooctyl_CMe2Cl_ts.proc0.loc

Localizing the core orbitals
------------------------------------------------------------------------------
                           ORCA ORBITAL LOCALIZATION
------------------------------------------------------------------------------

Input orbitals are from                  ... bicyclooctyl_CMe2Cl_ts.proc0.loc
Output orbitals are to                   ... bicyclooctyl_CMe2Cl_ts.proc0.loc
Max. number of iterations                ... 128
Localizations seeded randomly            ... off
Convergence tolerance                    ... 1.000e-06
Using relative localization threshhold   ... 1.000e-08
Treshold for strong local MOs            ... 9.500e-01
Treshold for bond MOs                    ... 8.500e-01
Operator                                 ... 0
Orbital range for localization           ... 0 to 15
Localization criterion                   ... FOSTER-BOYS (AUGMENTED HESSIAN)
Doing the dipole integrals     ... o.k.
Initial value of the localization sum :   322.895306
ITERATION   0 : L=  323.0660331717 DL=  1.71e-01 (AVERGE_DL)=    0.0377190406 
ITERATION   1 : L=  323.0712900132 DL=  5.26e-03 (AVERGE_DL)=    0.0066186867 
ITERATION   2 : L=  323.0716245823 DL=  3.35e-04 (AVERGE_DL)=    0.0016697532 
ITERATION   3 : L=  323.0716452806 DL=  2.07e-05 (AVERGE_DL)=    0.0004153143 
ITERATION   4 : L=  323.0716465762 DL=  1.30e-06 (AVERGE_DL)=    0.0001039045 
ITERATION   5 : L=  323.0716466584 DL=  8.23e-08 (AVERGE_DL)=    0.0000261828 
LOCALIZATION SUM CONVERGED

------------------------------------------------------
AUGMENTED HESSIAN OPTIMIZATION OF FOSTER-BOYS ORBITALS
------------------------------------------------------

Spin operator:           0
Orbital window:          0 to 15
Number of iterations:    128
Gradient tolerance:      1.000e-06
Number of pairs:         120
Davidson threshold:      2000
Diagonalization method:  LAPACK
Iter:    0   L: 323.0716466584   Grad. norm: 6.438414e-04
   *** Detected a saddle point. ***
       Augmented Hessian eigenvalues:  1.71e-05  7.93e-06  5.87e-06 -3.52e-08 ... 
Iter:    1   L: 323.0716470589   Grad. norm: 6.406859e-04
Iter:    2   L: 323.0716479772   Grad. norm: 6.090697e-04
Iter:    3   L: 323.0716490940   Grad. norm: 5.328515e-04
Iter:    4   L: 323.0716492926   Grad. norm: 5.162851e-04
Iter:    5   L: 323.0716495407   Grad. norm: 4.994417e-04
Iter:    6   L: 323.0716500253   Grad. norm: 4.534635e-04
Iter:    7   L: 323.0716507903   Grad. norm: 3.475295e-04
Iter:    8   L: 323.0716514317   Grad. norm: 2.156339e-04
Iter:    9   L: 323.0716517810   Grad. norm: 7.511274e-05
Iter:   10   L: 323.0716518326   Grad. norm: 1.770312e-06
   *** Likely close to a maximum now. ***
       Augmented Hessian eigenvalues:  1.71e-10 -6.51e-06 -7.47e-06 -1.72e-05 ... 
Iter:   11   L: 323.0716518327   Grad. norm: 4.319228e-09
LOCALIZATION HAS CONVERGED.

Eigenvalues of the Hessian:
  0 -6.472e-06
  1 -7.510e-06
  2 -1.719e-05
  3 -1.174e-01
  4 -1.174e-01
  5 -1.177e-01
  6 -3.526e-01
  7 -4.698e-01
  8 -4.700e-01
  9 -4.705e-01
    ...


------------------------------------------------------------------------------- 
                    LOCALIZED MOLECULAR ORBITAL COMPOSITIONS                   
------------------------------------------------------------------------------- 

The Mulliken populations for each LMO on each atom are computed
The LMO`s will be ordered according to atom index and type
  (A) Strongly localized MO`s have populations of >=0.950 on one atom
  (B) Two center bond orbitals have populations of >=0.850 on two atoms
  (C) Other MO`s are considered to be `delocalized`

FOUND  -  16 strongly local MO`s
       -   0 two center bond MO`s
       -   0 significantly delocalized MO`s

Rather strongly localized orbitals:
MO  15:  11C  -   0.999487
MO  14:  10Cl -   0.999853
MO  13:  10Cl -   0.999892
MO  12:  10Cl -   0.999897
MO  11:  10Cl -   0.999998
MO  10:  10Cl -   0.999688
MO   9:   9C  -   0.999489
MO   8:   8C  -   0.998553
MO   7:   7C  -   0.999251
MO   6:   6C  -   0.999213
MO   5:   5C  -   0.999277
MO   4:   4C  -   0.999247
MO   3:   3C  -   0.998235
MO   2:   2C  -   0.998570
MO   1:   1C  -   0.999250
MO   0:   0C  -   0.999214
Localized MO's were stored in: bicyclooctyl_CMe2Cl_ts.proc0.loc

Warning: internal orbitals are localized - no re-canonicalization of internal orbitals

--------------------------
CLOSED-SHELL FOCK OPERATOR
--------------------------

RI-JK section for the Fock operator:
  RHF full Fock operator         ... done
  RHF frozen core Fock operator  ... done
Time needed for Fock operator              ...            6.807 sec
Reference energy                           ...   -887.134992507

--------------
DLPNO SETTINGS (2015 fully linear scaling implementation)
--------------

TCutMKN:           1.000e-03
TCutPAO:           1.000e-03
TCutPNO:           1.000e-07
TCutPNOSingles:    3.000e-09
TCutEN:            9.700e-01
TCutPAOExt:        1.000e-01
TCutPairs:         1.000e-05
TCutPre:           1.000e-07
TCutOSV:           1.000e-06
TCutDOij:          1.000e-05
TCutDO:            5.000e-03
TCutC:             1.000e-04
[...]

Orbital window:      16 to 50
Number of PAOs:     267
Basis functions:    267 (131 shells)
Aux. functions:     958 (336 shells)

Processing maps (0.0 sec)
Average map sizes:
   Aux shells -> MOs              35.0
   Aux shells -> PAOs            267.0
   MOs        -> AO shells       121.8
   PAOs       -> AO shells       130.4

Calculating integrals (1.3 sec, 68.313 MB)
Sorting integrals (0.1 sec, 68.303 MB)
Total time for the integral transformation: 1.4 sec
--------------------------------
INITIAL GUESS AND PNO GENERATION
--------------------------------

PNO truncation parameters                   .... 
    ScaleTCutPNO       =        1.000e-02
    PAOOverlapThresh   =        1.000e-08

    TCutPairs          =        1.000e-05
    TCutPNO            =        1.000e-07
    TCutPNOSingles     =        3.000e-09
    TCutMP2Pairs       =        1.000e-06
    TCutMKN            =        1.000e-03
    TCutDO             =        5.000e-03

Pair selection                          .... not used
Type of local MP2 treatment                 .... full local PMP2
Strategy for PNO selection                  .... occupation number selection
Pair density normalization                  .... MP2 norm
Spin component scaling                      .... not used

PASS-1: Formation of initial guess LMP2 amplitudes
Initial amplitudes guess done. Entering LMP2 iteration loop:
   Max. no of iterations          ...  50
   Energy convergence tolerance   ...    1.0e-07
   Residual convergence tolerance ...    5.0e-07
   Fock matrix cutoff             ...    1.0e-05 Eh
   DIIS convergence acceleration parameters:
        Max # vectors in DIIS     ... 7
        Start iteration of DIIS   ... 0
        Levelshift                ... 2.000e-01
        Damping factor 1          ... 5.000e-01
        Damping factor 2          ... 1.000e+00
   L-MP2 PNO cut-off              ...   1.0e-09
   L-MP2 PNO cut-off (core)       ...   1.0e-11
                           *** Turning on DIIS ***
LMP2-Iter=   0:  ELMP2= -1.685547193815  DE=   3.9e-02 RMAX=   8.1e-03
LMP2-Iter=   1:  ELMP2= -1.704241491904  DE=   1.9e-02 RMAX=   5.5e-03
LMP2-Iter=   2:  ELMP2= -1.707192917232  DE=   3.0e-03 RMAX=   1.0e-03
LMP2-Iter=   3:  ELMP2= -1.707433880086  DE=   2.4e-04 RMAX=   4.8e-04
LMP2-Iter=   4:  ELMP2= -1.707444599137  DE=   1.1e-05 RMAX=   6.4e-05
LMP2-Iter=   5:  ELMP2= -1.707441718186  DE=   2.9e-06 RMAX=   2.8e-05
LMP2-Iter=   6:  ELMP2= -1.707441223708  DE=   4.9e-07 RMAX=   2.5e-06
LMP2-Iter=   7:  ELMP2= -1.707441198570  DE=   2.5e-08 RMAX=   8.0e-07
LMP2-Iter=   8:  ELMP2= -1.707441211676  DE=   1.3e-08 RMAX=   8.3e-08 => CONVERGED
PASS-2: Formation of Pair natural orbitals
   .... Finished loop over pairs

 PNO Occupation Number Statistics: 
  | Av. % of trace(Dij) retained        ...  99.029237806977
  | sigma^2 in % of trace(Dij) retained ...   1.51e+00
  | Av. % of trace(Di) retained         ...  99.999819726944
  | sigma^2 in % of trace(Di) retained  ...   3.70e-09
 Distributions of % trace(Dij) recovered:
  |       >= 99.9  ...   147 ( 23.3 % of all pairs)
  |   [90.0, 99.0) ...   190 ( 30.2 % of all pairs)
  |   [99.0, 99.9) ...   293 ( 46.5 % of all pairs)
 Distributions of % trace(Di) recovered :
  |       >= 99.9  ...    35 (100.0 % of all I-pairs )

Making pair pair interaction lists          ... done

                       ===========================
                        569 OF  630 PAIRS ARE KEPT
                       ===========================

Total time spent in the initial guess                 ...    51.330 sec
L-MP2 correlation energy (all non-screened pairs)     ...      -1.707441211676 Eh
L-MP2 PNO error correction                            ...      -0.000028554411 Eh
                                                          --------------------
Initial total L-MP2 energy (non-screened pairs)       ...      -1.707469766086 Eh

Initial PNO correlation energy                        ...      -1.705908900887 Eh
sum of pair energies estimated for screened out pairs ...       0.000000000000 Eh
sum of MP2 pair energies for pairs that were not kept ...      -0.000496731026 Eh
sum of PNO error estimates for the kept pairs         ...      -0.001118967870 Eh
                                                          --------------------
sum of all corrections                                         -0.001615698896
Initial total correlation energy                               -1.707524599783
Thresholds for map construction and integral transformation for fine MP2 and CCSD(T) calculation:
   TCutMKN   ...     1.0e-03
   TCutDO    ...     5.0e-03
   TCutPairs ...     1.0e-05
   TCutCMO   ...     1.0e-03
   TCutCPAO  ...     1.0e-03

Time for aux screen maps:            0.014
Time for maps after fine MP2:            0.047
-----------------------------
LOCAL RI TRANSFORMATION (IJV)
-----------------------------

Orbital window:      16 to 50
Basis functions:    267 (131 shells)
Aux. functions:     958 (336 shells)

Processing maps (0.0 sec)
Average map sizes:
   Aux shells -> MOs(i)           35.0
   Aux shells -> MOs(j)           35.0
   MOs        -> AO shells       121.8

Calculating integrals (1.2 sec, 8.964 MB)
Sorting integrals (0.0 sec, 8.954 MB)
Total time for the integral transformation: 1.2 sec
--------------------------------
LOCAL RI TRANSFORMATION (VABPAO)
--------------------------------

Number of PAOs:     267
Basis functions:    267 (131 shells)
Aux. functions:     958 (336 shells)

Processing maps (0.0 sec)
Average map sizes:
   Aux shells -> PAOs            267.0
   PAOs       -> AO shells       130.4

Calculating integrals (2.3 sec, 925.724 MB)
Finished


-------------------------------------
Pair Pair Term precalculation with     
RI-(ij|mn) and (im|jn) transformation  
ON THE FLY                             
-------------------------------------

   IBatch   1 (of   4)              ... done (   43.188 sec)
   IBatch   2 (of   4)              ... done (   47.615 sec)
   IBatch   3 (of   4)              ... done (   54.457 sec)
   IBatch   4 (of   4)              ... done (   17.451 sec)
Total EXT                           ...         162.712 sec

---------------------
RI-PNO TRANSFORMATION
---------------------

Total Number of PNOs                   ... 14614
Average number of PNOs per pair        ...    25
Maximal number of PNOs per pair        ...    46
   #pairs with  1 -  5 PNOs   :    0
   #pairs with  6 - 10 PNOs   :   71
   #pairs with 11 - 15 PNOs   :   56
   #pairs with 16 - 20 PNOs   :   32
   #pairs with 21 - 25 PNOs   :  121
   #pairs with 26 - 30 PNOs   :   85
   #pairs with 31 - 35 PNOs   :   84
   #pairs with 36 - 40 PNOs   :   84
   #pairs with 41 - 45 PNOs   :   29
   #pairs with 46 - 50 PNOs   :    7

Generation of (ij|ab)[P] integrals            ... on
Generation of (ia|bc)[P],(ja|bc)[P] integrals ... on
Storage of 3 and 4 external integrals         ... on
Generation of ALL (ka|bc)[P] integrals        ... on
Keep RI integrals in memory                   ... off

Ibatch:  1 (of  1)
Starting 2-4 index PNO integral generation ... done

Timings:
Total PNO integral transformation time     ...         45.790 sec
Size of the 3-external file                ...       113 MB
Size of the 4-external file                ...       508 MB
Size of the IKJL file                      ...         1 MB
Size of the all 3-external file            ...      1987 MB
Size of the 1-external file                ...        11 MB

Making pair/pair overlap matrices          ... done (   13.027 sec)
Size of the pair overlap file              ... 1019 MB
Redoing the guess amplitudes               ... done (    0.003 sec)

-------------------------
FINAL STARTUP INFORMATION
-------------------------

E(0)                                       ...   -887.134992507
E(L-MP2)                                   ...     -1.707469766
E(L-MP2) including corrections             ...     -1.707524600
Initial E(tot)                             ...   -888.842517106
<T|T>                                      ...      0.546131812
Number of pairs included                   ... 569
Total number of pairs                      ... 630

------------------------------------------------
                  RHF COUPLED CLUSTER ITERATIONS
------------------------------------------------

Number of PNO amplitudes to be optimized   ...       439092
Number of non-PNO amplitudes               ...     26547264
Untruncated number of regular amplitudes   ...     29393280

Iter       E(tot)           E(Corr)          Delta-E          Residual     Time
  0   -888.781255243     -1.644647038      0.062822729      0.020144243   15.44
                           *** Turning on DIIS ***
  1   -888.903924539     -1.767316334     -0.122669296      0.011201135   20.86
  2   -888.961429298     -1.824821093     -0.057504759      0.003836186   15.91
  3   -888.968943640     -1.832335435     -0.007514342      0.002208629   15.93
  4   -888.970490418     -1.833882213     -0.001546778      0.000750346   15.90
  5   -888.970783954     -1.834175748     -0.000293536      0.000376934   15.91
  6   -888.970850876     -1.834242670     -0.000066922      0.000174028   15.88
  7   -888.970861898     -1.834253693     -0.000011023      0.000079356   15.89
  8   -888.970862757     -1.834254552     -0.000000859      0.000024312   15.87
  9   -888.970862332     -1.834254127      0.000000425      0.000006441   15.90
               --- The Coupled-Cluster iterations have converged ---

----------------------
COUPLED CLUSTER ENERGY
----------------------

E(0)                                       ...   -887.134992507
E(CORR)(strong-pairs)                      ...     -1.834254127
E(CORR)(weak-pairs)                        ...     -0.001615699
E(CORR)(corrected)                         ...     -1.835869825
E(TOT)                                     ...   -888.970862332
Singles Norm <S|S>**1/2                    ...      0.068236711  
T1 diagnostic                              ...      0.008155847  

------------------
LARGEST AMPLITUDES
------------------
  30-> 51  30-> 51       0.068189
  28-> 52  28-> 52       0.043783
  48-> 60  48-> 60       0.042879
  45-> 60  45-> 60       0.042766
  49-> 60  49-> 60       0.042133
  47-> 60  47-> 60       0.041997
  46-> 60  46-> 60       0.041819
  50-> 60  50-> 60       0.041608
  37-> 60  37-> 60       0.040044
  33-> 60  33-> 60       0.039601
  41-> 60  41-> 60       0.039299
  43-> 51  43-> 51       0.038166
  32-> 51  32-> 51       0.037800
  34-> 51  34-> 51       0.037772
  38-> 51  38-> 51       0.037702
  42-> 51  42-> 51       0.037684


-------------------------------------------
DLPNO BASED TRIPLES CORRECTION
-------------------------------------------

Singles multiplier          ...  1.000000
TCutTNO                     ... 1.000e-09
TCutMP2Pairs                ... 1.000e-06
TCutDOStrong                ... 1.000e-02
TCutMKNStrong               ... 1.000e-02
TCutDOWeak                  ... 2.000e-02
TCutMKNWeak                 ... 1.000e-01

Fragment selection                          .... not used
Number of Triples that are to be computed   ...      7274

 . . . . . . . . .
10% done  
20% done  
30% done  
40% done  
50% done               (    293.220 sec)
 . . . . . . . . .
60% done  
70% done  
80% done  
90% done               (    152.002 sec)
Triples timings:
Total time for T0               ...   487.548 sec
Total time for Iterative (T)    ...     0.000 sec
Total time of overall (T)       ...   498.260 sec

Triples List generation         ...     0.000 sec
TNO generation                  ...    42.313 sec
Pair density generation         ...     0.006 sec
Look up tables                  ...     0.000 sec
Generating 3-index integrals    ...   275.270 sec
  Make 4-ind.int. from 3-ind.int...    44.607 sec
  Projecting amplitudes (D + S) ...    78.324 sec
  Downprojecting integrals      ...     0.013 sec
  Energy contr. (sum over a,b,c)...    12.947 sec
Fitting ET(->0)                 ...     0.000 sec

Everything after 3-index        ...   169.952 sec

Timing details:
 TNO integrals                  ...   314.867 sec
   Reading 3-index integrals    ...     0.359 sec
   Sorting integrals            ...    44.672 sec
       Sorting integrals 1      ...     0.011 sec
       Sorting integrals 2      ...    26.435 sec
       Sorting integrals 3      ...     1.988 sec
       Sorting integrals 4      ...     0.385 sec
       Sorting integrals 5      ...     0.737 sec
       Sorting integrals 6      ...    15.116 sec
   Calculating local VM**-1/2   ...     2.421 sec
   Orthogonal. integrals        ...     3.444 sec
   Multipl. 3-index integrals   ...   263.971 sec
   All concerning IRIab (w/TNO) ...    21.633 sec

 Calculate W0/W1                ...    34.008 sec
 W 3-ext contribution           ...    16.796 sec
 W 3-int contribution           ...     8.435 sec
 Sorting W                      ...     8.093 sec

 V exchange contribution        ...     5.022 sec

 Timings for Triples without generation
     of 3-index integrals       ...   169.927 sec
       0 weak pairs             ...   153.696 sec
       1 weak pair              ...    16.230 sec
       2 weak pairs             ...     0.000 sec
       3 weak pairs             ...     0.000 sec
  Extra time for extrapolation  ...     0.000 sec

Number of Triples   (0, 1, 2, 3 weak pairs; overall):   5939    1335       0       0  (  7274)
Number of Atoms     (0, 1, 2, 3 weak pairs; overall):   26.0    21.2     0.0     0.0  (    31)
Number of PAOs      (0, 1, 2, 3 weak pairs; overall):  234.0   206.6     0.0     0.0  (   267)
Number of AuxFcns   (0, 1, 2, 3 weak pairs; overall):  315.6   239.4     0.0     0.0  (   958)
Number of TNOs      (0, 1, 2, 3 weak pairs         ):   65.5    49.6     0.0     0.0
Aver. Number of NTNO, Atoms, PAOs, AuxFcns / Triples:   7274    62.5    25.2   229.0   301.6

Triples Correction (T)                     ...     -0.060531493
Final correlation energy                   ...     -1.896401319
E(CCSD)                                    ...   -888.970862332
E(CCSD(T))                                 ...   -889.031393825


Maximum memory used throughout the entire calculation: 8169.4 MB


------------------------------------------------------------------------------- 
                                     TIMINGS                                   
------------------------------------------------------------------------------- 


Total execution time                   ...      967.887 sec

Localization of occupied MO's          ...        0.828 sec (  0.1%)
Fock Matrix Formation                  ...        6.807 sec (  0.7%)
Global overlap, Fock, MKN matrices     ...        0.226 sec (  0.0%)
Differential overlap integrals         ...        0.369 sec (  0.0%)
Organizing maps                        ...        0.140 sec (  0.0%)
RI 3-index integral generations        ...        6.524 sec (  0.7%)
RI-PNO integral transformation         ...      234.026 sec ( 24.2%)
Initial Guess                          ...       56.290 sec (  5.8%)
DIIS Solver                            ...       15.477 sec (  1.6%)
State Vector Update                    ...        0.036 sec (  0.0%)
Sigma-vector construction              ...      163.133 sec ( 16.9%)
  <0|H|D>                              ...        0.001 sec (  0.0% of sigma)
  <D|H|D>(0-ext)                       ...       15.224 sec (  9.3% of sigma)
  <D|H|D>(2-ext Fock)                  ...        0.032 sec (  0.0% of sigma)
  <D|H|D>(2-ext)                       ...       37.268 sec ( 22.8% of sigma)
  <D|H|D>(4-ext)                       ...        5.901 sec (  3.6% of sigma)
  <D|H|D>(4-ext-corr)                  ...       38.478 sec ( 23.6% of sigma)
  CCSD doubles correction              ...        0.865 sec (  0.5% of sigma)
  <S|H|S>                              ...        0.944 sec (  0.6% of sigma)
  <S|H|D>(1-ext)                       ...        1.453 sec (  0.9% of sigma)
  <D|H|S>(1-ext)                       ...        0.047 sec (  0.0% of sigma)
  <S|H|D>(3-ext)                       ...        0.444 sec (  0.3% of sigma)
  Fock-dressing                        ...       33.671 sec ( 20.6% of sigma)
  Singles amplitudes                   ...        1.065 sec (  0.7% of sigma)
  (ik|jl)-dressing                     ...       17.079 sec ( 10.5% of sigma)
  (ij|ab),(ia|jb)-dressing             ...        6.656 sec (  4.1% of sigma)
  Pair energies                        ...        0.012 sec (  0.0% of sigma)
Total Time for computing (T)           ...      498.451 sec ( 51.5% of ALL)


-------------------------   --------------------
FINAL SINGLE POINT ENERGY      -889.031393825153
-------------------------   --------------------


                            ***************************************
                            *     ORCA property calculations      *
                            ***************************************

                                    ---------------------
                                    Active property flags
                                    ---------------------
   (+) Dipole Moment


------------------------------------------------------------------------------
                       ORCA ELECTRIC PROPERTIES CALCULATION
------------------------------------------------------------------------------

Dipole Moment Calculation                       ... on
Quadrupole Moment Calculation                   ... off
Polarizability Calculation                      ... off
GBWName                                         ... bicyclooctyl_CMe2Cl_ts.gbw
Electron density file                           ... bicyclooctyl_CMe2Cl_ts.scfp.tmp
The origin for moment calculation is the CENTER OF MASS  = ( 0.114100,  0.088262  0.000156)

-------------
DIPOLE MOMENT
-------------
                                X             Y             Z
Electronic contribution:     11.00999       8.17709       0.01553
Nuclear contribution   :    -11.63703      -9.00367      -0.01644
                        -----------------------------------------
Total Dipole Moment    :     -0.62704      -0.82658      -0.00091
                        -----------------------------------------
Magnitude (a.u.)       :      1.03750
Magnitude (Debye)      :      2.63713



--------------------
Rotational spectrum 
--------------------
 
Rotational constants in cm-1:     0.047178     0.019413     0.018462 
Rotational constants in MHz :  1414.363160   581.997785   553.465633 

 Dipole components along the rotational axes: 
x,y,z [a.u.] :    -0.660197     0.800347    -0.000460 
x,y,z [Debye]:    -1.678087     2.034320    -0.001169 

 

Timings for individual modules:

Sum of individual times         ...     1056.258 sec (=  17.604 min)
GTO integral calculation        ...       50.943 sec (=   0.849 min)   4.8 %
SCF iterations                  ...       37.015 sec (=   0.617 min)   3.5 %
MDCI module                     ...      968.299 sec (=  16.138 min)  91.7 %
                             ****ORCA TERMINATED NORMALLY****
TOTAL RUN TIME: 0 days 0 hours 17 minutes 36 seconds 555 msec
bicyclooctyl_CMe2Cl_ts.gbw -> /home1/pantazis/klk/VDZ/Energy_barrier/bicyclooctyl_CMe2Cl_ts.gbw
bicyclooctyl_CMe2Cl_ts.ges -> /home1/pantazis/klk/VDZ/Energy_barrier/bicyclooctyl_CMe2Cl_ts.ges
bicyclooctyl_CMe2Cl_ts.job -> /home1/pantazis/klk/VDZ/Energy_barrier/bicyclooctyl_CMe2Cl_ts.job
bicyclooctyl_CMe2Cl_ts.loc -> /home1/pantazis/klk/VDZ/Energy_barrier/bicyclooctyl_CMe2Cl_ts.loc
bicyclooctyl_CMe2Cl_ts.nodes -> /home1/pantazis/klk/VDZ/Energy_barrier/bicyclooctyl_CMe2Cl_ts.nodes
bicyclooctyl_CMe2Cl_ts.prop -> /home1/pantazis/klk/VDZ/Energy_barrier/bicyclooctyl_CMe2Cl_ts.prop
bicyclooctyl_CMe2Cl_ts_property.txt -> /home1/pantazis/klk/VDZ/Energy_barrier/bicyclooctyl_CMe2Cl_ts_property.txt
bicyclooctyl_CMe2Cl_ts.xyz -> /home1/pantazis/klk/VDZ/Energy_barrier/bicyclooctyl_CMe2Cl_ts.xyz
cp: cannot stat bicyclooctyl_CMe2Cl_ts.asa.inp: No such file or directory
