! Job execution by suborca V 6.07 on ZEUS !
Job started from zeus1, running /scratch/pantazis/but_1_ene_3_one_t__dNOrKC/orca/orca copied from /opt/orca on zeussn149 in /scratch/pantazis/but_1_ene_3_one_t__dNOrKC
Job execution start: Sat Jun 29 10:18:42 CEST 2019
Shared library path: /scratch/pantazis/but_1_ene_3_one_t__dNOrKC/orca:/opt/openmpi_1.10.2/lib:/opt/intel/mkl/lib/intel64:/opt/intel/lib/intel64:
PBS Job ID is: 158666.icqc
izeussn149
izeussn149
izeussn149
izeussn149

                                 *****************
                                 * O   R   C   A *
                                 *****************

           --- An Ab Initio, DFT and Semiempirical electronic structure package ---

                  #######################################################
                  #                        -***-                        #
                  #          Department of theory and spectroscopy      #
                  #               Directorship: Frank Neese             #
                  #        Max Planck Institute fuer Kohlenforschung    #
                  #                Kaiser Wilhelm Platz 1               #
                  #                 D-45470 Muelheim/Ruhr               #
                  #                      Germany                        #
                  #                                                     #
                  #                  All rights reserved                #
                  #                        -***-                        #
                  #######################################################


                         Program Version 4.1.x  -  STABLE  -
                                (SVN: $Rev: 14094$)
                ($Date: 2019-06-14 15:01:15 +0200 (Fri, 14 Jun 2019) $)

                         (BUILD: $Sun Jun 23 06:18:31 CEST 2019$)


 With contributions from (in alphabetic order):
   Daniel Aravena         : Magnetic Properties
   Michael Atanasov       : Ab Initio Ligand Field Theory
   Alexander A. Auer      : GIAO ZORA
   Ute Becker             : Parallelization
   Giovanni Bistoni       : ED, Open-shell LED
   Martin Brehm           : Molecular dynamics
   Dmytro Bykov           : SCF Hessian
   Vijay G. Chilkuri      : MRCI spin determinant printing
   Dipayan Datta          : RHF DLPNO-CCSD density
   Achintya Kumar Dutta   : EOM-CC, STEOM-CC
   Dmitry Ganyushin       : Spin-Orbit,Spin-Spin,Magnetic field MRCI
   Miquel Garcia          : C-PCM Hessian
   Yang Guo               : DLPNO-NEVPT2, CIM, IAO-localization
   Andreas Hansen         : Spin unrestricted coupled pair/coupled cluster methods
   Benjamin Helmich-Paris : CASSCF linear response (MC-RPA)
   Lee Huntington         : MR-EOM, pCC
   Robert Izsak           : Overlap fitted RIJCOSX, COSX-SCS-MP3, EOM
   Christian Kollmar      : KDIIS, OOCD, Brueckner-CCSD(T), CCSD density
   Simone Kossmann        : Meta GGA functionals, TD-DFT gradient, OOMP2, MP2 Hessian
   Martin Krupicka        : AUTO-CI
   Lucas Lang             : DCDCAS
   Dagmar Lenk            : GEPOL surface, SMD
   Dimitrios Liakos       : Extrapolation schemes; parallel MDCI
   Dimitrios Manganas     : ROCIS; embedding schemes
   Dimitrios Pantazis     : SARC Basis sets
   Taras Petrenko         : DFT Hessian,TD-DFT gradient, ASA, ECA, R-Raman, ABS, FL, XAS/XES, NRVS
   Peter Pinski           : DLPNO-MP2, DLPNO-MP2 Gradient
   Christoph Reimann      : Effective Core Potentials
   Marius Retegan         : Local ZFS, SOC
   Christoph Riplinger    : Optimizer, TS searches, QM/MM, DLPNO-CCSD(T), (RO)-DLPNO pert. Triples
   Tobias Risthaus        : Range-separated hybrids, TD-DFT gradient, RPA, STAB
   Michael Roemelt        : Restricted open shell CIS
   Masaaki Saitow         : Open-shell DLPNO
   Barbara Sandhoefer     : DKH picture change effects
   Avijit Sen             : IP-ROCIS
   Kantharuban Sivalingam : CASSCF convergence, NEVPT2, FIC-MRCI
   Bernardo de Souza      : ESD, SOC TD-DFT
   Georgi Stoychev        : AutoAux, RI-MP2 NMR
   Willem Van den Heuvel  : Paramagnetic NMR
   Boris Wezisla          : Elementary symmetry handling
   Frank Wennmohs         : Technical directorship


 We gratefully acknowledge several colleagues who have allowed us to
 interface, adapt or use parts of their codes:
   Stefan Grimme, W. Hujo, H. Kruse,             : VdW corrections, initial TS optimization,
                  C. Bannwarth                     DFT functionals, gCP, sTDA/sTD-DF
   Ed Valeev                                     : LibInt (2-el integral package), F12 methods
   Garnet Chan, S. Sharma, J. Yang, R. Olivares  : DMRG
   Ulf Ekstrom                                   : XCFun DFT Library
   Mihaly Kallay                                 : mrcc  (arbitrary order and MRCC methods)
   Andreas Klamt, Michael Diedenhofen            : otool_cosmo (COSMO solvation model)
   Jiri Pittner, Ondrej Demel                    : Mk-CCSD
   Frank Weinhold                                : gennbo (NPA and NBO analysis)
   Christopher J. Cramer and Donald G. Truhlar   : smd solvation model
   Lars Goerigk                                  : TD-DFT with DH, B97 family of functionals
   V. Asgeirsson, H. Jonsson                     : NEB implementation
   FAccTs GmbH                                   : IRC, NEB, NEB-TS, Multilevel


 Your calculation uses the libint2 library for the computation of 2-el integrals
 For citations please refer to: http://libint.valeyev.net

 This ORCA versions uses:
   CBLAS   interface :  Fast vector & matrix operations
   LAPACKE interface :  Fast linear algebra routines
   SCALAPACK package :  Parallel linear algebra routines




***************************************
The coordinates will be read from file: but_1_ene_3_one_t.xyz
***************************************


----- Orbital basis set information -----
Your calculation utilizes the basis: cc-pVDZ 
       H, B-Ne : Obtained from the ccRepo (grant-hill.group.shef.ac.uk/ccrepo) Feb. 2017
                 T. H. Dunning, Jr., J. Chem. Phys. 90, 1007 (1989)
            He : Obtained from the ccRepo (grant-hill.group.shef.ac.uk/ccrepo) Feb. 2017
                 D. E. Woon, T. H. Dunning, Jr., J. Chem. Phys. 100, 2975 (1994)
  Li-Be, Na-Mg : Obtained from the ccRepo (grant-hill.group.shef.ac.uk/ccrepo) Feb. 2017
                 B. P. Prascher, D. E. Woon, K. A. Peterson, T. H. Dunning, Jr., A. K. Wilson, Theor. Chem. Acc. 128, 69 (2011)
         Al-Ar : Obtained from the ccRepo (grant-hill.group.shef.ac.uk/ccrepo) Feb. 2017
                 D. E. Woon, T. H. Dunning, Jr., J. Chem. Phys. 98, 1358 (1993)
            Ca : Obtained from the Peterson Research Group Website (tyr0.chem.wsu.edu/~kipeters) Feb. 2017
                 J. Koput, K. A. Peterson, J. Phys. Chem. 106, 9595 (2002)
         Sc-Zn : Obtained from the ccRepo (grant-hill.group.shef.ac.uk/ccrepo) Feb. 2017
                 N. B. Balabanov, K. A. Peterson, J. Chem. Phys. 123, 064107 (2005)
                 N. B. Balabanov, K. A. Peterson, J. Chem. Phys. 125, 074110 (2006)
         Ga-Kr : Obtained from the ccRepo (grant-hill.group.shef.ac.uk/ccrepo) Feb. 2017
                 A. K. Wilson, D. E. Woon, K. A. Peterson, T. H. Dunning, Jr., J. Chem. Phys. 110, 7667 (1999)

----- AuxC basis set information -----
Your calculation utilizes the auxiliary basis: cc-pVDZ/C 
  H-He, B, Ne, Al-Ar, Ga-Br : Obtained from the EMSL Basis Set Exchange (bse.pnl.gov) Feb. 2017
                              F. Weigend, A. Kohn, C. Hattig, J. Chem. Phys. 116, 3175 (2002)
               Li-Be, Na-Mg : Obtained from the EMSL Basis Set Exchange (bse.pnl.gov) Feb. 2017
                              C. Haettig, Phys. Chem. Chem. Phys. 7, 59 (2005)
                        C-F : Obtained from the EMSL Basis Set Exchange (bse.pnl.gov) Feb. 2017
                              C. Haettig, Phys. Chem. Chem. Phys. 7, 59 (2005)
                              F. Weigend, A. Kohn, C. Hattig, J. Chem. Phys. 116, 3175 (2002)
                         Kr : Obtained from the TURBOMOLE 7.0 basis set library
                              F. Weigend, A. Kohn, C. Hattig, J. Chem. Phys. 116, 3175 (2002)
                              S function revised in Sep. 2009

----- AuxJK basis set information -----
Your calculation utilizes the auxiliary basis: cc-pVTZ/JK 
  H, B-F, Al-Cl, Ga-Br : Obtained from the TURBOMOLE 7.0 basis set library

================================================================================
                                        WARNINGS
                       Please study these warnings very carefully!
================================================================================


WARNING: MDCI localization with Augmented Hessian Foster-Boys
  ===> : Switching off randomization!

WARNING: Post HF methods need fully converged wavefunctions
  ===> : Setting SCFConvForced true
         You can overwrite this default with %scf ConvForced false 


INFO   : the flag for use of LIBINT has been found!

================================================================================
                                       INPUT FILE
================================================================================
NAME = but_1_ene_3_one_t.inp
|  1> ! RHF DLPNO-CCSD(T) cc-pVDZ RIJK cc-pVTZ/JK cc-pVDZ/C
|  2> ! KDIIS SOSCF TightSCF TightPNO
|  3> 
|  4> %pal nprocs 4 end
|  5> 
|  6> %maxcore 8000
|  7> 
|  8> %scf maxiter 300
|  9>      shift shift 0.2 erroff 0.1 end
| 10> end
| 11> 
| 12> * xyzfile 0 1 but_1_ene_3_one_t.xyz 
| 13> 
| 14> 
| 15>                          ****END OF INPUT****
================================================================================

                       ****************************
                       * Single Point Calculation *
                       ****************************

---------------------------------
CARTESIAN COORDINATES (ANGSTROEM)
---------------------------------
  C      1.945110    0.176540    0.000040
  C      0.878620   -0.634170   -0.000000
  C     -0.542480   -0.187460   -0.000620
  O     -1.433600   -1.027810    0.000180
  C     -0.865080    1.296020    0.000130
  H      2.955150   -0.222500    0.000350
  H      1.852740    1.258900   -0.000250
  H      0.997900   -1.715220    0.000350
  H     -1.948550    1.420850    0.000700
  H     -0.442310    1.787190    0.883680
  H     -0.443200    1.787720   -0.883540

----------------------------
CARTESIAN COORDINATES (A.U.)
----------------------------
  NO LB      ZA    FRAG     MASS         X           Y           Z
   0 C     6.0000    0    12.011    3.675725    0.333612    0.000076
   1 C     6.0000    0    12.011    1.660351   -1.198408   -0.000000
   2 C     6.0000    0    12.011   -1.025139   -0.354248   -0.001172
   3 O     8.0000    0    15.999   -2.709111   -1.942279    0.000340
   4 C     6.0000    0    12.011   -1.634764    2.449123    0.000246
   5 H     1.0000    0     1.008    5.584424   -0.420464    0.000661
   6 H     1.0000    0     1.008    3.501171    2.378976   -0.000472
   7 H     1.0000    0     1.008    1.885758   -3.241296    0.000661
   8 H     1.0000    0     1.008   -3.682226    2.685017    0.001323
   9 H     1.0000    0     1.008   -0.835845    3.377300    1.669913
  10 H     1.0000    0     1.008   -0.837527    3.378301   -1.669649

--------------------------------
INTERNAL COORDINATES (ANGSTROEM)
--------------------------------
 C      0   0   0     0.000000000000     0.00000000     0.00000000
 C      1   0   0     1.339646082292     0.00000000     0.00000000
 C      2   1   0     1.489656141027   125.30904440     0.00000000
 O      3   2   1     1.224860652034   119.22944131   180.04143195
 C      3   2   1     1.518151584296   119.71867303   359.93900191
 H      1   2   3     1.086008204067   121.20145681   180.00992584
 H      1   2   3     1.086294375664   122.36300301     0.00000000
 H      2   1   3     1.087610658002   120.94449369   179.99451320
 H      5   3   2     1.090637471711   108.84088230   180.06559694
 H      5   3   2     1.095738583924   110.88102282   300.40613581
 H      5   3   2     1.095730027562   110.87190187    59.73195876

---------------------------
INTERNAL COORDINATES (A.U.)
---------------------------
 C      0   0   0     0.000000000000     0.00000000     0.00000000
 C      1   0   0     2.531564211912     0.00000000     0.00000000
 C      2   1   0     2.815042140255   125.30904440     0.00000000
 O      3   2   1     2.314651184560   119.22944131   180.04143195
 C      3   2   1     2.868890724098   119.71867303   359.93900191
 H      1   2   3     2.052258084878   121.20145681   180.00992584
 H      1   2   3     2.052798870825   122.36300301     0.00000000
 H      2   1   3     2.055286283958   120.94449369   179.99451320
 H      5   3   2     2.061006132926   108.84088230   180.06559694
 H      5   3   2     2.070645837987   110.88102282   300.40613581
 H      5   3   2     2.070629668805   110.87190187    59.73195876

---------------------
BASIS SET INFORMATION
---------------------
There are 3 groups of distinct atoms

 Group   1 Type C   : 17s4p1d contracted to 3s2p1d pattern {881/31/1}
 Group   2 Type O   : 17s4p1d contracted to 3s2p1d pattern {881/31/1}
 Group   3 Type H   : 4s1p contracted to 2s1p pattern {31/1}

Atom   0C    basis set group =>   1
Atom   1C    basis set group =>   1
Atom   2C    basis set group =>   1
Atom   3O    basis set group =>   2
Atom   4C    basis set group =>   1
Atom   5H    basis set group =>   3
Atom   6H    basis set group =>   3
Atom   7H    basis set group =>   3
Atom   8H    basis set group =>   3
Atom   9H    basis set group =>   3
Atom  10H    basis set group =>   3
-------------------------------
AUXILIARY BASIS SET INFORMATION
-------------------------------
There are 3 groups of distinct atoms

 Group   1 Type C   : 7s5p4d2f contracted to 7s5p4d2f pattern {1111111/11111/1111/11}
 Group   2 Type O   : 7s5p4d2f contracted to 7s5p4d2f pattern {1111111/11111/1111/11}
 Group   3 Type H   : 3s2p1d contracted to 3s2p1d pattern {111/11/1}

Atom   0C    basis set group =>   1
Atom   1C    basis set group =>   1
Atom   2C    basis set group =>   1
Atom   3O    basis set group =>   2
Atom   4C    basis set group =>   1
Atom   5H    basis set group =>   3
Atom   6H    basis set group =>   3
Atom   7H    basis set group =>   3
Atom   8H    basis set group =>   3
Atom   9H    basis set group =>   3
Atom  10H    basis set group =>   3
-------------------------------
AUXILIARY BASIS SET INFORMATION
-------------------------------
There are 3 groups of distinct atoms

 Group   1 Type C   : 10s7p5d2f1g contracted to 10s7p5d2f1g pattern {1111111111/1111111/11111/11/1}
 Group   2 Type O   : 10s7p5d2f1g contracted to 10s7p5d2f1g pattern {1111111111/1111111/11111/11/1}
 Group   3 Type H   : 4s3p2d1f contracted to 4s3p2d1f pattern {1111/111/11/1}

Atom   0C    basis set group =>   1
Atom   1C    basis set group =>   1
Atom   2C    basis set group =>   1
Atom   3O    basis set group =>   2
Atom   4C    basis set group =>   1
Atom   5H    basis set group =>   3
Atom   6H    basis set group =>   3
Atom   7H    basis set group =>   3
Atom   8H    basis set group =>   3
Atom   9H    basis set group =>   3
Atom  10H    basis set group =>   3

Checking for AutoStart:
The File: but_1_ene_3_one_t.gbw exists
Trying to determine its content:
     ... Fine, the file contains calculation information
     ... Fine, the calculation information was read
     ... Fine, the file contains a basis set
     ... Fine, the basis set was read
     ... Fine, the file contains a geometry
     ... Fine, the geometry was read
     ... Fine, the file contains a set of orbitals
     ... Fine, the orbitals can be read
     => possible old guess file was deleted
     => GBW file was renamed to GES file
     => GES file is set as startup file
     => Guess is set to MORead
     ... now leaving AutoStart



           ************************************************************
           *        Program running with 4 parallel MPI-processes     *
           *              working on a common directory               *
           ************************************************************
------------------------------------------------------------------------------
                           ORCA GTO INTEGRAL CALCULATION
                           -- RI-GTO INTEGRALS CHOSEN --
------------------------------------------------------------------------------

                         BASIS SET STATISTICS AND STARTUP INFO

Gaussian basis set:
 # of primitive gaussian shells          ...  140
 # of primitive gaussian functions       ...  212
 # of contracted shells                  ...   48
 # of contracted basis functions         ...  100
 Highest angular momentum                ...    2
 Maximum contraction depth               ...    8
Auxiliary gaussian basis set:
 # of primitive gaussian shells          ...  185
 # of primitive gaussian functions       ...  575
 # of contracted shells                  ...  185
 # of contracted aux-basis functions     ...  575
 Highest angular momentum                ...    4
 Maximum contraction depth               ...    1
Ratio of auxiliary to basis functions    ...  5.75
Integral package used                  ... LIBINT
 One Electron integrals                  ... done
 Ordering auxiliary basis shells         ... done
 Integral threshhold             Thresh  ...  2.500e-11
 Primitive cut-off               TCut    ...  2.500e-12
 Pre-screening matrix                    ... done
 Shell pair data                         ... 
 Ordering of the shell pairs             ... done (   0.000 sec) 1173 of 1176 pairs
 Determination of significant pairs      ... done (   0.000 sec)
 Creation of shell pair data             ... done (   0.001 sec)
 Storage of shell pair data              ... done (   0.001 sec)
 Shell pair data done in (   0.001 sec)
 Computing two index integrals           ... done
 Cholesky decomposition of the V-matrix  ... done


Timings:
 Total evaluation time                   ...  42.418 sec (  0.707 min)
 One electron matrix time                ...  42.145 sec (  0.702 min) = 99.4%
 Schwartz matrix evaluation time         ...   0.149 sec (  0.002 min) =  0.4%
 Two index repulsion integral time       ...   0.047 sec (  0.001 min) =  0.1%
 Cholesky decomposition of V             ...   0.049 sec (  0.001 min) =  0.1%
 Three index repulsion integral time     ...   0.000 sec (  0.000 min) =  0.0%



           ************************************************************
           *        Program running with 4 parallel MPI-processes     *
           *              working on a common directory               *
           ************************************************************
-------------------------------------------------------------------------------
                                 ORCA SCF
-------------------------------------------------------------------------------

------------
SCF SETTINGS
------------
Hamiltonian:
 Ab initio Hamiltonian  Method          .... Hartree-Fock(GTOs)
 RI-approximation to the Coulomb term is turned on
   Number of auxiliary basis functions  .... 575
   RI-JK (J+K treated both via RI)      .... on


General Settings:
 Integral files         IntName         .... but_1_ene_3_one_t
 Hartree-Fock type      HFTyp           .... RHF
 Total Charge           Charge          ....    0
 Multiplicity           Mult            ....    1
 Number of Electrons    NEL             ....   38
 Basis Dimension        Dim             ....  100
 Nuclear Repulsion      ENuc            ....    159.7100396381 Eh

Convergence Acceleration:
 DIIS                   CNVDIIS         .... off
 Newton-Raphson         CNVNR           .... off
 SOSCF                  CNVSOSCF        .... on
   Start iteration      SOSCFMaxIt      ....   150
   Startup grad/error   SOSCFStart      ....  0.003300
 Level Shifting         CNVShift        .... on
   Level shift para.    LevelShift      ....    0.2000
   Turn off err/grad.   ShiftErr        ....    0.1000
 Zerner damping         CNVZerner       .... off
 Static damping         CNVDamp         .... off
 Fernandez-Rico         CNVRico         .... off

SCF Procedure:
 Maximum # iterations   MaxIter         ....   300
 SCF integral mode      SCFMode         .... Direct
   Integral package                     .... LIBINT
 Reset frequency        DirectResetFreq ....    20
 Integral Threshold     Thresh          ....  2.500e-11 Eh
 Primitive CutOff       TCut            ....  2.500e-12 Eh

Convergence Tolerance:
 Convergence Check Mode ConvCheckMode   .... Total+1el-Energy
 Convergence forced     ConvForced      .... 1
 Energy Change          TolE            ....  1.000e-08 Eh
 1-El. energy change                    ....  1.000e-05 Eh
 Orbital Gradient       TolG            ....  1.000e-05
 Orbital Rotation angle TolX            ....  1.000e-05


Diagonalization of the overlap matrix:
Smallest eigenvalue                        ... 2.191e-03
Time for diagonalization                   ...    0.004 sec
Threshold for overlap eigenvalues          ... 1.000e-08
Number of eigenvalues below threshold      ... 0
Time for construction of square roots      ...    0.011 sec
Total time needed                          ...    0.015 sec

---------------------
INITIAL GUESS: MOREAD
---------------------
Guess MOs are being read from file: but_1_ene_3_one_t.ges
Input Geometry matches current geometry (good)
Atom 0: N(Shells)= 6 and 10 - projection required
Input basis set needs projection
NBasis(read)= 234
NBasis(calc)= 100
Basis set overlap was calculated
Using GuessMode=FMatrix for the initial guess
C*T matrix was formed
Effective Fockian was calculated
Effective Fockian was diagonalized
Initial density was built
                      ------------------
                      INITIAL GUESS DONE (   0.0 sec)
                      ------------------
--------------
SCF ITERATIONS
--------------
ITER       Energy         Delta-E        Max-DP      RMS-DP      [F,P]   Gradient Norm
                             ****Turning on KDIIS(Cayley)****
  0   -229.8229545620   0.000000000000 0.00169151  0.00010798  0.0066047   0.006001775
  1   -229.8230599753  -0.000105413281 0.00337886  0.00021234  0.0059924   0.005418569
  2   -229.8232230075  -0.000163032272 0.00566710  0.00035255  0.0048039   0.004402723
                      *** Initiating the SOSCF procedure ***
                           *** Shutting down KDIIS ***
                      *** Re-Reading the Fockian *** 
                      *** Removing any level shift *** 
ITER      Energy       Delta-E        Grad      Rot      Max-DP    RMS-DP
  3   -229.82342892  -0.0002059123  0.002879  0.002879  0.008600  0.000533
  4   -229.82354923  -0.0001203112  0.000098  0.000165  0.000261  0.000007
  5   -229.82354936  -0.0000001329  0.000039  0.000097  0.000203  0.000008
  6   -229.82354943  -0.0000000693  0.000012  0.000041  0.000064  0.000002
  7   -229.82354944  -0.0000000043  0.000005  0.000003  0.000009  0.000000
                  ***Gradient check signals convergence***
              ***Rediagonalizing the Fockian in SOSCF/NRSCF***

               *****************************************************
               *                     SUCCESS                       *
               *           SCF CONVERGED AFTER   8 CYCLES          *
               *****************************************************


----------------
TOTAL SCF ENERGY
----------------

Total Energy       :         -229.82354944 Eh           -6253.81672 eV

Components:
Nuclear Repulsion  :          159.71003964 Eh            4345.93112 eV
Electronic Energy  :         -389.53358908 Eh          -10599.74784 eV
One Electron Energy:         -627.84982862 Eh          -17084.66240 eV
Two Electron Energy:          238.31623955 Eh            6484.91456 eV

Virial components:
Potential Energy   :         -459.29901629 Eh          -12498.16163 eV
Kinetic Energy     :          229.47546686 Eh            6244.34491 eV
Virial Ratio       :            2.00151686


---------------
SCF CONVERGENCE
---------------

  Last Energy change         ...   -4.4162e-10  Tolerance :   1.0000e-08
  Last MAX-Density change    ...    4.0575e-06  Tolerance :   1.0000e-07
  Last RMS-Density change    ...    1.7463e-07  Tolerance :   5.0000e-09
  Last Orbital Gradient      ...    1.5861e-06  Tolerance :   1.0000e-05
  Last Orbital Rotation      ...    2.6389e-06  Tolerance :   1.0000e-05

             **** THE GBW FILE WAS UPDATED (but_1_ene_3_one_t.gbw) ****
             **** DENSITY FILE WAS UPDATED (but_1_ene_3_one_t.scfp.tmp) ****
             **** ENERGY FILE WAS UPDATED (but_1_ene_3_one_t.en.tmp) ****
----------------
ORBITAL ENERGIES
----------------

  NO   OCC          E(Eh)            E(eV) 
   0   2.0000     -20.548037      -559.1405 
   1   2.0000     -11.337464      -308.5081 
   2   2.0000     -11.268283      -306.6256 
   3   2.0000     -11.254349      -306.2464 
   4   2.0000     -11.242819      -305.9327 
   5   2.0000      -1.380129       -37.5552 
   6   2.0000      -1.081620       -29.4324 
   7   2.0000      -0.996736       -27.1226 
   8   2.0000      -0.860816       -23.4240 
   9   2.0000      -0.731134       -19.8952 
  10   2.0000      -0.667713       -18.1694 
  11   2.0000      -0.648811       -17.6550 
  12   2.0000      -0.600068       -16.3287 
  13   2.0000      -0.588721       -16.0199 
  14   2.0000      -0.559468       -15.2239 
  15   2.0000      -0.534399       -14.5417 
  16   2.0000      -0.501026       -13.6336 
  17   2.0000      -0.416694       -11.3388 
  18   2.0000      -0.390398       -10.6233 
  19   0.0000       0.092155         2.5077 
  20   0.0000       0.180726         4.9178 
  21   0.0000       0.206020         5.6061 
  22   0.0000       0.229872         6.2551 
  23   0.0000       0.235319         6.4034 
  24   0.0000       0.259708         7.0670 
  25   0.0000       0.271019         7.3748 
  26   0.0000       0.279131         7.5955 
  27   0.0000       0.364080         9.9071 
  28   0.0000       0.438092        11.9211 
  29   0.0000       0.459739        12.5101 
  30   0.0000       0.478574        13.0227 
  31   0.0000       0.630513        17.1571 
  32   0.0000       0.638140        17.3647 
  33   0.0000       0.667667        18.1681 
  34   0.0000       0.679205        18.4821 
  35   0.0000       0.687447        18.7064 
  36   0.0000       0.752868        20.4866 
  37   0.0000       0.763957        20.7883 
  38   0.0000       0.767662        20.8891 
  39   0.0000       0.827173        22.5085 
  40   0.0000       0.846563        23.0362 
  41   0.0000       0.857224        23.3263 
  42   0.0000       0.860342        23.4111 
  43   0.0000       0.876743        23.8574 
  44   0.0000       0.910036        24.7633 
  45   0.0000       0.929607        25.2959 
  46   0.0000       0.958031        26.0693 
  47   0.0000       0.982385        26.7320 
  48   0.0000       1.026524        27.9331 
  49   0.0000       1.114384        30.3239 
  50   0.0000       1.132332        30.8123 
  51   0.0000       1.143574        31.1182 
  52   0.0000       1.186138        32.2765 
  53   0.0000       1.246448        33.9176 
  54   0.0000       1.256853        34.2007 
  55   0.0000       1.297866        35.3167 
  56   0.0000       1.325291        36.0630 
  57   0.0000       1.353551        36.8320 
  58   0.0000       1.417740        38.5787 
  59   0.0000       1.488284        40.4983 
  60   0.0000       1.589790        43.2604 
  61   0.0000       1.620770        44.1034 
  62   0.0000       1.662644        45.2428 
  63   0.0000       1.684043        45.8251 
  64   0.0000       1.705117        46.3986 
  65   0.0000       1.749375        47.6029 
  66   0.0000       1.760583        47.9079 
  67   0.0000       1.839833        50.0644 
  68   0.0000       1.867754        50.8242 
  69   0.0000       1.873308        50.9753 
  70   0.0000       1.914525        52.0969 
  71   0.0000       1.920465        52.2585 
  72   0.0000       1.941771        52.8383 
  73   0.0000       1.960319        53.3430 
  74   0.0000       1.995016        54.2872 
  75   0.0000       2.033814        55.3429 
  76   0.0000       2.093714        56.9728 
  77   0.0000       2.135773        58.1173 
  78   0.0000       2.182517        59.3893 
  79   0.0000       2.262108        61.5551 
  80   0.0000       2.276062        61.9348 
  81   0.0000       2.298617        62.5486 
  82   0.0000       2.307174        62.7814 
  83   0.0000       2.463244        67.0283 
  84   0.0000       2.465729        67.0959 
  85   0.0000       2.505047        68.1658 
  86   0.0000       2.544663        69.2438 
  87   0.0000       2.608757        70.9879 
  88   0.0000       2.722771        74.0904 
  89   0.0000       2.749235        74.8105 
  90   0.0000       2.777423        75.5775 
  91   0.0000       2.793130        76.0049 
  92   0.0000       2.903122        78.9980 
  93   0.0000       3.050187        82.9998 
  94   0.0000       3.088248        84.0355 
  95   0.0000       3.098838        84.3237 
  96   0.0000       3.428826        93.3031 
  97   0.0000       3.466694        94.3335 
  98   0.0000       3.751513       102.0839 
  99   0.0000       3.869494       105.2943 

                    ********************************
                    * MULLIKEN POPULATION ANALYSIS *
                    ********************************

-----------------------
MULLIKEN ATOMIC CHARGES
-----------------------
   0 C :    0.004391
   1 C :   -0.133753
   2 C :    0.146439
   3 O :   -0.343938
   4 C :   -0.032905
   5 H :    0.069382
   6 H :    0.057722
   7 H :    0.049342
   8 H :    0.066324
   9 H :    0.058536
  10 H :    0.058461
Sum of atomic charges:   -0.0000000

--------------------------------
MULLIKEN REDUCED ORBITAL CHARGES
--------------------------------
  0 C s       :     3.063009  s :     3.063009
      pz      :     0.920973  p :     2.874174
      px      :     0.977798
      py      :     0.975403
      dz2     :     0.001977  d :     0.058426
      dxz     :     0.009667
      dyz     :     0.004969
      dx2y2   :     0.026753
      dxy     :     0.015060
  1 C s       :     3.176473  s :     3.176473
      pz      :     0.985782  p :     2.884031
      px      :     0.919677
      py      :     0.978571
      dz2     :     0.004008  d :     0.073250
      dxz     :     0.009709
      dyz     :     0.006854
      dx2y2   :     0.032642
      dxy     :     0.020037
  2 C s       :     3.153326  s :     3.153326
      pz      :     0.683796  p :     2.504313
      px      :     0.863802
      py      :     0.956716
      dz2     :     0.008292  d :     0.195921
      dxz     :     0.027300
      dyz     :     0.026250
      dx2y2   :     0.087151
      dxy     :     0.046927
  3 O s       :     3.770896  s :     3.770896
      pz      :     1.330612  p :     4.552711
      px      :     1.599585
      py      :     1.622513
      dz2     :     0.002269  d :     0.020332
      dxz     :     0.003535
      dyz     :     0.003103
      dx2y2   :     0.003693
      dxy     :     0.007732
  4 C s       :     3.005665  s :     3.005665
      pz      :     1.007105  p :     2.974432
      px      :     1.035173
      py      :     0.932154
      dz2     :     0.010203  d :     0.052808
      dxz     :     0.007193
      dyz     :     0.009408
      dx2y2   :     0.017875
      dxy     :     0.008129
  5 H s       :     0.898364  s :     0.898364
      pz      :     0.004867  p :     0.032254
      px      :     0.020428
      py      :     0.006959
  6 H s       :     0.910074  s :     0.910074
      pz      :     0.004898  p :     0.032205
      px      :     0.004506
      py      :     0.022800
  7 H s       :     0.918862  s :     0.918862
      pz      :     0.005119  p :     0.031796
      px      :     0.003796
      py      :     0.022881
  8 H s       :     0.902513  s :     0.902513
      pz      :     0.005149  p :     0.031162
      px      :     0.021952
      py      :     0.004061
  9 H s       :     0.909836  s :     0.909836
      pz      :     0.015910  p :     0.031628
      px      :     0.007455
      py      :     0.008264
 10 H s       :     0.909912  s :     0.909912
      pz      :     0.015911  p :     0.031627
      px      :     0.007446
      py      :     0.008271


                     *******************************
                     * LOEWDIN POPULATION ANALYSIS *
                     *******************************

----------------------
LOEWDIN ATOMIC CHARGES
----------------------
   0 C :    0.000894
   1 C :   -0.056686
   2 C :    0.004455
   3 O :   -0.098536
   4 C :   -0.060140
   5 H :    0.034161
   6 H :    0.026822
   7 H :    0.036498
   8 H :    0.039276
   9 H :    0.036644
  10 H :    0.036613

-------------------------------
LOEWDIN REDUCED ORBITAL CHARGES
-------------------------------
  0 C s       :     2.842627  s :     2.842627
      pz      :     0.892569  p :     2.998980
      px      :     1.057346
      py      :     1.049066
      dz2     :     0.011051  d :     0.157499
      dxz     :     0.016548
      dyz     :     0.009016
      dx2y2   :     0.075539
      dxy     :     0.045346
  1 C s       :     2.838229  s :     2.838229
      pz      :     0.941666  p :     3.022858
      px      :     1.035928
      py      :     1.045264
      dz2     :     0.014599  d :     0.195599
      dxz     :     0.022181
      dyz     :     0.010597
      dx2y2   :     0.088631
      dxy     :     0.059591
  2 C s       :     2.851575  s :     2.851575
      pz      :     0.681714  p :     2.713056
      px      :     1.009431
      py      :     1.021911
      dz2     :     0.023400  d :     0.430914
      dxz     :     0.052686
      dyz     :     0.047546
      dx2y2   :     0.194833
      dxy     :     0.112449
  3 O s       :     3.500606  s :     3.500606
      pz      :     1.305326  p :     4.566082
      px      :     1.620218
      py      :     1.640538
      dz2     :     0.004311  d :     0.031848
      dxz     :     0.003624
      dyz     :     0.003161
      dx2y2   :     0.006522
      dxy     :     0.014229
  4 C s       :     2.800970  s :     2.800970
      pz      :     1.050105  p :     3.112883
      px      :     1.055745
      py      :     1.007033
      dz2     :     0.029040  d :     0.146287
      dxz     :     0.018284
      dyz     :     0.029411
      dx2y2   :     0.047407
      dxy     :     0.022145
  5 H s       :     0.883056  s :     0.883056
      pz      :     0.015944  p :     0.082783
      px      :     0.046140
      py      :     0.020699
  6 H s       :     0.889945  s :     0.889945
      pz      :     0.016066  p :     0.083232
      px      :     0.015336
      py      :     0.051831
  7 H s       :     0.881121  s :     0.881121
      pz      :     0.016654  p :     0.082381
      px      :     0.013507
      py      :     0.052220
  8 H s       :     0.880324  s :     0.880324
      pz      :     0.015266  p :     0.080400
      px      :     0.050489
      py      :     0.014645
  9 H s       :     0.882841  s :     0.882841
      pz      :     0.037086  p :     0.080515
      px      :     0.020498
      py      :     0.022932
 10 H s       :     0.882870  s :     0.882870
      pz      :     0.037089  p :     0.080517
      px      :     0.020480
      py      :     0.022949


                      *****************************
                      * MAYER POPULATION ANALYSIS *
                      *****************************

  NA   - Mulliken gross atomic population
  ZA   - Total nuclear charge
  QA   - Mulliken gross atomic charge
  VA   - Mayer's total valence
  BVA  - Mayer's bonded valence
  FA   - Mayer's free valence

  ATOM       NA         ZA         QA         VA         BVA        FA
  0 C      5.9956     6.0000     0.0044     3.9142     3.9142    -0.0000
  1 C      6.1338     6.0000    -0.1338     3.9796     3.9796     0.0000
  2 C      5.8536     6.0000     0.1464     4.1585     4.1585     0.0000
  3 O      8.3439     8.0000    -0.3439     2.1412     2.1412    -0.0000
  4 C      6.0329     6.0000    -0.0329     3.9108     3.9108    -0.0000
  5 H      0.9306     1.0000     0.0694     0.9749     0.9749    -0.0000
  6 H      0.9423     1.0000     0.0577     0.9843     0.9843     0.0000
  7 H      0.9507     1.0000     0.0493     0.9983     0.9983    -0.0000
  8 H      0.9337     1.0000     0.0663     0.9969     0.9969    -0.0000
  9 H      0.9415     1.0000     0.0585     0.9764     0.9764    -0.0000
 10 H      0.9415     1.0000     0.0585     0.9764     0.9764    -0.0000

  Mayer bond orders larger than 0.1
B(  0-C ,  1-C ) :   1.9486 B(  0-C ,  5-H ) :   0.9638 B(  0-C ,  6-H ) :   0.9629 
B(  1-C ,  2-C ) :   1.0406 B(  1-C ,  7-H ) :   0.9691 B(  2-C ,  3-O ) :   2.0497 
B(  2-C ,  4-C ) :   1.0330 B(  4-C ,  8-H ) :   0.9728 B(  4-C ,  9-H ) :   0.9631 
B(  4-C , 10-H ) :   0.9631 

-------
TIMINGS
-------

Total SCF time: 0 days 0 hours 0 min 2 sec 

Total time                  ....       2.672 sec
Sum of individual times     ....       2.495 sec  ( 93.4%)

Fock matrix formation       ....       2.460 sec  ( 92.1%)
Diagonalization             ....       0.005 sec  (  0.2%)
Density matrix formation    ....       0.001 sec  (  0.0%)
Population analysis         ....       0.004 sec  (  0.2%)
Initial guess               ....       0.021 sec  (  0.8%)
Orbital Transformation      ....       0.000 sec  (  0.0%)
Orbital Orthonormalization  ....       0.000 sec  (  0.0%)
DIIS solution               ....       0.000 sec  (  0.0%)
SOSCF solution              ....       0.004 sec  (  0.2%)


           ************************************************************
           *        Program running with 4 parallel MPI-processes     *
           *              working on a common directory               *
           ************************************************************


------------------------------------------------------------------------------- 
                              ORCA-MATRIX DRIVEN CI                            
------------------------------------------------------------------------------- 


Wavefunction type
-----------------
Correlation treatment                      ...      CCSD     
Single excitations                         ... ON
Orbital optimization                       ... OFF
Calculation of Z vector                    ... OFF
Calculation of Brueckner orbitals          ... OFF
Perturbative triple excitations            ... ON
Calculation of F12 correction              ... OFF
Frozen core treatment                      ... chemical core (10 el)
Reference Wavefunction                     ... RHF
  Internal Orbitals:     5 ...   18 ( 14 MO's/ 28 electrons)
  Virtual  Orbitals:    19 ...   99 ( 81 MO's              )
Number of AO's                             ...    100
Number of electrons                        ...     38
Number of correlated electrons             ...     28

Algorithmic settings
--------------------
Integral transformation                    ... All integrals via the RI transformation
K(C) Formation                             ... RI-DLPNO
   PNO-Integral Storage                    ... ON DISK
   PNO occupation number cut-off           ... 1.000e-07
   Singles PNO occupation number cut-off   ... 3.000e-09
   PNO Mulliken prescreening cut-off       ... 1.000e-03
   Domain cut-off (Mulliken population)    ... 1.000e-03
   PNO Normalization                       ...    1
Maximum number of iterations               ...        50
Convergence tolerance (max. residuum)      ... 1.000e-05
Level shift for amplitude update           ... 2.000e-01
Maximum number of DIIS vectors             ...         7
DIIS turned on at iteration                ...         0
Damping before turning on DIIS             ...     0.500
Damping after turning on DIIS              ...     0.000
Pair specific amplitude update             ... OFF
Natural orbital iterations                 ... OFF
Perturbative natural orbital generation    ... OFF
Printlevel                                 ... 2

Singles Fock matrix elements calculated using PNOs.

Memory handling:
----------------
Maximum memory for working arrays          ...   8000 MB
Data storage in matrix containers          ... UNCOMPRESSED
Data type for integral storage             ... DOUBLE
In-Core Storage of quantities:
   Amplitudes+Sigma Vector      ... NO
   J+K operators                ... NO
   DIIS vectors                 ... NO
   3-external integrals         ... NO
   4-external integrals         ... NO

Localization treatment:
-----------------------
Localization option                        ...    6
Localization threshhold                    ... -1.0e+00
Using relative localization threshhold     ... 1.0e-08
Neglect threshold for strong pairs         ... 1.000e-05 Eh
Prescreening threshold for very weak pairs ... 1.000e-07 Eh

Initializing the integral package          ... done
Localizing the valence orbitals
------------------------------------------------------------------------------
                           ORCA ORBITAL LOCALIZATION
------------------------------------------------------------------------------

Input orbitals are from                  ... but_1_ene_3_one_t.proc0.gbw
Output orbitals are to                   ... but_1_ene_3_one_t.proc0.loc
Max. number of iterations                ... 128
Localizations seeded randomly            ... off
Convergence tolerance                    ... 1.000e-06
Using relative localization threshhold   ... 1.000e-08
Treshold for strong local MOs            ... 9.500e-01
Treshold for bond MOs                    ... 8.500e-01
Operator                                 ... 0
Orbital range for localization           ... 5 to 18
Localization criterion                   ... FOSTER-BOYS (AUGMENTED HESSIAN)
Doing the dipole integrals     ... o.k.
Initial value of the localization sum :   129.353575
ITERATION   0 : L=  143.6027801974 DL=  1.42e+01 (AVERGE_DL)=    0.3957078121 
ITERATION   1 : L=  146.0290848608 DL=  2.43e+00 (AVERGE_DL)=    0.1632871355 
ITERATION   2 : L=  146.1078652417 DL=  7.88e-02 (AVERGE_DL)=    0.0294230942 
ITERATION   3 : L=  146.1106565240 DL=  2.79e-03 (AVERGE_DL)=    0.0055383601 
ITERATION   4 : L=  146.1109185414 DL=  2.62e-04 (AVERGE_DL)=    0.0016968537 
ITERATION   5 : L=  146.1109380678 DL=  1.95e-05 (AVERGE_DL)=    0.0004632227 
ITERATION   6 : L=  146.1109395668 DL=  1.50e-06 (AVERGE_DL)=    0.0001283454 
ITERATION   7 : L=  146.1109396739 DL=  1.07e-07 (AVERGE_DL)=    0.0000343139 
LOCALIZATION SUM CONVERGED

------------------------------------------------------
AUGMENTED HESSIAN OPTIMIZATION OF FOSTER-BOYS ORBITALS
------------------------------------------------------

Spin operator:           0
Orbital window:          5 to 18
Number of iterations:    128
Gradient tolerance:      1.000e-06
Number of pairs:         91
Davidson threshold:      2000
Diagonalization method:  LAPACK
Iter:    0   L: 146.1109396739   Grad. norm: 7.570097e-04
   *** Likely close to a maximum now. ***
       Augmented Hessian eigenvalues:  2.04e-08 -1.71e+00 -2.51e+00 -3.37e+00 ... 
Iter:    1   L: 146.1109396841   Grad. norm: 8.094906e-09
LOCALIZATION HAS CONVERGED.

Eigenvalues of the Hessian:
  0 -1.708e+00
  1 -2.512e+00
  2 -3.371e+00
  3 -5.303e+00
  4 -5.629e+00
  5 -6.967e+00
  6 -7.431e+00
  7 -1.640e+01
  8 -1.692e+01
  9 -1.741e+01
    ...


------------------------------------------------------------------------------- 
                    LOCALIZED MOLECULAR ORBITAL COMPOSITIONS                   
------------------------------------------------------------------------------- 

The Mulliken populations for each LMO on each atom are computed
The LMO`s will be ordered according to atom index and type
  (A) Strongly localized MO`s have populations of >=0.950 on one atom
  (B) Two center bond orbitals have populations of >=0.850 on two atoms
  (C) Other MO`s are considered to be `delocalized`

FOUND  -   2 strongly local MO`s
       -  12 two center bond MO`s
       -   0 significantly delocalized MO`s

Rather strongly localized orbitals:
MO   6:   3O  -   0.959667
MO   5:   3O  -   0.955099
Bond-like localized orbitals:
MO  18:  10H  -   0.486577  and   4C  -   0.512366
MO  17:   9H  -   0.486528  and   4C  -   0.512435
MO  16:   8H  -   0.474136  and   4C  -   0.530416
MO  15:   7H  -   0.480101  and   1C  -   0.526106
MO  14:   6H  -   0.481776  and   0C  -   0.520442
MO  13:   5H  -   0.478447  and   0C  -   0.520415
MO  12:   4C  -   0.494177  and   2C  -   0.556188
MO  11:   3O  -   0.636466  and   2C  -   0.370661
MO  10:   3O  -   0.636650  and   2C  -   0.370487
MO   9:   2C  -   0.510938  and   1C  -   0.544152
MO   8:   1C  -   0.505585  and   0C  -   0.492274
MO   7:   1C  -   0.505748  and   0C  -   0.492119
Localized MO's were stored in: but_1_ene_3_one_t.proc0.loc

Localizing the core orbitals
------------------------------------------------------------------------------
                           ORCA ORBITAL LOCALIZATION
------------------------------------------------------------------------------

Input orbitals are from                  ... but_1_ene_3_one_t.proc0.loc
Output orbitals are to                   ... but_1_ene_3_one_t.proc0.loc
Max. number of iterations                ... 128
Localizations seeded randomly            ... off
Convergence tolerance                    ... 1.000e-06
Using relative localization threshhold   ... 1.000e-08
Treshold for strong local MOs            ... 9.500e-01
Treshold for bond MOs                    ... 8.500e-01
Operator                                 ... 0
Orbital range for localization           ... 0 to 4
Localization criterion                   ... FOSTER-BOYS (AUGMENTED HESSIAN)
Doing the dipole integrals     ... o.k.
Initial value of the localization sum :    38.772557
ITERATION   0 : L=   38.7725611960 DL=  4.43e-06 (AVERGE_DL)=    0.0006659342 
ITERATION   1 : L=   38.7725611960 DL=  0.00e+00 (AVERGE_DL)=    0.0000000000 
LOCALIZATION SUM CONVERGED

------------------------------------------------------
AUGMENTED HESSIAN OPTIMIZATION OF FOSTER-BOYS ORBITALS
------------------------------------------------------

Spin operator:           0
Orbital window:          0 to 4
Number of iterations:    128
Gradient tolerance:      1.000e-06
Number of pairs:         10
Davidson threshold:      2000
Diagonalization method:  LAPACK
Iter:    0   L: 38.7725611960   Grad. norm: 2.070293e-06
   *** Likely close to a maximum now. ***
       Augmented Hessian eigenvalues:  6.18e-14 -2.14e+01 -2.56e+01 -3.17e+01 ... 
Iter:    1   L: 38.7725611960   Grad. norm: 1.172953e-19
LOCALIZATION HAS CONVERGED.

Eigenvalues of the Hessian:
  0 -2.142e+01
  1 -2.564e+01
  2 -3.170e+01
  3 -3.292e+01
  4 -7.858e+01
  5 -8.175e+01
  6 -9.029e+01
  7 -9.665e+01
  8 -1.307e+02
  9 -1.838e+02


------------------------------------------------------------------------------- 
                    LOCALIZED MOLECULAR ORBITAL COMPOSITIONS                   
------------------------------------------------------------------------------- 

The Mulliken populations for each LMO on each atom are computed
The LMO`s will be ordered according to atom index and type
  (A) Strongly localized MO`s have populations of >=0.950 on one atom
  (B) Two center bond orbitals have populations of >=0.850 on two atoms
  (C) Other MO`s are considered to be `delocalized`

FOUND  -   5 strongly local MO`s
       -   0 two center bond MO`s
       -   0 significantly delocalized MO`s

Rather strongly localized orbitals:
MO   4:   4C  -   0.999391
MO   3:   3O  -   0.999649
MO   2:   2C  -   0.999777
MO   1:   1C  -   0.999360
MO   0:   0C  -   0.999641
Localized MO's were stored in: but_1_ene_3_one_t.proc0.loc

Warning: internal orbitals are localized - no re-canonicalization of internal orbitals

--------------------------
CLOSED-SHELL FOCK OPERATOR
--------------------------

RI-JK section for the Fock operator:
  RHF full Fock operator         ... done
  RHF frozen core Fock operator  ... done
Time needed for Fock operator              ...            0.662 sec
Reference energy                           ...   -229.823549438

--------------
DLPNO SETTINGS (2015 fully linear scaling implementation)
--------------

TCutMKN:           1.000e-03
TCutPAO:           1.000e-03
TCutPNO:           1.000e-07
TCutPNOSingles:    3.000e-09
TCutEN:            9.700e-01
TCutPAOExt:        1.000e-01
TCutPairs:         1.000e-05
TCutPre:           1.000e-07
TCutOSV:           1.000e-06
TCutDOij:          1.000e-05
TCutDO:            5.000e-03
TCutC:             1.000e-04
TCutCPAO:          1.000e-03
TCutCMO:           1.000e-03
TScaleDOMP2PreScr: 2.000e+00
TScaleMKNMP2PreScr:1.000e+01
TScalePNOMP2PreScr:1.000e+00
PAO overlap thresh 1.000e-08
Using PNOs for Singles Fock computation
Use new domains
Use fully linear algorithm
TCutTNO:           1.000e-09
TCutMP2Pairs:      1.000e-06
TCutDOStrong:      2.000e-03
TCutMKNStrong:     1.000e-02
TCutMKNWeak:       1.000e-01
TCutDOWeak:        4.000e-03
NTCutTNO:          1

--------------------------
Calculating differential overlap integrals ... ok
--------------------------
ELECTRON PAIR PRESCREENING
--------------------------

Dipole-based pair screening          .... used

   TCutDOij = 1.000000e-05
   TCutPre  = 1.000000e-07
   .... Finished loop over pairs
Total time spent in the prescreening                  ...     0.000 sec
sum of pair energies estimated for screened out pairs ...       0.000000000000 Eh
Thresholds for map construction and integral transformation for crude MP2:
   TCutMKN                    ...     1.0e-02
   TCutDO                     ...     1.0e-02
   TCutPairs                  ...     1.0e-05
   TCutPNO_CrudeMP2           ...     1.0e-07
   TCutPNOSingles_CrudeMP2    ...     3.0e-09
--------------------------------
LOCAL RI TRANSFORMATION (IAVPAO)
--------------------------------

Orbital window:       5 to 18
Number of PAOs:     100
Basis functions:    100 (48 shells)
Aux. functions:     364 (126 shells)

Processing maps (0.0 sec)
Average map sizes:
   Aux shells -> MOs              14.0
   Aux shells -> PAOs            100.0
   MOs        -> AO shells        48.0
   PAOs       -> AO shells        48.0

Calculating integrals (0.3 sec, 3.892 MB)
Sorting integrals (0.0 sec, 3.888 MB)
Total time for the integral transformation: 0.3 sec
--------------------------------
INITIAL GUESS AND PNO GENERATION
--------------------------------

PNO truncation parameters                   .... 
    PAOOverlapThresh   =        1.000e-08

    TCutPairs          =        1.000e-05
    TCutPNO            =        1.000e-07
    TCutPNOSingles     =        3.000e-09
    TCutMP2Pairs       =        1.000e-06
    TCutMKN            =        1.000e-02
    TCutDO             =        1.000e-02

Pair selection                          .... not used
Type of local MP2 treatment                 .... semi-local MP2
Strategy for PNO selection                  .... occupation number selection
Pair density normalization                  .... MP2 norm
Spin component scaling                      .... not used

   .... Finished loop over pairs
Making pair pair interaction lists          ... done

                       ===========================
                        105 OF  105 PAIRS ARE KEPT CCSD PAIRS
                          0 OF  105 PAIRS ARE KEPT MP2 PAIRS FOR (T)
                          0 OF  105 PAIRS ARE SKIPPED
                       ===========================

Total time spent in the initial guess                 ...     0.142 sec
SL-MP2 correlation energy (all non-screened pairs)    ...      -0.684892993586 Eh

Initial PNO correlation energy                        ...      -0.684690024833 Eh
sum of pair energies prescreened and skipped MP2 pairs...       0.000000000000 Eh
sum of pair energies of crude MP2 skipped pairs only  ...       0.000000000000 Eh
sum of MP2 pair energies for pairs that were not kept ...       0.000000000000 Eh
sum of PNO error estimates for the kept pairs         ...      -0.000202968752 Eh
                                                          --------------------
sum of all corrections                                         -0.000202968752
Initial total correlation energy                               -0.684892993586
Thresholds for map construction and integral transformation for fine MP2 and CCSD(T) calculation:
   TCutMKN   ...     1.0e-03
   TCutDO    ...     5.0e-03
   TCutPairs ...     1.0e-05
   TCutCMO   ...     1.0e-03
   TCutCPAO  ...     1.0e-03

Thresholds for map construction and integral transformation for strong Triples:
   TCutMKN   ...     1.0e-02
   TCutDO    ...     1.0e-02
   TCutCMO   ...     1.0e-03
   TCutCPAO  ...     1.0e-03

Thresholds for map construction and integral transformation for weak Triples:
   TCutMKN   ...     1.0e-01
   TCutDO    ...     2.0e-02
   TCutCMO   ...     1.0e-03
   TCutCPAO  ...     1.0e-03

--------------------------------
LOCAL RI TRANSFORMATION (IAVPAO)
--------------------------------

Orbital window:       5 to 18
Number of PAOs:     100
Basis functions:    100 (48 shells)
Aux. functions:     364 (126 shells)

Processing maps (0.0 sec)
Average map sizes:
   Aux shells -> MOs              14.0
   Aux shells -> PAOs            100.0
   MOs        -> AO shells        48.0
   PAOs       -> AO shells        48.0

Calculating integrals (0.3 sec, 3.892 MB)
Sorting integrals (0.0 sec, 3.888 MB)
Total time for the integral transformation: 0.3 sec
--------------------------------
INITIAL GUESS AND PNO GENERATION
--------------------------------

PNO truncation parameters                   .... 
    ScaleTCutPNO       =        1.000e-02
    PAOOverlapThresh   =        1.000e-08

    TCutPairs          =        1.000e-05
    TCutPNO            =        1.000e-07
    TCutPNOSingles     =        3.000e-09
    TCutMP2Pairs       =        1.000e-06
    TCutMKN            =        1.000e-03
    TCutDO             =        5.000e-03

Pair selection                          .... not used
Type of local MP2 treatment                 .... full local PMP2
Strategy for PNO selection                  .... occupation number selection
Pair density normalization                  .... MP2 norm
Spin component scaling                      .... not used

PASS-1: Formation of initial guess LMP2 amplitudes
Initial amplitudes guess done. Entering LMP2 iteration loop:
   Max. no of iterations          ...  50
   Energy convergence tolerance   ...    1.0e-07
   Residual convergence tolerance ...    5.0e-07
   Fock matrix cutoff             ...    1.0e-05 Eh
   DIIS convergence acceleration parameters:
        Max # vectors in DIIS     ... 7
        Start iteration of DIIS   ... 0
        Levelshift                ... 2.000e-01
        Damping factor 1          ... 5.000e-01
        Damping factor 2          ... 1.000e+00
   L-MP2 PNO cut-off              ...   1.0e-09
   L-MP2 PNO cut-off (core)       ...   1.0e-11
                           *** Turning on DIIS ***
LMP2-Iter=   0:  ELMP2= -0.704737355903  DE=   2.0e-02 RMAX=   1.5e-02
LMP2-Iter=   1:  ELMP2= -0.715029954588  DE=   1.0e-02 RMAX=   7.5e-03
LMP2-Iter=   2:  ELMP2= -0.717293092449  DE=   2.3e-03 RMAX=   3.2e-03
LMP2-Iter=   3:  ELMP2= -0.717629493260  DE=   3.4e-04 RMAX=   1.3e-03
LMP2-Iter=   4:  ELMP2= -0.717629368632  DE=   1.2e-07 RMAX=   3.6e-04
LMP2-Iter=   5:  ELMP2= -0.717621615705  DE=   7.8e-06 RMAX=   8.8e-05
LMP2-Iter=   6:  ELMP2= -0.717620659520  DE=   9.6e-07 RMAX=   1.8e-05
LMP2-Iter=   7:  ELMP2= -0.717620838118  DE=   1.8e-07 RMAX=   3.6e-06
LMP2-Iter=   8:  ELMP2= -0.717620961871  DE=   1.2e-07 RMAX=   7.6e-07
LMP2-Iter=   9:  ELMP2= -0.717620961597  DE=   2.7e-10 RMAX=   1.9e-07
LMP2-Iter=  10:  ELMP2= -0.717620963957  DE=   2.4e-09 RMAX=   4.2e-08 => CONVERGED
PASS-2: Formation of Pair natural orbitals
   .... Finished loop over pairs

 PNO Occupation Number Statistics: 
  | Av. % of trace(Dij) retained        ...  99.803913393543
  | sigma^2 in % of trace(Dij) retained ...   1.24e-01
  | Av. % of trace(Di) retained         ...  99.999891966405
  | sigma^2 in % of trace(Di) retained  ...   1.34e-09
 Distributions of % trace(Dij) recovered:
  |       >= 99.9  ...    61 ( 58.1 % of all pairs)
  |   [90.0, 99.0) ...     5 (  4.8 % of all pairs)
  |   [99.0, 99.9) ...    39 ( 37.1 % of all pairs)
 Distributions of % trace(Di) recovered :
  |       >= 99.9  ...    14 (100.0 % of all I-pairs )

Making pair pair interaction lists          ... done

                       ===========================
                        105 OF  105 PAIRS ARE KEPT
                       ===========================

Total time spent in the initial guess                 ...     1.471 sec
L-MP2 correlation energy (all non-screened pairs)     ...      -0.717620963957 Eh
L-MP2 PNO error correction                            ...      -0.000002255184 Eh
                                                          --------------------
Initial total L-MP2 energy (non-screened pairs)       ...      -0.717623219141 Eh

Initial PNO correlation energy                        ...      -0.717438163831 Eh
sum of pair energies estimated for screened out pairs ...       0.000000000000 Eh
sum of MP2 pair energies for pairs that were not kept ...       0.000000000000 Eh
sum of PNO error estimates for the kept pairs         ...      -0.000185055309 Eh
                                                          --------------------
sum of all corrections                                         -0.000185055309
Initial total correlation energy                               -0.717623219141
Thresholds for map construction and integral transformation for fine MP2 and CCSD(T) calculation:
   TCutMKN   ...     1.0e-03
   TCutDO    ...     5.0e-03
   TCutPairs ...     1.0e-05
   TCutCMO   ...     1.0e-03
   TCutCPAO  ...     1.0e-03

Time for aux screen maps:            0.001
Time for maps after fine MP2:            0.003
-----------------------------
LOCAL RI TRANSFORMATION (IJV)
-----------------------------

Orbital window:       5 to 18
Basis functions:    100 (48 shells)
Aux. functions:     364 (126 shells)

Processing maps (0.0 sec)
Average map sizes:
   Aux shells -> MOs(i)           14.0
   Aux shells -> MOs(j)           14.0
   MOs        -> AO shells        48.0

Calculating integrals (0.3 sec, 0.548 MB)
Sorting integrals (0.0 sec, 0.544 MB)
Total time for the integral transformation: 0.3 sec
--------------------------------
LOCAL RI TRANSFORMATION (VABPAO)
--------------------------------

Number of PAOs:     100
Basis functions:    100 (48 shells)
Aux. functions:     364 (126 shells)

Processing maps (0.0 sec)
Average map sizes:
   Aux shells -> PAOs            100.0
   PAOs       -> AO shells        48.0

Calculating integrals (0.3 sec, 48.988 MB)
Finished


-------------------------------------
Pair Pair Term precalculation with     
RI-(ij|mn) and (im|jn) transformation  
ON THE FLY                             
-------------------------------------

   IBatch   1 (of   1)              ... done (    5.331 sec)
Total EXT                           ...           5.331 sec

---------------------
RI-PNO TRANSFORMATION
---------------------

Total Number of PNOs                   ...  3116
Average number of PNOs per pair        ...    29
Maximal number of PNOs per pair        ...    42
   #pairs with  1 -  5 PNOs   :    0
   #pairs with  6 - 10 PNOs   :    0
   #pairs with 11 - 15 PNOs   :    3
   #pairs with 16 - 20 PNOs   :    4
   #pairs with 21 - 25 PNOs   :   17
   #pairs with 26 - 30 PNOs   :   29
   #pairs with 31 - 35 PNOs   :   27
   #pairs with 36 - 40 PNOs   :   21
   #pairs with 41 - 45 PNOs   :    4
   #pairs with 46 - 50 PNOs   :    0

Generation of (ij|ab)[P] integrals            ... on
Generation of (ia|bc)[P],(ja|bc)[P] integrals ... on
Storage of 3 and 4 external integrals         ... on
Generation of ALL (ka|bc)[P] integrals        ... on
Keep RI integrals in memory                   ... off

Ibatch:  1 (of  1)
Starting 2-4 index PNO integral generation ... done

Timings:
Total PNO integral transformation time     ...          1.728 sec
Size of the 3-external file                ...        24 MB
Size of the 4-external file                ...       105 MB
Size of the IKJL file                      ...         0 MB
Size of the all 3-external file            ...       172 MB
Size of the 1-external file                ...         1 MB

Making pair/pair overlap matrices          ... done (    0.201 sec)
Size of the pair overlap file              ... 52 MB
Redoing the guess amplitudes               ... done (    0.001 sec)

-------------------------
FINAL STARTUP INFORMATION
-------------------------

E(0)                                       ...   -229.823549438
E(L-MP2)                                   ...     -0.717623219
E(L-MP2) including corrections             ...     -0.717623219
Initial E(tot)                             ...   -230.541172657
<T|T>                                      ...      0.213405826
Number of pairs included                   ... 105
Total number of pairs                      ... 105

------------------------------------------------
                  RHF COUPLED CLUSTER ITERATIONS
------------------------------------------------

Number of PNO amplitudes to be optimized   ...        96958
Number of non-PNO amplitudes               ...       688905
Untruncated number of regular amplitudes   ...       688905

Iter       E(tot)           E(Corr)          Delta-E          Residual     Time
  0   -230.508600640     -0.684866147      0.032757072      0.020156198    1.60
                           *** Turning on DIIS ***
  1   -230.552941688     -0.729207195     -0.044341048      0.011522102    1.60
  2   -230.577874312     -0.754139819     -0.024932624      0.006310385    1.45
  3   -230.583271395     -0.759536902     -0.005397083      0.004326126    1.58
  4   -230.585384727     -0.761650234     -0.002113332      0.002141665    1.39
  5   -230.586236308     -0.762501815     -0.000851581      0.000981275    1.37
  6   -230.586440273     -0.762705780     -0.000203965      0.000433549    1.43
  7   -230.586485011     -0.762750518     -0.000044739      0.000227129    1.41
  8   -230.586493391     -0.762758898     -0.000008380      0.000115017    1.43
  9   -230.586493563     -0.762759070     -0.000000172      0.000044622    1.48
 10   -230.586494609     -0.762760116     -0.000001046      0.000017496    1.48
 11   -230.586494246     -0.762759752      0.000000363      0.000007136    1.46
               --- The Coupled-Cluster iterations have converged ---

----------------------
COUPLED CLUSTER ENERGY
----------------------

E(0)                                       ...   -229.823549438
E(CORR)(strong-pairs)                      ...     -0.762759752
E(CORR)(weak-pairs)                        ...     -0.000185055
E(CORR)(corrected)                         ...     -0.762944808
E(TOT)                                     ...   -230.586494246
Singles Norm <S|S>**1/2                    ...      0.073934356  
T1 diagnostic                              ...      0.013972280  

------------------
LARGEST AMPLITUDES
------------------
   7-> 19   7-> 19       0.055911
   8-> 19   8-> 19       0.055894
   8-> 19   7-> 19       0.050825
  10-> 19  10-> 19       0.046180
  11-> 19  11-> 19       0.046168
  16-> 28  16-> 28       0.042434
  17-> 28  17-> 28       0.041925
  18-> 28  18-> 28       0.041922
  11-> 19  10-> 19       0.038269
  14-> 20  14-> 20       0.035385
  13-> 20  13-> 20       0.034827
  15-> 20  15-> 20       0.034173
  16-> 19  16-> 19       0.033802
  10-> 19  -1-> -1       0.030321
  11-> 19  -1-> -1       0.030309
  16-> 19  16-> 28       0.030114


-------------------------------------------
DLPNO BASED TRIPLES CORRECTION
-------------------------------------------

Singles multiplier          ...  1.000000
TCutTNO                     ... 1.000e-09
TCutMP2Pairs                ... 1.000e-06
TCutDOStrong                ... 1.000e-02
TCutMKNStrong               ... 1.000e-02
TCutDOWeak                  ... 2.000e-02
TCutMKNWeak                 ... 1.000e-01

Fragment selection                          .... not used
Number of Triples that are to be computed   ...       546

 . . . . . . . . .
10% done  
20% done  
30% done  
40% done  
50% done  
60% done  
70% done  
80% done  
90% done               (      8.983 sec)
Triples timings:
Total time for T0               ...     9.526 sec
Total time for Iterative (T)    ...     0.000 sec
Total time of overall (T)       ...     9.526 sec

Triples List generation         ...     0.000 sec
TNO generation                  ...     0.540 sec
Pair density generation         ...     0.001 sec
Look up tables                  ...     0.000 sec
Generating 3-index integrals    ...     3.728 sec
  Make 4-ind.int. from 3-ind.int...     2.130 sec
  Projecting amplitudes (D + S) ...     0.659 sec
  Downprojecting integrals      ...     0.001 sec
  Energy contr. (sum over a,b,c)...     0.740 sec
Fitting ET(->0)                 ...     0.000 sec

Everything after 3-index        ...     5.256 sec

Timing details:
 TNO integrals                  ...     5.565 sec
   Reading 3-index integrals    ...     0.012 sec
   Sorting integrals            ...     1.087 sec
       Sorting integrals 1      ...     0.000 sec
       Sorting integrals 2      ...     0.276 sec
       Sorting integrals 3      ...     0.072 sec
       Sorting integrals 4      ...     0.007 sec
       Sorting integrals 5      ...     0.017 sec
       Sorting integrals 6      ...     0.716 sec
   Calculating local VM**-1/2   ...     0.073 sec
   Orthogonal. integrals        ...     0.142 sec
   Multipl. 3-index integrals   ...     4.251 sec
   All concerning IRIab (w/TNO) ...     1.104 sec

 Calculate W0/W1                ...     1.723 sec
 W 3-ext contribution           ...     0.951 sec
 W 3-int contribution           ...     0.278 sec
 Sorting W                      ...     0.454 sec

 V exchange contribution        ...     0.289 sec

 Timings for Triples without generation
     of 3-index integrals       ...     5.254 sec
       0 weak pairs             ...     5.254 sec
       1 weak pair              ...     0.000 sec
       2 weak pairs             ...     0.000 sec
       3 weak pairs             ...     0.000 sec
  Extra time for extrapolation  ...     0.000 sec

Number of Triples   (0, 1, 2, 3 weak pairs; overall):    546       0       0       0  (   546)
Number of Atoms     (0, 1, 2, 3 weak pairs; overall):   10.8     0.0     0.0     0.0  (    11)
Number of PAOs      (0, 1, 2, 3 weak pairs; overall):   99.1     0.0     0.0     0.0  (   100)
Number of AuxFcns   (0, 1, 2, 3 weak pairs; overall):  229.5     0.0     0.0     0.0  (   364)
Number of TNOs      (0, 1, 2, 3 weak pairs         ):   58.8     0.0     0.0     0.0
Aver. Number of NTNO, Atoms, PAOs, AuxFcns / Triples:    546    58.8    10.8    99.1   229.5

Triples Correction (T)                     ...     -0.025316596
Final correlation energy                   ...     -0.788261404
E(CCSD)                                    ...   -230.586494246
E(CCSD(T))                                 ...   -230.611810842


Maximum memory used throughout the entire calculation: 1769.8 MB


------------------------------------------------------------------------------- 
                                     TIMINGS                                   
------------------------------------------------------------------------------- 


Total execution time                   ...       38.955 sec

Localization of occupied MO's          ...        0.372 sec (  1.0%)
Fock Matrix Formation                  ...        0.662 sec (  1.7%)
Global overlap, Fock, MKN matrices     ...        0.111 sec (  0.3%)
Differential overlap integrals         ...        0.056 sec (  0.1%)
Organizing maps                        ...        0.010 sec (  0.0%)
RI 3-index integral generations        ...        1.214 sec (  3.1%)
RI-PNO integral transformation         ...        7.489 sec ( 19.2%)
Initial Guess                          ...        1.623 sec (  4.2%)
DIIS Solver                            ...        0.357 sec (  0.9%)
State Vector Update                    ...        0.010 sec (  0.0%)
Sigma-vector construction              ...       17.567 sec ( 45.1%)
  <D|H|D>(0-ext)                       ...        0.896 sec (  5.1% of sigma)
  <D|H|D>(2-ext Fock)                  ...        0.010 sec (  0.1% of sigma)
  <D|H|D>(2-ext)                       ...        1.684 sec (  9.6% of sigma)
  <D|H|D>(4-ext)                       ...        1.701 sec (  9.7% of sigma)
  <D|H|D>(4-ext-corr)                  ...        7.952 sec ( 45.3% of sigma)
  CCSD doubles correction              ...        0.098 sec (  0.6% of sigma)
  <S|H|S>                              ...        0.127 sec (  0.7% of sigma)
  <S|H|D>(1-ext)                       ...        0.133 sec (  0.8% of sigma)
  <D|H|S>(1-ext)                       ...        0.006 sec (  0.0% of sigma)
  <S|H|D>(3-ext)                       ...        0.121 sec (  0.7% of sigma)
  Fock-dressing                        ...        2.480 sec ( 14.1% of sigma)
  Singles amplitudes                   ...        0.106 sec (  0.6% of sigma)
  (ik|jl)-dressing                     ...        0.651 sec (  3.7% of sigma)
  (ij|ab),(ia|jb)-dressing             ...        0.939 sec (  5.3% of sigma)
  Pair energies                        ...        0.004 sec (  0.0% of sigma)
Total Time for computing (T)           ...        9.549 sec ( 24.5% of ALL)


-------------------------   --------------------
FINAL SINGLE POINT ENERGY      -230.611810842100
-------------------------   --------------------


                            ***************************************
                            *     ORCA property calculations      *
                            ***************************************

                                    ---------------------
                                    Active property flags
                                    ---------------------
   (+) Dipole Moment


------------------------------------------------------------------------------
                       ORCA ELECTRIC PROPERTIES CALCULATION
------------------------------------------------------------------------------

Dipole Moment Calculation                       ... on
Quadrupole Moment Calculation                   ... off
Polarizability Calculation                      ... off
GBWName                                         ... but_1_ene_3_one_t.gbw
Electron density file                           ... but_1_ene_3_one_t.scfp.tmp
The origin for moment calculation is the CENTER OF MASS  = (-0.079024, -0.115235 -0.000033)

-------------
DIPOLE MOMENT
-------------
                                X             Y             Z
Electronic contribution:     -1.94812      -3.45117      -0.00163
Nuclear contribution   :      3.00282       4.37901       0.00131
                        -----------------------------------------
Total Dipole Moment    :      1.05470       0.92785      -0.00032
                        -----------------------------------------
Magnitude (a.u.)       :      1.40474
Magnitude (Debye)      :      3.57056



--------------------
Rotational spectrum 
--------------------
 
Rotational constants in cm-1:     0.296648     0.141259     0.097433 
Rotational constants in MHz :  8893.289544  4234.848614  2920.977280 

 Dipole components along the rotational axes: 
x,y,z [a.u.] :     1.114224     0.855449    -0.000323 
x,y,z [Debye]:     2.832133     2.174380    -0.000821 

 

Timings for individual modules:

Sum of individual times         ...       84.817 sec (=   1.414 min)
GTO integral calculation        ...       42.917 sec (=   0.715 min)  50.6 %
SCF iterations                  ...        2.791 sec (=   0.047 min)   3.3 %
MDCI module                     ...       39.109 sec (=   0.652 min)  46.1 %
                             ****ORCA TERMINATED NORMALLY****
TOTAL RUN TIME: 0 days 0 hours 1 minutes 25 seconds 63 msec
but_1_ene_3_one_t.gbw -> /home1/pantazis/klk/VDZ/Conjugated/but_1_ene_3_one_t.gbw
but_1_ene_3_one_t.ges -> /home1/pantazis/klk/VDZ/Conjugated/but_1_ene_3_one_t.ges
but_1_ene_3_one_t.job -> /home1/pantazis/klk/VDZ/Conjugated/but_1_ene_3_one_t.job
but_1_ene_3_one_t.loc -> /home1/pantazis/klk/VDZ/Conjugated/but_1_ene_3_one_t.loc
but_1_ene_3_one_t.nodes -> /home1/pantazis/klk/VDZ/Conjugated/but_1_ene_3_one_t.nodes
but_1_ene_3_one_t.prop -> /home1/pantazis/klk/VDZ/Conjugated/but_1_ene_3_one_t.prop
but_1_ene_3_one_t_property.txt -> /home1/pantazis/klk/VDZ/Conjugated/but_1_ene_3_one_t_property.txt
but_1_ene_3_one_t.xyz -> /home1/pantazis/klk/VDZ/Conjugated/but_1_ene_3_one_t.xyz
cp: cannot stat but_1_ene_3_one_t.asa.inp: No such file or directory
