! Job execution by suborca V 6.07 on ZEUS !
Job started from zeus1, running /scratch/pantazis/butanediamine_tTTTt__czzvNv/orca/orca copied from /opt/orca on zeussn119 in /scratch/pantazis/butanediamine_tTTTt__czzvNv
Job execution start: Sat Jun 29 11:25:18 CEST 2019
Shared library path: /scratch/pantazis/butanediamine_tTTTt__czzvNv/orca:/opt/openmpi_1.10.2/lib:/opt/intel/mkl/lib/intel64:/opt/intel/lib/intel64:
PBS Job ID is: 158823.icqc
izeussn119
izeussn119
izeussn119
izeussn119

                                 *****************
                                 * O   R   C   A *
                                 *****************

           --- An Ab Initio, DFT and Semiempirical electronic structure package ---

                  #######################################################
                  #                        -***-                        #
                  #          Department of theory and spectroscopy      #
                  #               Directorship: Frank Neese             #
                  #        Max Planck Institute fuer Kohlenforschung    #
                  #                Kaiser Wilhelm Platz 1               #
                  #                 D-45470 Muelheim/Ruhr               #
                  #                      Germany                        #
                  #                                                     #
                  #                  All rights reserved                #
                  #                        -***-                        #
                  #######################################################


                         Program Version 4.1.x  -  STABLE  -
                                (SVN: $Rev: 14094$)
                ($Date: 2019-06-14 15:01:15 +0200 (Fri, 14 Jun 2019) $)

                         (BUILD: $Sun Jun 23 06:18:31 CEST 2019$)


 With contributions from (in alphabetic order):
   Daniel Aravena         : Magnetic Properties
   Michael Atanasov       : Ab Initio Ligand Field Theory
   Alexander A. Auer      : GIAO ZORA
   Ute Becker             : Parallelization
   Giovanni Bistoni       : ED, Open-shell LED
   Martin Brehm           : Molecular dynamics
   Dmytro Bykov           : SCF Hessian
   Vijay G. Chilkuri      : MRCI spin determinant printing
   Dipayan Datta          : RHF DLPNO-CCSD density
   Achintya Kumar Dutta   : EOM-CC, STEOM-CC
   Dmitry Ganyushin       : Spin-Orbit,Spin-Spin,Magnetic field MRCI
   Miquel Garcia          : C-PCM Hessian
   Yang Guo               : DLPNO-NEVPT2, CIM, IAO-localization
   Andreas Hansen         : Spin unrestricted coupled pair/coupled cluster methods
   Benjamin Helmich-Paris : CASSCF linear response (MC-RPA)
   Lee Huntington         : MR-EOM, pCC
   Robert Izsak           : Overlap fitted RIJCOSX, COSX-SCS-MP3, EOM
   Christian Kollmar      : KDIIS, OOCD, Brueckner-CCSD(T), CCSD density
   Simone Kossmann        : Meta GGA functionals, TD-DFT gradient, OOMP2, MP2 Hessian
   Martin Krupicka        : AUTO-CI
   Lucas Lang             : DCDCAS
   Dagmar Lenk            : GEPOL surface, SMD
   Dimitrios Liakos       : Extrapolation schemes; parallel MDCI
   Dimitrios Manganas     : ROCIS; embedding schemes
   Dimitrios Pantazis     : SARC Basis sets
   Taras Petrenko         : DFT Hessian,TD-DFT gradient, ASA, ECA, R-Raman, ABS, FL, XAS/XES, NRVS
   Peter Pinski           : DLPNO-MP2, DLPNO-MP2 Gradient
   Christoph Reimann      : Effective Core Potentials
   Marius Retegan         : Local ZFS, SOC
   Christoph Riplinger    : Optimizer, TS searches, QM/MM, DLPNO-CCSD(T), (RO)-DLPNO pert. Triples
   Tobias Risthaus        : Range-separated hybrids, TD-DFT gradient, RPA, STAB
   Michael Roemelt        : Restricted open shell CIS
   Masaaki Saitow         : Open-shell DLPNO
   Barbara Sandhoefer     : DKH picture change effects
   Avijit Sen             : IP-ROCIS
   Kantharuban Sivalingam : CASSCF convergence, NEVPT2, FIC-MRCI
   Bernardo de Souza      : ESD, SOC TD-DFT
   Georgi Stoychev        : AutoAux, RI-MP2 NMR
   Willem Van den Heuvel  : Paramagnetic NMR
   Boris Wezisla          : Elementary symmetry handling
   Frank Wennmohs         : Technical directorship


 We gratefully acknowledge several colleagues who have allowed us to
 interface, adapt or use parts of their codes:
   Stefan Grimme, W. Hujo, H. Kruse,             : VdW corrections, initial TS optimization,
                  C. Bannwarth                     DFT functionals, gCP, sTDA/sTD-DF
   Ed Valeev                                     : LibInt (2-el integral package), F12 methods
   Garnet Chan, S. Sharma, J. Yang, R. Olivares  : DMRG
   Ulf Ekstrom                                   : XCFun DFT Library
   Mihaly Kallay                                 : mrcc  (arbitrary order and MRCC methods)
   Andreas Klamt, Michael Diedenhofen            : otool_cosmo (COSMO solvation model)
   Jiri Pittner, Ondrej Demel                    : Mk-CCSD
   Frank Weinhold                                : gennbo (NPA and NBO analysis)
   Christopher J. Cramer and Donald G. Truhlar   : smd solvation model
   Lars Goerigk                                  : TD-DFT with DH, B97 family of functionals
   V. Asgeirsson, H. Jonsson                     : NEB implementation
   FAccTs GmbH                                   : IRC, NEB, NEB-TS, Multilevel


 Your calculation uses the libint2 library for the computation of 2-el integrals
 For citations please refer to: http://libint.valeyev.net

 This ORCA versions uses:
   CBLAS   interface :  Fast vector & matrix operations
   LAPACKE interface :  Fast linear algebra routines
   SCALAPACK package :  Parallel linear algebra routines




***************************************
The coordinates will be read from file: butanediamine_tTTTt.xyz
***************************************


----- Orbital basis set information -----
Your calculation utilizes the basis: cc-pVDZ 
       H, B-Ne : Obtained from the ccRepo (grant-hill.group.shef.ac.uk/ccrepo) Feb. 2017
                 T. H. Dunning, Jr., J. Chem. Phys. 90, 1007 (1989)
            He : Obtained from the ccRepo (grant-hill.group.shef.ac.uk/ccrepo) Feb. 2017
                 D. E. Woon, T. H. Dunning, Jr., J. Chem. Phys. 100, 2975 (1994)
  Li-Be, Na-Mg : Obtained from the ccRepo (grant-hill.group.shef.ac.uk/ccrepo) Feb. 2017
                 B. P. Prascher, D. E. Woon, K. A. Peterson, T. H. Dunning, Jr., A. K. Wilson, Theor. Chem. Acc. 128, 69 (2011)
         Al-Ar : Obtained from the ccRepo (grant-hill.group.shef.ac.uk/ccrepo) Feb. 2017
                 D. E. Woon, T. H. Dunning, Jr., J. Chem. Phys. 98, 1358 (1993)
            Ca : Obtained from the Peterson Research Group Website (tyr0.chem.wsu.edu/~kipeters) Feb. 2017
                 J. Koput, K. A. Peterson, J. Phys. Chem. 106, 9595 (2002)
         Sc-Zn : Obtained from the ccRepo (grant-hill.group.shef.ac.uk/ccrepo) Feb. 2017
                 N. B. Balabanov, K. A. Peterson, J. Chem. Phys. 123, 064107 (2005)
                 N. B. Balabanov, K. A. Peterson, J. Chem. Phys. 125, 074110 (2006)
         Ga-Kr : Obtained from the ccRepo (grant-hill.group.shef.ac.uk/ccrepo) Feb. 2017
                 A. K. Wilson, D. E. Woon, K. A. Peterson, T. H. Dunning, Jr., J. Chem. Phys. 110, 7667 (1999)

----- AuxC basis set information -----
Your calculation utilizes the auxiliary basis: cc-pVDZ/C 
  H-He, B, Ne, Al-Ar, Ga-Br : Obtained from the EMSL Basis Set Exchange (bse.pnl.gov) Feb. 2017
                              F. Weigend, A. Kohn, C. Hattig, J. Chem. Phys. 116, 3175 (2002)
               Li-Be, Na-Mg : Obtained from the EMSL Basis Set Exchange (bse.pnl.gov) Feb. 2017
                              C. Haettig, Phys. Chem. Chem. Phys. 7, 59 (2005)
                        C-F : Obtained from the EMSL Basis Set Exchange (bse.pnl.gov) Feb. 2017
                              C. Haettig, Phys. Chem. Chem. Phys. 7, 59 (2005)
                              F. Weigend, A. Kohn, C. Hattig, J. Chem. Phys. 116, 3175 (2002)
                         Kr : Obtained from the TURBOMOLE 7.0 basis set library
                              F. Weigend, A. Kohn, C. Hattig, J. Chem. Phys. 116, 3175 (2002)
                              S function revised in Sep. 2009

----- AuxJK basis set information -----
Your calculation utilizes the auxiliary basis: cc-pVTZ/JK 
  H, B-F, Al-Cl, Ga-Br : Obtained from the TURBOMOLE 7.0 basis set library

================================================================================
                                        WARNINGS
                       Please study these warnings very carefully!
================================================================================


WARNING: MDCI localization with Augmented Hessian Foster-Boys
  ===> : Switching off randomization!

WARNING: Post HF methods need fully converged wavefunctions
  ===> : Setting SCFConvForced true
         You can overwrite this default with %scf ConvForced false 


INFO   : the flag for use of LIBINT has been found!

================================================================================
                                       INPUT FILE
================================================================================
NAME = butanediamine_tTTTt.inp
|  1> ! RHF DLPNO-CCSD(T) cc-pVDZ RIJK cc-pVTZ/JK cc-pVDZ/C
|  2> ! KDIIS SOSCF TightSCF TightPNO
|  3> 
|  4> %pal nprocs 4 end
|  5> 
|  6> %maxcore 8000
|  7> 
|  8> %scf maxiter 300
|  9>      shift shift 0.2 erroff 0.1 end
| 10> end
| 11> 
| 12> * xyzfile 0 1 butanediamine_tTTTt.xyz 
| 13> 
| 14> 
| 15>                          ****END OF INPUT****
================================================================================

                       ****************************
                       * Single Point Calculation *
                       ****************************

---------------------------------
CARTESIAN COORDINATES (ANGSTROEM)
---------------------------------
  C     -1.897850    0.538000   -0.000000
  C     -0.665370   -0.382610   -0.000010
  C      0.665380    0.382620   -0.000000
  C      1.897860   -0.537990    0.000010
  N      3.205180    0.124910   -0.000000
  N     -3.205190   -0.124930   -0.000010
  H     -1.860530    1.196120   -0.877520
  H     -1.860550    1.196080    0.877540
  H     -3.313500   -0.718900    0.818490
  H     -3.313390   -0.719100   -0.818370
  H      1.860520   -1.196110   -0.877500
  H      1.860520   -1.196110    0.877540
  H      3.313460    0.718990   -0.818420
  H      3.313470    0.718990    0.818420
  H     -0.711720   -1.041160    0.879980
  H     -0.711730   -1.041130   -0.880030
  H      0.711720    1.041170   -0.880010
  H      0.711710    1.041170    0.880000

----------------------------
CARTESIAN COORDINATES (A.U.)
----------------------------
  NO LB      ZA    FRAG     MASS         X           Y           Z
   0 C     6.0000    0    12.011   -3.586417    1.016673   -0.000000
   1 C     6.0000    0    12.011   -1.257367   -0.723028   -0.000019
   2 C     6.0000    0    12.011    1.257386    0.723047   -0.000000
   3 C     6.0000    0    12.011    3.586436   -1.016654    0.000019
   4 N     7.0000    0    14.007    6.056912    0.236046   -0.000000
   5 N     7.0000    0    14.007   -6.056931   -0.236083   -0.000019
   6 H     1.0000    0     1.008   -3.515892    2.260339   -1.658272
   7 H     1.0000    0     1.008   -3.515930    2.260264    1.658310
   8 H     1.0000    0     1.008   -6.261608   -1.358524    1.546722
   9 H     1.0000    0     1.008   -6.261400   -1.358902   -1.546495
  10 H     1.0000    0     1.008    3.515873   -2.260320   -1.658235
  11 H     1.0000    0     1.008    3.515873   -2.260320    1.658310
  12 H     1.0000    0     1.008    6.261532    1.358694   -1.546590
  13 H     1.0000    0     1.008    6.261551    1.358694    1.546590
  14 H     1.0000    0     1.008   -1.344956   -1.967507    1.662921
  15 H     1.0000    0     1.008   -1.344975   -1.967451   -1.663016
  16 H     1.0000    0     1.008    1.344956    1.967526   -1.662978
  17 H     1.0000    0     1.008    1.344937    1.967526    1.662959

--------------------------------
INTERNAL COORDINATES (ANGSTROEM)
--------------------------------
 C      0   0   0     0.000000000000     0.00000000     0.00000000
 C      1   0   0     1.538352925242     0.00000000     0.00000000
 C      2   1   0     1.535080621824   113.34135785     0.00000000
 C      3   2   1     1.538352925242   113.34135786   179.99918871
 N      4   3   2     1.465783746840   116.35373423   179.99913347
 N      1   2   3     1.465815152262   116.35304191   179.99994652
 H      1   2   3     1.097522695528   109.36595478    57.94134718
 H      1   2   3     1.097514021778   109.36630731   302.05727461
 H      6   1   2     1.017090786017   111.04410953    59.57163000
 H      6   1   2     1.017083240694   111.04448502   300.44589358
 H      4   3   2     1.097515380348   109.36520234    57.93967914
 H      4   3   2     1.097531371260   109.36554023   302.05938081
 H      5   4   3     1.017087459956   111.04589274   300.43822843
 H      5   4   3     1.017088524613   111.04573397    59.56337790
 H      2   1   3     1.100099461458   108.93416653   122.25471290
 H      2   1   3     1.100105922355   108.93325139   237.74573834
 H      3   2   1     1.100115038621   109.56764102   301.90095246
 H      3   2   1     1.100106618197   109.56795147    58.09724787

---------------------------
INTERNAL COORDINATES (A.U.)
---------------------------
 C      0   0   0     0.000000000000     0.00000000     0.00000000
 C      1   0   0     2.907065726024     0.00000000     0.00000000
 C      2   1   0     2.900881968737   113.34135785     0.00000000
 C      3   2   1     2.907065726024   113.34135786   179.99918871
 N      4   3   2     2.769929853080   116.35373423   179.99913347
 N      1   2   3     2.769989200727   116.35304191   179.99994652
 H      1   2   3     2.074017320312   109.36595478    57.94134718
 H      1   2   3     2.074000929299   109.36630731   302.05727461
 H      6   1   2     1.922023038906   111.04410953    59.57163000
 H      6   1   2     1.922008780312   111.04448502   300.44589358
 H      4   3   2     2.074003496624   109.36520234    57.93967914
 H      4   3   2     2.074033715069   109.36554023   302.05938081
 H      5   4   3     1.922016753563   111.04589274   300.43822843
 H      5   4   3     1.922018765473   111.04573397    59.56337790
 H      2   1   3     2.078886702230   108.93416653   122.25471290
 H      2   1   3     2.078898911555   108.93325139   237.74573834
 H      3   2   1     2.078916138802   109.56764102   301.90095246
 H      3   2   1     2.078900226506   109.56795147    58.09724787

---------------------
BASIS SET INFORMATION
---------------------
There are 3 groups of distinct atoms

 Group   1 Type C   : 17s4p1d contracted to 3s2p1d pattern {881/31/1}
 Group   2 Type N   : 17s4p1d contracted to 3s2p1d pattern {881/31/1}
 Group   3 Type H   : 4s1p contracted to 2s1p pattern {31/1}

Atom   0C    basis set group =>   1
Atom   1C    basis set group =>   1
Atom   2C    basis set group =>   1
Atom   3C    basis set group =>   1
Atom   4N    basis set group =>   2
Atom   5N    basis set group =>   2
Atom   6H    basis set group =>   3
Atom   7H    basis set group =>   3
Atom   8H    basis set group =>   3
Atom   9H    basis set group =>   3
Atom  10H    basis set group =>   3
Atom  11H    basis set group =>   3
Atom  12H    basis set group =>   3
Atom  13H    basis set group =>   3
Atom  14H    basis set group =>   3
Atom  15H    basis set group =>   3
Atom  16H    basis set group =>   3
Atom  17H    basis set group =>   3
-------------------------------
AUXILIARY BASIS SET INFORMATION
-------------------------------
There are 3 groups of distinct atoms

 Group   1 Type C   : 7s5p4d2f contracted to 7s5p4d2f pattern {1111111/11111/1111/11}
 Group   2 Type N   : 7s5p4d2f contracted to 7s5p4d2f pattern {1111111/11111/1111/11}
 Group   3 Type H   : 3s2p1d contracted to 3s2p1d pattern {111/11/1}

Atom   0C    basis set group =>   1
Atom   1C    basis set group =>   1
Atom   2C    basis set group =>   1
Atom   3C    basis set group =>   1
Atom   4N    basis set group =>   2
Atom   5N    basis set group =>   2
Atom   6H    basis set group =>   3
Atom   7H    basis set group =>   3
Atom   8H    basis set group =>   3
Atom   9H    basis set group =>   3
Atom  10H    basis set group =>   3
Atom  11H    basis set group =>   3
Atom  12H    basis set group =>   3
Atom  13H    basis set group =>   3
Atom  14H    basis set group =>   3
Atom  15H    basis set group =>   3
Atom  16H    basis set group =>   3
Atom  17H    basis set group =>   3
-------------------------------
AUXILIARY BASIS SET INFORMATION
-------------------------------
There are 3 groups of distinct atoms

 Group   1 Type C   : 10s7p5d2f1g contracted to 10s7p5d2f1g pattern {1111111111/1111111/11111/11/1}
 Group   2 Type N   : 10s7p5d2f1g contracted to 10s7p5d2f1g pattern {1111111111/1111111/11111/11/1}
 Group   3 Type H   : 4s3p2d1f contracted to 4s3p2d1f pattern {1111/111/11/1}

Atom   0C    basis set group =>   1
Atom   1C    basis set group =>   1
Atom   2C    basis set group =>   1
Atom   3C    basis set group =>   1
Atom   4N    basis set group =>   2
Atom   5N    basis set group =>   2
Atom   6H    basis set group =>   3
Atom   7H    basis set group =>   3
Atom   8H    basis set group =>   3
Atom   9H    basis set group =>   3
Atom  10H    basis set group =>   3
Atom  11H    basis set group =>   3
Atom  12H    basis set group =>   3
Atom  13H    basis set group =>   3
Atom  14H    basis set group =>   3
Atom  15H    basis set group =>   3
Atom  16H    basis set group =>   3
Atom  17H    basis set group =>   3

Checking for AutoStart:
The File: butanediamine_tTTTt.gbw exists
Trying to determine its content:
     ... Fine, the file contains calculation information
     ... Fine, the calculation information was read
     ... Fine, the file contains a basis set
     ... Fine, the basis set was read
     ... Fine, the file contains a geometry
     ... Fine, the geometry was read
     ... Fine, the file contains a set of orbitals
     ... Fine, the orbitals can be read
     => possible old guess file was deleted
     => GBW file was renamed to GES file
     => GES file is set as startup file
     => Guess is set to MORead
     ... now leaving AutoStart



           ************************************************************
           *        Program running with 4 parallel MPI-processes     *
           *              working on a common directory               *
           ************************************************************
------------------------------------------------------------------------------
                           ORCA GTO INTEGRAL CALCULATION
                           -- RI-GTO INTEGRALS CHOSEN --
------------------------------------------------------------------------------

                         BASIS SET STATISTICS AND STARTUP INFO

Gaussian basis set:
 # of primitive gaussian shells          ...  192
 # of primitive gaussian functions       ...  288
 # of contracted shells                  ...   72
 # of contracted basis functions         ...  144
 Highest angular momentum                ...    2
 Maximum contraction depth               ...    8
Auxiliary gaussian basis set:
 # of primitive gaussian shells          ...  270
 # of primitive gaussian functions       ...  834
 # of contracted shells                  ...  270
 # of contracted aux-basis functions     ...  834
 Highest angular momentum                ...    4
 Maximum contraction depth               ...    1
Ratio of auxiliary to basis functions    ...  5.79
Integral package used                  ... LIBINT
 One Electron integrals                  ... done
 Ordering auxiliary basis shells         ... done
 Integral threshhold             Thresh  ...  2.500e-11
 Primitive cut-off               TCut    ...  2.500e-12
 Pre-screening matrix                    ... done
 Shell pair data                         ... 
 Ordering of the shell pairs             ... done (   0.000 sec) 2490 of 2628 pairs
 Determination of significant pairs      ... done (   0.000 sec)
 Creation of shell pair data             ... done (   0.001 sec)
 Storage of shell pair data              ... done (   0.001 sec)
 Shell pair data done in (   0.002 sec)
 Computing two index integrals           ... done
 Cholesky decomposition of the V-matrix  ... done


Timings:
 Total evaluation time                   ...   1.970 sec (  0.033 min)
 One electron matrix time                ...   1.643 sec (  0.027 min) = 83.4%
 Schwartz matrix evaluation time         ...   0.164 sec (  0.003 min) =  8.3%
 Two index repulsion integral time       ...   0.071 sec (  0.001 min) =  3.6%
 Cholesky decomposition of V             ...   0.064 sec (  0.001 min) =  3.3%
 Three index repulsion integral time     ...   0.000 sec (  0.000 min) =  0.0%



           ************************************************************
           *        Program running with 4 parallel MPI-processes     *
           *              working on a common directory               *
           ************************************************************
-------------------------------------------------------------------------------
                                 ORCA SCF
-------------------------------------------------------------------------------

------------
SCF SETTINGS
------------
Hamiltonian:
 Ab initio Hamiltonian  Method          .... Hartree-Fock(GTOs)
 RI-approximation to the Coulomb term is turned on
   Number of auxiliary basis functions  .... 834
   RI-JK (J+K treated both via RI)      .... on


General Settings:
 Integral files         IntName         .... butanediamine_tTTTt
 Hartree-Fock type      HFTyp           .... RHF
 Total Charge           Charge          ....    0
 Multiplicity           Mult            ....    1
 Number of Electrons    NEL             ....   50
 Basis Dimension        Dim             ....  144
 Nuclear Repulsion      ENuc            ....    244.4351047845 Eh

Convergence Acceleration:
 DIIS                   CNVDIIS         .... off
 Newton-Raphson         CNVNR           .... off
 SOSCF                  CNVSOSCF        .... on
   Start iteration      SOSCFMaxIt      ....   150
   Startup grad/error   SOSCFStart      ....  0.003300
 Level Shifting         CNVShift        .... on
   Level shift para.    LevelShift      ....    0.2000
   Turn off err/grad.   ShiftErr        ....    0.1000
 Zerner damping         CNVZerner       .... off
 Static damping         CNVDamp         .... off
 Fernandez-Rico         CNVRico         .... off

SCF Procedure:
 Maximum # iterations   MaxIter         ....   300
 SCF integral mode      SCFMode         .... Direct
   Integral package                     .... LIBINT
 Reset frequency        DirectResetFreq ....    20
 Integral Threshold     Thresh          ....  2.500e-11 Eh
 Primitive CutOff       TCut            ....  2.500e-12 Eh

Convergence Tolerance:
 Convergence Check Mode ConvCheckMode   .... Total+1el-Energy
 Convergence forced     ConvForced      .... 1
 Energy Change          TolE            ....  1.000e-08 Eh
 1-El. energy change                    ....  1.000e-05 Eh
 Orbital Gradient       TolG            ....  1.000e-05
 Orbital Rotation angle TolX            ....  1.000e-05


Diagonalization of the overlap matrix:
Smallest eigenvalue                        ... 2.550e-03
Time for diagonalization                   ...    0.006 sec
Threshold for overlap eigenvalues          ... 1.000e-08
Number of eigenvalues below threshold      ... 0
Time for construction of square roots      ...    0.006 sec
Total time needed                          ...    0.012 sec

---------------------
INITIAL GUESS: MOREAD
---------------------
Guess MOs are being read from file: butanediamine_tTTTt.ges
Input Geometry matches current geometry (good)
Atom 0: N(Shells)= 6 and 10 - projection required
Input basis set needs projection
NBasis(read)= 348
NBasis(calc)= 144
Basis set overlap was calculated
Using GuessMode=FMatrix for the initial guess
C*T matrix was formed
Effective Fockian was calculated
Effective Fockian was diagonalized
Initial density was built
                      ------------------
                      INITIAL GUESS DONE (   0.0 sec)
                      ------------------
--------------
SCF ITERATIONS
--------------
ITER       Energy         Delta-E        Max-DP      RMS-DP      [F,P]   Gradient Norm
                             ****Turning on KDIIS(Cayley)****
  0   -267.3630532207   0.000000000000 0.00126426  0.00005818  0.0073047   0.005376431
  1   -267.3631608744  -0.000107653738 0.00252416  0.00011694  0.0066278   0.004882549
  2   -267.3633431774  -0.000182302985 0.00398927  0.00019478  0.0053242   0.003947189
                      *** Initiating the SOSCF procedure ***
                           *** Shutting down KDIIS ***
                      *** Re-Reading the Fockian *** 
                      *** Removing any level shift *** 
ITER      Energy       Delta-E        Grad      Rot      Max-DP    RMS-DP
  3   -267.36356888  -0.0002256979  0.003184  0.003184  0.005954  0.000298
  4   -267.36369816  -0.0001292814  0.000022  0.000020  0.000040  0.000002
  5   -267.36369817  -0.0000000156  0.000011  0.000012  0.000018  0.000001
  6   -267.36369818  -0.0000000035  0.000003  0.000004  0.000008  0.000000
                  ***Gradient check signals convergence***
              ***Rediagonalizing the Fockian in SOSCF/NRSCF***

               *****************************************************
               *                     SUCCESS                       *
               *           SCF CONVERGED AFTER   7 CYCLES          *
               *****************************************************


----------------
TOTAL SCF ENERGY
----------------

Total Energy       :         -267.36369818 Eh           -7275.33610 eV

Components:
Nuclear Repulsion  :          244.43510478 Eh            6651.41735 eV
Electronic Energy  :         -511.79880296 Eh          -13926.75345 eV
One Electron Energy:         -845.81561855 Eh          -23015.81308 eV
Two Electron Energy:          334.01681559 Eh            9089.05963 eV

Virial components:
Potential Energy   :         -534.31273653 Eh          -14539.38873 eV
Kinetic Energy     :          266.94903835 Eh            7264.05263 eV
Virial Ratio       :            2.00155333


---------------
SCF CONVERGENCE
---------------

  Last Energy change         ...   -2.5165e-10  Tolerance :   1.0000e-08
  Last MAX-Density change    ...    2.3624e-06  Tolerance :   1.0000e-07
  Last RMS-Density change    ...    6.9527e-08  Tolerance :   5.0000e-09
  Last Orbital Gradient      ...    5.7964e-07  Tolerance :   1.0000e-05
  Last Orbital Rotation      ...    7.5763e-07  Tolerance :   1.0000e-05

             **** THE GBW FILE WAS UPDATED (butanediamine_tTTTt.gbw) ****
             **** DENSITY FILE WAS UPDATED (butanediamine_tTTTt.scfp.tmp) ****
             **** ENERGY FILE WAS UPDATED (butanediamine_tTTTt.en.tmp) ****
----------------
ORBITAL ENERGIES
----------------

  NO   OCC          E(Eh)            E(eV) 
   0   2.0000     -15.537498      -422.7968 
   1   2.0000     -15.537497      -422.7968 
   2   2.0000     -11.250632      -306.1453 
   3   2.0000     -11.250632      -306.1453 
   4   2.0000     -11.224861      -305.4440 
   5   2.0000     -11.224275      -305.4281 
   6   2.0000      -1.172594       -31.9079 
   7   2.0000      -1.167542       -31.7704 
   8   2.0000      -1.044590       -28.4247 
   9   2.0000      -0.931623       -25.3508 
  10   2.0000      -0.833791       -22.6886 
  11   2.0000      -0.797554       -21.7026 
  12   2.0000      -0.677396       -18.4329 
  13   2.0000      -0.661799       -18.0085 
  14   2.0000      -0.602889       -16.4054 
  15   2.0000      -0.602307       -16.3896 
  16   2.0000      -0.583949       -15.8901 
  17   2.0000      -0.536869       -14.6090 
  18   2.0000      -0.534337       -14.5401 
  19   2.0000      -0.529928       -14.4201 
  20   2.0000      -0.483411       -13.1543 
  21   2.0000      -0.476500       -12.9662 
  22   2.0000      -0.465794       -12.6749 
  23   2.0000      -0.395717       -10.7680 
  24   2.0000      -0.367032        -9.9874 
  25   0.0000       0.179860         4.8942 
  26   0.0000       0.185754         5.0546 
  27   0.0000       0.201799         5.4912 
  28   0.0000       0.210128         5.7179 
  29   0.0000       0.216497         5.8912 
  30   0.0000       0.242884         6.6092 
  31   0.0000       0.272515         7.4155 
  32   0.0000       0.279741         7.6121 
  33   0.0000       0.284602         7.7444 
  34   0.0000       0.287850         7.8328 
  35   0.0000       0.310906         8.4602 
  36   0.0000       0.329060         8.9542 
  37   0.0000       0.370528        10.0826 
  38   0.0000       0.381093        10.3701 
  39   0.0000       0.412912        11.2359 
  40   0.0000       0.478541        13.0218 
  41   0.0000       0.501715        13.6524 
  42   0.0000       0.606107        16.4930 
  43   0.0000       0.611645        16.6437 
  44   0.0000       0.612846        16.6764 
  45   0.0000       0.668372        18.1873 
  46   0.0000       0.670358        18.2414 
  47   0.0000       0.709890        19.3171 
  48   0.0000       0.735053        20.0018 
  49   0.0000       0.768349        20.9078 
  50   0.0000       0.785440        21.3729 
  51   0.0000       0.834594        22.7104 
  52   0.0000       0.846445        23.0329 
  53   0.0000       0.872552        23.7434 
  54   0.0000       0.882999        24.0276 
  55   0.0000       0.886371        24.1194 
  56   0.0000       0.890418        24.2295 
  57   0.0000       0.900851        24.5134 
  58   0.0000       0.900896        24.5146 
  59   0.0000       0.908715        24.7274 
  60   0.0000       0.913175        24.8488 
  61   0.0000       0.914574        24.8868 
  62   0.0000       0.915918        24.9234 
  63   0.0000       0.933697        25.4072 
  64   0.0000       0.969852        26.3910 
  65   0.0000       1.036257        28.1980 
  66   0.0000       1.081688        29.4342 
  67   0.0000       1.083988        29.4968 
  68   0.0000       1.101656        29.9776 
  69   0.0000       1.122175        30.5359 
  70   0.0000       1.133099        30.8332 
  71   0.0000       1.160112        31.5682 
  72   0.0000       1.181688        32.1554 
  73   0.0000       1.205513        32.8037 
  74   0.0000       1.232587        33.5404 
  75   0.0000       1.341944        36.5162 
  76   0.0000       1.429394        38.8958 
  77   0.0000       1.457243        39.6536 
  78   0.0000       1.461174        39.7606 
  79   0.0000       1.477628        40.2083 
  80   0.0000       1.506964        41.0066 
  81   0.0000       1.508578        41.0505 
  82   0.0000       1.561466        42.4896 
  83   0.0000       1.563077        42.5335 
  84   0.0000       1.591692        43.3121 
  85   0.0000       1.605045        43.6755 
  86   0.0000       1.698036        46.2059 
  87   0.0000       1.763292        47.9816 
  88   0.0000       1.810837        49.2754 
  89   0.0000       1.889085        51.4046 
  90   0.0000       1.892738        51.5040 
  91   0.0000       1.907296        51.9002 
  92   0.0000       1.907331        51.9011 
  93   0.0000       1.914401        52.0935 
  94   0.0000       1.927200        52.4418 
  95   0.0000       1.930483        52.5311 
  96   0.0000       1.936877        52.7051 
  97   0.0000       1.977706        53.8161 
  98   0.0000       1.979938        53.8769 
  99   0.0000       1.982654        53.9508 
 100   0.0000       2.016442        54.8702 
 101   0.0000       2.017823        54.9078 
 102   0.0000       2.019537        54.9544 
 103   0.0000       2.030612        55.2557 
 104   0.0000       2.043461        55.6054 
 105   0.0000       2.070118        56.3308 
 106   0.0000       2.074697        56.4554 
 107   0.0000       2.079440        56.5844 
 108   0.0000       2.104961        57.2789 
 109   0.0000       2.124752        57.8174 
 110   0.0000       2.170502        59.0624 
 111   0.0000       2.218423        60.3664 
 112   0.0000       2.227388        60.6103 
 113   0.0000       2.280984        62.0687 
 114   0.0000       2.306107        62.7524 
 115   0.0000       2.322476        63.1978 
 116   0.0000       2.344762        63.8042 
 117   0.0000       2.350310        63.9552 
 118   0.0000       2.425538        66.0023 
 119   0.0000       2.437812        66.3362 
 120   0.0000       2.474858        67.3443 
 121   0.0000       2.554808        69.5199 
 122   0.0000       2.559742        69.6541 
 123   0.0000       2.580220        70.2114 
 124   0.0000       2.598782        70.7165 
 125   0.0000       2.624781        71.4239 
 126   0.0000       2.707937        73.6867 
 127   0.0000       2.757029        75.0226 
 128   0.0000       2.762870        75.1815 
 129   0.0000       2.775282        75.5193 
 130   0.0000       2.812431        76.5301 
 131   0.0000       2.825578        76.8879 
 132   0.0000       2.840632        77.2975 
 133   0.0000       2.861164        77.8562 
 134   0.0000       2.877131        78.2907 
 135   0.0000       2.904466        79.0345 
 136   0.0000       3.029185        82.4283 
 137   0.0000       3.074972        83.6742 
 138   0.0000       3.075719        83.6946 
 139   0.0000       3.116357        84.8004 
 140   0.0000       3.181828        86.5820 
 141   0.0000       3.192248        86.8655 
 142   0.0000       3.426069        93.2281 
 143   0.0000       3.444470        93.7288 

                    ********************************
                    * MULLIKEN POPULATION ANALYSIS *
                    ********************************

-----------------------
MULLIKEN ATOMIC CHARGES
-----------------------
   0 C :    0.113705
   1 C :   -0.092575
   2 C :   -0.092585
   3 C :    0.113712
   4 N :   -0.301397
   5 N :   -0.301405
   6 H :    0.030522
   7 H :    0.030519
   8 H :    0.091086
   9 H :    0.091084
  10 H :    0.030518
  11 H :    0.030520
  12 H :    0.091084
  13 H :    0.091084
  14 H :    0.018531
  15 H :    0.018533
  16 H :    0.018533
  17 H :    0.018532
Sum of atomic charges:   -0.0000000

--------------------------------
MULLIKEN REDUCED ORBITAL CHARGES
--------------------------------
  0 C s       :     3.024544  s :     3.024544
      pz      :     1.019487  p :     2.750178
      px      :     0.787473
      py      :     0.943217
      dz2     :     0.017147  d :     0.111574
      dxz     :     0.010664
      dyz     :     0.024435
      dx2y2   :     0.027400
      dxy     :     0.031926
  1 C s       :     3.090767  s :     3.090767
      pz      :     0.982616  p :     2.920243
      px      :     0.927839
      py      :     1.009787
      dz2     :     0.012812  d :     0.081566
      dxz     :     0.007946
      dyz     :     0.024267
      dx2y2   :     0.014102
      dxy     :     0.022438
  2 C s       :     3.090776  s :     3.090776
      pz      :     0.982618  p :     2.920243
      px      :     0.927840
      py      :     1.009785
      dz2     :     0.012812  d :     0.081566
      dxz     :     0.007946
      dyz     :     0.024267
      dx2y2   :     0.014103
      dxy     :     0.022438
  3 C s       :     3.024534  s :     3.024534
      pz      :     1.019490  p :     2.750176
      px      :     0.787472
      py      :     0.943215
      dz2     :     0.017147  d :     0.111577
      dxz     :     0.010665
      dyz     :     0.024436
      dx2y2   :     0.027402
      dxy     :     0.031927
  4 N s       :     3.416431  s :     3.416431
      pz      :     1.053436  p :     3.854524
      px      :     1.443798
      py      :     1.357291
      dz2     :     0.003641  d :     0.030442
      dxz     :     0.002210
      dyz     :     0.013279
      dx2y2   :     0.007805
      dxy     :     0.003507
  5 N s       :     3.416442  s :     3.416442
      pz      :     1.053431  p :     3.854522
      px      :     1.443805
      py      :     1.357287
      dz2     :     0.003641  d :     0.030441
      dxz     :     0.002209
      dyz     :     0.013279
      dx2y2   :     0.007805
      dxy     :     0.003507
  6 H s       :     0.941423  s :     0.941423
      pz      :     0.014975  p :     0.028055
      px      :     0.002814
      py      :     0.010266
  7 H s       :     0.941426  s :     0.941426
      pz      :     0.014975  p :     0.028055
      px      :     0.002815
      py      :     0.010265
  8 H s       :     0.852511  s :     0.852511
      pz      :     0.026798  p :     0.056403
      px      :     0.011119
      py      :     0.018486
  9 H s       :     0.852512  s :     0.852512
      pz      :     0.026794  p :     0.056404
      px      :     0.011118
      py      :     0.018492
 10 H s       :     0.941427  s :     0.941427
      pz      :     0.014975  p :     0.028055
      px      :     0.002814
      py      :     0.010266
 11 H s       :     0.941426  s :     0.941426
      pz      :     0.014975  p :     0.028055
      px      :     0.002814
      py      :     0.010266
 12 H s       :     0.852513  s :     0.852513
      pz      :     0.026795  p :     0.056404
      px      :     0.011119
      py      :     0.018489
 13 H s       :     0.852513  s :     0.852513
      pz      :     0.026795  p :     0.056403
      px      :     0.011119
      py      :     0.018489
 14 H s       :     0.952860  s :     0.952860
      pz      :     0.014852  p :     0.028609
      px      :     0.003715
      py      :     0.010042
 15 H s       :     0.952859  s :     0.952859
      pz      :     0.014853  p :     0.028609
      px      :     0.003715
      py      :     0.010041
 16 H s       :     0.952859  s :     0.952859
      pz      :     0.014852  p :     0.028608
      px      :     0.003714
      py      :     0.010042
 17 H s       :     0.952860  s :     0.952860
      pz      :     0.014852  p :     0.028609
      px      :     0.003714
      py      :     0.010042


                     *******************************
                     * LOEWDIN POPULATION ANALYSIS *
                     *******************************

----------------------
LOEWDIN ATOMIC CHARGES
----------------------
   0 C :   -0.017949
   1 C :   -0.050941
   2 C :   -0.050943
   3 C :   -0.017962
   4 N :   -0.060256
   5 N :   -0.060266
   6 H :    0.017107
   7 H :    0.017106
   8 H :    0.033986
   9 H :    0.033981
  10 H :    0.017107
  11 H :    0.017109
  12 H :    0.033985
  13 H :    0.033986
  14 H :    0.013487
  15 H :    0.013488
  16 H :    0.013489
  17 H :    0.013487

-------------------------------
LOEWDIN REDUCED ORBITAL CHARGES
-------------------------------
  0 C s       :     2.796042  s :     2.796042
      pz      :     1.052329  p :     2.960556
      px      :     0.917049
      py      :     0.991178
      dz2     :     0.039482  d :     0.261352
      dxz     :     0.020352
      dyz     :     0.062219
      dx2y2   :     0.066960
      dxy     :     0.072338
  1 C s       :     2.802855  s :     2.802855
      pz      :     1.031917  p :     3.045937
      px      :     0.992509
      py      :     1.021510
      dz2     :     0.031877  d :     0.202149
      dxz     :     0.017596
      dyz     :     0.062582
      dx2y2   :     0.037576
      dxy     :     0.052519
  2 C s       :     2.802859  s :     2.802859
      pz      :     1.031916  p :     3.045935
      px      :     0.992511
      py      :     1.021508
      dz2     :     0.031876  d :     0.202148
      dxz     :     0.017596
      dyz     :     0.062583
      dx2y2   :     0.037576
      dxy     :     0.052519
  3 C s       :     2.796037  s :     2.796037
      pz      :     1.052328  p :     2.960563
      px      :     0.917056
      py      :     0.991178
      dz2     :     0.039481  d :     0.261363
      dxz     :     0.020355
      dyz     :     0.062220
      dx2y2   :     0.066965
      dxy     :     0.072342
  4 N s       :     3.079348  s :     3.079348
      pz      :     1.130002  p :     3.911338
      px      :     1.403333
      py      :     1.378003
      dz2     :     0.011330  d :     0.069570
      dxz     :     0.005495
      dyz     :     0.030866
      dx2y2   :     0.014113
      dxy     :     0.007766
  5 N s       :     3.079361  s :     3.079361
      pz      :     1.130000  p :     3.911338
      px      :     1.403338
      py      :     1.378000
      dz2     :     0.011331  d :     0.069567
      dxz     :     0.005494
      dyz     :     0.030865
      dx2y2   :     0.014112
      dxy     :     0.007766
  6 H s       :     0.907374  s :     0.907374
      pz      :     0.035656  p :     0.075519
      px      :     0.012317
      py      :     0.027546
  7 H s       :     0.907373  s :     0.907373
      pz      :     0.035657  p :     0.075521
      px      :     0.012318
      py      :     0.027545
  8 H s       :     0.822847  s :     0.822847
      pz      :     0.054385  p :     0.143167
      px      :     0.037672
      py      :     0.051111
  9 H s       :     0.822849  s :     0.822849
      pz      :     0.054376  p :     0.143170
      px      :     0.037671
      py      :     0.051123
 10 H s       :     0.907373  s :     0.907373
      pz      :     0.035656  p :     0.075520
      px      :     0.012317
      py      :     0.027547
 11 H s       :     0.907374  s :     0.907374
      pz      :     0.035655  p :     0.075517
      px      :     0.012316
      py      :     0.027545
 12 H s       :     0.822847  s :     0.822847
      pz      :     0.054380  p :     0.143168
      px      :     0.037671
      py      :     0.051118
 13 H s       :     0.822847  s :     0.822847
      pz      :     0.054380  p :     0.143168
      px      :     0.037671
      py      :     0.051117
 14 H s       :     0.908440  s :     0.908440
      pz      :     0.034821  p :     0.078073
      px      :     0.015905
      py      :     0.027348
 15 H s       :     0.908440  s :     0.908440
      pz      :     0.034821  p :     0.078072
      px      :     0.015904
      py      :     0.027346
 16 H s       :     0.908441  s :     0.908441
      pz      :     0.034820  p :     0.078070
      px      :     0.015903
      py      :     0.027346
 17 H s       :     0.908441  s :     0.908441
      pz      :     0.034820  p :     0.078072
      px      :     0.015904
      py      :     0.027347


                      *****************************
                      * MAYER POPULATION ANALYSIS *
                      *****************************

  NA   - Mulliken gross atomic population
  ZA   - Total nuclear charge
  QA   - Mulliken gross atomic charge
  VA   - Mayer's total valence
  BVA  - Mayer's bonded valence
  FA   - Mayer's free valence

  ATOM       NA         ZA         QA         VA         BVA        FA
  0 C      5.8863     6.0000     0.1137     4.0121     4.0121    -0.0000
  1 C      6.0926     6.0000    -0.0926     3.9836     3.9836     0.0000
  2 C      6.0926     6.0000    -0.0926     3.9836     3.9836    -0.0000
  3 C      5.8863     6.0000     0.1137     4.0121     4.0121    -0.0000
  4 N      7.3014     7.0000    -0.3014     3.0421     3.0421     0.0000
  5 N      7.3014     7.0000    -0.3014     3.0421     3.0421    -0.0000
  6 H      0.9695     1.0000     0.0305     0.9681     0.9681     0.0000
  7 H      0.9695     1.0000     0.0305     0.9681     0.9681    -0.0000
  8 H      0.9089     1.0000     0.0911     1.0005     1.0005    -0.0000
  9 H      0.9089     1.0000     0.0911     1.0005     1.0005    -0.0000
 10 H      0.9695     1.0000     0.0305     0.9681     0.9681    -0.0000
 11 H      0.9695     1.0000     0.0305     0.9681     0.9681    -0.0000
 12 H      0.9089     1.0000     0.0911     1.0005     1.0005    -0.0000
 13 H      0.9089     1.0000     0.0911     1.0005     1.0005    -0.0000
 14 H      0.9815     1.0000     0.0185     0.9700     0.9700     0.0000
 15 H      0.9815     1.0000     0.0185     0.9700     0.9700     0.0000
 16 H      0.9815     1.0000     0.0185     0.9700     0.9700    -0.0000
 17 H      0.9815     1.0000     0.0185     0.9700     0.9700    -0.0000

  Mayer bond orders larger than 0.1
B(  0-C ,  1-C ) :   1.0453 B(  0-C ,  5-N ) :   1.0473 B(  0-C ,  6-H ) :   0.9696 
B(  0-C ,  7-H ) :   0.9696 B(  1-C ,  2-C ) :   1.0321 B(  1-C , 14-H ) :   0.9625 
B(  1-C , 15-H ) :   0.9625 B(  2-C ,  3-C ) :   1.0453 B(  2-C , 16-H ) :   0.9625 
B(  2-C , 17-H ) :   0.9625 B(  3-C ,  4-N ) :   1.0473 B(  3-C , 10-H ) :   0.9696 
B(  3-C , 11-H ) :   0.9696 B(  4-N , 12-H ) :   0.9900 B(  4-N , 13-H ) :   0.9900 
B(  5-N ,  8-H ) :   0.9900 B(  5-N ,  9-H ) :   0.9900 

-------
TIMINGS
-------

Total SCF time: 0 days 0 hours 0 min 8 sec 

Total time                  ....       8.792 sec
Sum of individual times     ....       8.602 sec  ( 97.8%)

Fock matrix formation       ....       8.536 sec  ( 97.1%)
Diagonalization             ....       0.010 sec  (  0.1%)
Density matrix formation    ....       0.002 sec  (  0.0%)
Population analysis         ....       0.006 sec  (  0.1%)
Initial guess               ....       0.041 sec  (  0.5%)
Orbital Transformation      ....       0.000 sec  (  0.0%)
Orbital Orthonormalization  ....       0.000 sec  (  0.0%)
DIIS solution               ....       0.000 sec  (  0.0%)
SOSCF solution              ....       0.007 sec  (  0.1%)


           ************************************************************
           *        Program running with 4 parallel MPI-processes     *
           *              working on a common directory               *
           ************************************************************


------------------------------------------------------------------------------- 
                              ORCA-MATRIX DRIVEN CI                            
------------------------------------------------------------------------------- 


Wavefunction type
-----------------
Correlation treatment                      ...      CCSD     
Single excitations                         ... ON
Orbital optimization                       ... OFF
Calculation of Z vector                    ... OFF
Calculation of Brueckner orbitals          ... OFF
Perturbative triple excitations            ... ON
Calculation of F12 correction              ... OFF
Frozen core treatment                      ... chemical core (12 el)
Reference Wavefunction                     ... RHF
  Internal Orbitals:     6 ...   24 ( 19 MO's/ 38 electrons)
  Virtual  Orbitals:    25 ...  143 (119 MO's              )
Number of AO's                             ...    144
Number of electrons                        ...     50
Number of correlated electrons             ...     38

Algorithmic settings
--------------------
Integral transformation                    ... All integrals via the RI transformation
K(C) Formation                             ... RI-DLPNO
   PNO-Integral Storage                    ... ON DISK
   PNO occupation number cut-off           ... 1.000e-07
   Singles PNO occupation number cut-off   ... 3.000e-09
   PNO Mulliken prescreening cut-off       ... 1.000e-03
   Domain cut-off (Mulliken population)    ... 1.000e-03
   PNO Normalization                       ...    1
Maximum number of iterations               ...        50
Convergence tolerance (max. residuum)      ... 1.000e-05
Level shift for amplitude update           ... 2.000e-01
Maximum number of DIIS vectors             ...         7
DIIS turned on at iteration                ...         0
Damping before turning on DIIS             ...     0.500
Damping after turning on DIIS              ...     0.000
Pair specific amplitude update             ... OFF
Natural orbital iterations                 ... OFF
Perturbative natural orbital generation    ... OFF
Printlevel                                 ... 2

Singles Fock matrix elements calculated using PNOs.

Memory handling:
----------------
Maximum memory for working arrays          ...   8000 MB
Data storage in matrix containers          ... UNCOMPRESSED
Data type for integral storage             ... DOUBLE
In-Core Storage of quantities:
   Amplitudes+Sigma Vector      ... NO
   J+K operators                ... NO
   DIIS vectors                 ... NO
   3-external integrals         ... NO
   4-external integrals         ... NO

Localization treatment:
-----------------------
Localization option                        ...    6
Localization threshhold                    ... -1.0e+00
Using relative localization threshhold     ... 1.0e-08
Neglect threshold for strong pairs         ... 1.000e-05 Eh
Prescreening threshold for very weak pairs ... 1.000e-07 Eh

Initializing the integral package          ... done
Localizing the valence orbitals
------------------------------------------------------------------------------
                           ORCA ORBITAL LOCALIZATION
------------------------------------------------------------------------------

Input orbitals are from                  ... butanediamine_tTTTt.proc0.gbw
Output orbitals are to                   ... butanediamine_tTTTt.proc0.loc
Max. number of iterations                ... 128
Localizations seeded randomly            ... off
Convergence tolerance                    ... 1.000e-06
Using relative localization threshhold   ... 1.000e-08
Treshold for strong local MOs            ... 9.500e-01
Treshold for bond MOs                    ... 8.500e-01
Operator                                 ... 0
Orbital range for localization           ... 6 to 24
Localization criterion                   ... FOSTER-BOYS (AUGMENTED HESSIAN)
Doing the dipole integrals     ... o.k.
Initial value of the localization sum :   373.682751
ITERATION   0 : L=  391.9803780082 DL=  1.83e+01 (AVERGE_DL)=    0.3271141454 
ITERATION   1 : L=  394.0482666035 DL=  2.07e+00 (AVERGE_DL)=    0.1099677942 
ITERATION   2 : L=  394.0851756104 DL=  3.69e-02 (AVERGE_DL)=    0.0146915672 
ITERATION   3 : L=  394.0855116031 DL=  3.36e-04 (AVERGE_DL)=    0.0014017381 
ITERATION   4 : L=  394.0855140228 DL=  2.42e-06 (AVERGE_DL)=    0.0001189556 
ITERATION   5 : L=  394.0855140429 DL=  2.01e-08 (AVERGE_DL)=    0.0000108431 
LOCALIZATION SUM CONVERGED

------------------------------------------------------
AUGMENTED HESSIAN OPTIMIZATION OF FOSTER-BOYS ORBITALS
------------------------------------------------------

Spin operator:           0
Orbital window:          6 to 24
Number of iterations:    128
Gradient tolerance:      1.000e-06
Number of pairs:         171
Davidson threshold:      2000
Diagonalization method:  LAPACK
Iter:    0   L: 394.0855140429   Grad. norm: 1.783015e-03
   *** Likely close to a maximum now. ***
       Augmented Hessian eigenvalues:  8.72e-09 -6.39e+00 -6.39e+00 -6.40e+00 ... 
Iter:    1   L: 394.0855140473   Grad. norm: 3.022240e-10
LOCALIZATION HAS CONVERGED.

Eigenvalues of the Hessian:
  0 -6.386e+00
  1 -6.386e+00
  2 -6.401e+00
  3 -6.401e+00
  4 -9.426e+00
  5 -9.427e+00
  6 -1.184e+01
  7 -1.184e+01
  8 -1.551e+01
  9 -1.551e+01
    ...


------------------------------------------------------------------------------- 
                    LOCALIZED MOLECULAR ORBITAL COMPOSITIONS                   
------------------------------------------------------------------------------- 

The Mulliken populations for each LMO on each atom are computed
The LMO`s will be ordered according to atom index and type
  (A) Strongly localized MO`s have populations of >=0.950 on one atom
  (B) Two center bond orbitals have populations of >=0.850 on two atoms
  (C) Other MO`s are considered to be `delocalized`

FOUND  -   2 strongly local MO`s
       -  17 two center bond MO`s
       -   0 significantly delocalized MO`s

Rather strongly localized orbitals:
MO   7:   5N  -   0.976658
MO   6:   4N  -   0.976655
Bond-like localized orbitals:
MO  24:  17H  -   0.510808  and   2C  -   0.498925
MO  23:  16H  -   0.510808  and   2C  -   0.498926
MO  22:  15H  -   0.510808  and   1C  -   0.498924
MO  21:  14H  -   0.510808  and   1C  -   0.498924
MO  20:  13H  -   0.465257  and   4N  -   0.546348
MO  19:  12H  -   0.465256  and   4N  -   0.546348
MO  18:  11H  -   0.503812  and   3C  -   0.509660
MO  17:  10H  -   0.503813  and   3C  -   0.509658
MO  16:   9H  -   0.465256  and   5N  -   0.546348
MO  15:   8H  -   0.465256  and   5N  -   0.546347
MO  14:   7H  -   0.503813  and   0C  -   0.509658
MO  13:   6H  -   0.503811  and   0C  -   0.509661
MO  12:   5N  -   0.600154  and   0C  -   0.426907
MO  11:   4N  -   0.600154  and   3C  -   0.426905
MO  10:   3C  -   0.500583  and   2C  -   0.555172
MO   9:   2C  -   0.520620  and   1C  -   0.520621
MO   8:   1C  -   0.555168  and   0C  -   0.500586
Localized MO's were stored in: butanediamine_tTTTt.proc0.loc

Localizing the core orbitals
------------------------------------------------------------------------------
                           ORCA ORBITAL LOCALIZATION
------------------------------------------------------------------------------

Input orbitals are from                  ... butanediamine_tTTTt.proc0.loc
Output orbitals are to                   ... butanediamine_tTTTt.proc0.loc
Max. number of iterations                ... 128
Localizations seeded randomly            ... off
Convergence tolerance                    ... 1.000e-06
Using relative localization threshhold   ... 1.000e-08
Treshold for strong local MOs            ... 9.500e-01
Treshold for bond MOs                    ... 8.500e-01
Operator                                 ... 0
Orbital range for localization           ... 0 to 5
Localization criterion                   ... FOSTER-BOYS (AUGMENTED HESSIAN)
Doing the dipole integrals     ... o.k.
Initial value of the localization sum :   105.480378
ITERATION   0 : L=  105.4803861903 DL=  8.29e-06 (AVERGE_DL)=    0.0007433741 
ITERATION   1 : L=  105.4803861903 DL=  0.00e+00 (AVERGE_DL)=    0.0000000000 
LOCALIZATION SUM CONVERGED

------------------------------------------------------
AUGMENTED HESSIAN OPTIMIZATION OF FOSTER-BOYS ORBITALS
------------------------------------------------------

Spin operator:           0
Orbital window:          0 to 5
Number of iterations:    128
Gradient tolerance:      1.000e-06
Number of pairs:         15
Davidson threshold:      2000
Diagonalization method:  LAPACK
Iter:    0   L: 105.4803861903   Grad. norm: 3.076915e-06
   *** Likely close to a maximum now. ***
       Augmented Hessian eigenvalues:  9.97e-14 -3.07e+01 -3.07e+01 -3.37e+01 ... 
Iter:    1   L: 105.4803861903   Grad. norm: 3.614740e-20
LOCALIZATION HAS CONVERGED.

Eigenvalues of the Hessian:
  0 -3.069e+01
  1 -3.069e+01
  2 -3.366e+01
  3 -3.381e+01
  4 -3.381e+01
  5 -9.308e+01
  6 -9.308e+01
  7 -9.420e+01
  8 -9.420e+01
  9 -2.177e+02
    ...


------------------------------------------------------------------------------- 
                    LOCALIZED MOLECULAR ORBITAL COMPOSITIONS                   
------------------------------------------------------------------------------- 

The Mulliken populations for each LMO on each atom are computed
The LMO`s will be ordered according to atom index and type
  (A) Strongly localized MO`s have populations of >=0.950 on one atom
  (B) Two center bond orbitals have populations of >=0.850 on two atoms
  (C) Other MO`s are considered to be `delocalized`

FOUND  -   6 strongly local MO`s
       -   0 two center bond MO`s
       -   0 significantly delocalized MO`s

Rather strongly localized orbitals:
MO   5:   5N  -   0.999823
MO   4:   4N  -   0.999823
MO   3:   3C  -   0.999377
MO   2:   2C  -   0.999155
MO   1:   1C  -   0.999155
MO   0:   0C  -   0.999377
Localized MO's were stored in: butanediamine_tTTTt.proc0.loc

Warning: internal orbitals are localized - no re-canonicalization of internal orbitals

--------------------------
CLOSED-SHELL FOCK OPERATOR
--------------------------

RI-JK section for the Fock operator:
  RHF full Fock operator         ... done
  RHF frozen core Fock operator  ... done
Time needed for Fock operator              ...            1.100 sec
Reference energy                           ...   -267.363698176

--------------
DLPNO SETTINGS (2015 fully linear scaling implementation)
--------------

TCutMKN:           1.000e-03
TCutPAO:           1.000e-03
TCutPNO:           1.000e-07
TCutPNOSingles:    3.000e-09
TCutEN:            9.700e-01
TCutPAOExt:        1.000e-01
TCutPairs:         1.000e-05
TCutPre:           1.000e-07
TCutOSV:           1.000e-06
TCutDOij:          1.000e-05
TCutDO:            5.000e-03
TCutC:             1.000e-04
TCutCPAO:          1.000e-03
TCutCMO:           1.000e-03
TScaleDOMP2PreScr: 2.000e+00
TScaleMKNMP2PreScr:1.000e+01
TScalePNOMP2PreScr:1.000e+00
PAO overlap thresh 1.000e-08
Using PNOs for Singles Fock computation
Use new domains
Use fully linear algorithm
TCutTNO:           1.000e-09
TCutMP2Pairs:      1.000e-06
TCutDOStrong:      2.000e-03
TCutMKNStrong:     1.000e-02
TCutMKNWeak:       1.000e-01
TCutDOWeak:        4.000e-03
NTCutTNO:          1

--------------------------
Calculating differential overlap integrals ... ok
--------------------------
ELECTRON PAIR PRESCREENING
--------------------------

Dipole-based pair screening          .... used

   TCutDOij = 1.000000e-05
   TCutPre  = 1.000000e-07
   .... Finished loop over pairs
Total time spent in the prescreening                  ...     0.000 sec
sum of pair energies estimated for screened out pairs ...       0.000000000000 Eh
Thresholds for map construction and integral transformation for crude MP2:
   TCutMKN                    ...     1.0e-02
   TCutDO                     ...     1.0e-02
   TCutPairs                  ...     1.0e-05
   TCutPNO_CrudeMP2           ...     1.0e-07
   TCutPNOSingles_CrudeMP2    ...     3.0e-09
--------------------------------
LOCAL RI TRANSFORMATION (IAVPAO)
--------------------------------

Orbital window:       6 to 24
Number of PAOs:     144
Basis functions:    144 (72 shells)
Aux. functions:     504 (180 shells)

Processing maps (0.0 sec)
Average map sizes:
   Aux shells -> MOs              19.0
   Aux shells -> PAOs            144.0
   MOs        -> AO shells        68.2
   PAOs       -> AO shells        72.0

Calculating integrals (0.4 sec, 10.526 MB)
Sorting integrals (0.0 sec, 10.521 MB)
Total time for the integral transformation: 0.4 sec
--------------------------------
INITIAL GUESS AND PNO GENERATION
--------------------------------

PNO truncation parameters                   .... 
    PAOOverlapThresh   =        1.000e-08

    TCutPairs          =        1.000e-05
    TCutPNO            =        1.000e-07
    TCutPNOSingles     =        3.000e-09
    TCutMP2Pairs       =        1.000e-06
    TCutMKN            =        1.000e-02
    TCutDO             =        1.000e-02

Pair selection                          .... not used
Type of local MP2 treatment                 .... semi-local MP2
Strategy for PNO selection                  .... occupation number selection
Pair density normalization                  .... MP2 norm
Spin component scaling                      .... not used

   .... Finished loop over pairs
Making pair pair interaction lists          ... done

                       ===========================
                        169 OF  190 PAIRS ARE KEPT CCSD PAIRS
                         17 OF  190 PAIRS ARE KEPT MP2 PAIRS FOR (T)
                          4 OF  190 PAIRS ARE SKIPPED
                       ===========================

Total time spent in the initial guess                 ...     0.407 sec
SL-MP2 correlation energy (all non-screened pairs)    ...      -0.893422126042 Eh

Initial PNO correlation energy                        ...      -0.893025780166 Eh
sum of pair energies prescreened and skipped MP2 pairs...      -0.000002809759 Eh
sum of pair energies of crude MP2 skipped pairs only  ...      -0.000002809759 Eh
sum of MP2 pair energies for pairs that were not kept ...      -0.000069913110 Eh
sum of PNO error estimates for the kept pairs         ...      -0.000326432767 Eh
                                                          --------------------
sum of all corrections                                         -0.000396345876
Initial total correlation energy                               -0.893422126042
Thresholds for map construction and integral transformation for fine MP2 and CCSD(T) calculation:
   TCutMKN   ...     1.0e-03
   TCutDO    ...     5.0e-03
   TCutPairs ...     1.0e-05
   TCutCMO   ...     1.0e-03
   TCutCPAO  ...     1.0e-03

Thresholds for map construction and integral transformation for strong Triples:
   TCutMKN   ...     1.0e-02
   TCutDO    ...     1.0e-02
   TCutCMO   ...     1.0e-03
   TCutCPAO  ...     1.0e-03

Thresholds for map construction and integral transformation for weak Triples:
   TCutMKN   ...     1.0e-01
   TCutDO    ...     2.0e-02
   TCutCMO   ...     1.0e-03
   TCutCPAO  ...     1.0e-03

--------------------------------
LOCAL RI TRANSFORMATION (IAVPAO)
--------------------------------

Orbital window:       6 to 24
Number of PAOs:     144
Basis functions:    144 (72 shells)
Aux. functions:     504 (180 shells)

Processing maps (0.0 sec)
Average map sizes:
   Aux shells -> MOs              19.0
   Aux shells -> PAOs            144.0
   MOs        -> AO shells        68.2
   PAOs       -> AO shells        72.0

Calculating integrals (0.3 sec, 10.526 MB)
Sorting integrals (0.0 sec, 10.521 MB)
Total time for the integral transformation: 0.4 sec
--------------------------------
INITIAL GUESS AND PNO GENERATION
--------------------------------

PNO truncation parameters                   .... 
    ScaleTCutPNO       =        1.000e-02
    PAOOverlapThresh   =        1.000e-08

    TCutPairs          =        1.000e-05
    TCutPNO            =        1.000e-07
    TCutPNOSingles     =        3.000e-09
    TCutMP2Pairs       =        1.000e-06
    TCutMKN            =        1.000e-03
    TCutDO             =        5.000e-03

Pair selection                          .... not used
Type of local MP2 treatment                 .... full local PMP2
Strategy for PNO selection                  .... occupation number selection
Pair density normalization                  .... MP2 norm
Spin component scaling                      .... not used

PASS-1: Formation of initial guess LMP2 amplitudes
Initial amplitudes guess done. Entering LMP2 iteration loop:
   Max. no of iterations          ...  50
   Energy convergence tolerance   ...    1.0e-07
   Residual convergence tolerance ...    5.0e-07
   Fock matrix cutoff             ...    1.0e-05 Eh
   DIIS convergence acceleration parameters:
        Max # vectors in DIIS     ... 7
        Start iteration of DIIS   ... 0
        Levelshift                ... 2.000e-01
        Damping factor 1          ... 5.000e-01
        Damping factor 2          ... 1.000e+00
   L-MP2 PNO cut-off              ...   1.0e-09
   L-MP2 PNO cut-off (core)       ...   1.0e-11
                           *** Turning on DIIS ***
LMP2-Iter=   0:  ELMP2= -0.911254564308  DE=   1.8e-02 RMAX=   4.8e-03
LMP2-Iter=   1:  ELMP2= -0.920359480771  DE=   9.1e-03 RMAX=   2.3e-03
LMP2-Iter=   2:  ELMP2= -0.921676311779  DE=   1.3e-03 RMAX=   3.0e-04
LMP2-Iter=   3:  ELMP2= -0.921786125926  DE=   1.1e-04 RMAX=   9.1e-05
LMP2-Iter=   4:  ELMP2= -0.921790295124  DE=   4.2e-06 RMAX=   1.2e-05
LMP2-Iter=   5:  ELMP2= -0.921789468669  DE=   8.3e-07 RMAX=   4.2e-06
LMP2-Iter=   6:  ELMP2= -0.921789377478  DE=   9.1e-08 RMAX=   4.6e-07
LMP2-Iter=   7:  ELMP2= -0.921789370867  DE=   6.6e-09 RMAX=   1.7e-07
LMP2-Iter=   8:  ELMP2= -0.921789374101  DE=   3.2e-09 RMAX=   1.8e-08 => CONVERGED
PASS-2: Formation of Pair natural orbitals
   .... Finished loop over pairs

 PNO Occupation Number Statistics: 
  | Av. % of trace(Dij) retained        ...  99.064003567730
  | sigma^2 in % of trace(Dij) retained ...   2.92e+00
  | Av. % of trace(Di) retained         ...  99.999900660820
  | sigma^2 in % of trace(Di) retained  ...   7.26e-10
 Distributions of % trace(Dij) recovered:
  |       >= 99.9  ...    85 ( 45.7 % of all pairs)
  |   [90.0, 99.0) ...    50 ( 26.9 % of all pairs)
  |   [99.0, 99.9) ...    51 ( 27.4 % of all pairs)
 Distributions of % trace(Di) recovered :
  |       >= 99.9  ...    19 (100.0 % of all I-pairs )

Making pair pair interaction lists          ... done

                       ===========================
                        169 OF  186 PAIRS ARE KEPT
                       ===========================

Total time spent in the initial guess                 ...     3.150 sec
L-MP2 correlation energy (all non-screened pairs)     ...      -0.921789374101 Eh
L-MP2 PNO error correction                            ...      -0.000005224684 Eh
                                                          --------------------
Initial total L-MP2 energy (non-screened pairs)       ...      -0.921794598785 Eh

Initial PNO correlation energy                        ...      -0.921422531144 Eh
sum of pair energies estimated for screened out pairs ...      -0.000002809759 Eh
sum of MP2 pair energies for pairs that were not kept ...      -0.000082469633 Eh
sum of PNO error estimates for the kept pairs         ...      -0.000289598008 Eh
                                                          --------------------
sum of all corrections                                         -0.000374877400
Initial total correlation energy                               -0.921797408544
Thresholds for map construction and integral transformation for fine MP2 and CCSD(T) calculation:
   TCutMKN   ...     1.0e-03
   TCutDO    ...     5.0e-03
   TCutPairs ...     1.0e-05
   TCutCMO   ...     1.0e-03
   TCutCPAO  ...     1.0e-03

Time for aux screen maps:            0.002
Time for maps after fine MP2:            0.007
-----------------------------
LOCAL RI TRANSFORMATION (IJV)
-----------------------------

Orbital window:       6 to 24
Basis functions:    144 (72 shells)
Aux. functions:     504 (180 shells)

Processing maps (0.0 sec)
Average map sizes:
   Aux shells -> MOs(i)           18.7
   Aux shells -> MOs(j)           19.0
   MOs        -> AO shells        68.2

Calculating integrals (0.3 sec, 1.378 MB)
Sorting integrals (0.0 sec, 1.372 MB)
Total time for the integral transformation: 0.3 sec
--------------------------------
LOCAL RI TRANSFORMATION (VABPAO)
--------------------------------

Number of PAOs:     144
Basis functions:    144 (72 shells)
Aux. functions:     504 (180 shells)

Processing maps (0.0 sec)
Average map sizes:
   Aux shells -> PAOs            144.0
   PAOs       -> AO shells        72.0

Calculating integrals (0.5 sec, 141.918 MB)
Finished


-------------------------------------
Pair Pair Term precalculation with     
RI-(ij|mn) and (im|jn) transformation  
ON THE FLY                             
-------------------------------------

   IBatch   1 (of   1)              ... done (   11.534 sec)
Total EXT                           ...          11.534 sec

---------------------
RI-PNO TRANSFORMATION
---------------------

Total Number of PNOs                   ...  4579
Average number of PNOs per pair        ...    27
Maximal number of PNOs per pair        ...    43
   #pairs with  1 -  5 PNOs   :    0
   #pairs with  6 - 10 PNOs   :   14
   #pairs with 11 - 15 PNOs   :   13
   #pairs with 16 - 20 PNOs   :   14
   #pairs with 21 - 25 PNOs   :   26
   #pairs with 26 - 30 PNOs   :   22
   #pairs with 31 - 35 PNOs   :   46
   #pairs with 36 - 40 PNOs   :   30
   #pairs with 41 - 45 PNOs   :    4
   #pairs with 46 - 50 PNOs   :    0

Generation of (ij|ab)[P] integrals            ... on
Generation of (ia|bc)[P],(ja|bc)[P] integrals ... on
Storage of 3 and 4 external integrals         ... on
Generation of ALL (ka|bc)[P] integrals        ... on
Keep RI integrals in memory                   ... off

Ibatch:  1 (of  1)
Starting 2-4 index PNO integral generation ... done

Timings:
Total PNO integral transformation time     ...          3.536 sec
Size of the 3-external file                ...        36 MB
Size of the 4-external file                ...       160 MB
Size of the IKJL file                      ...         0 MB
Size of the all 3-external file            ...       345 MB
Size of the 1-external file                ...         1 MB

Making pair/pair overlap matrices          ... done (    0.581 sec)
Size of the pair overlap file              ... 112 MB
Redoing the guess amplitudes               ... done (    0.002 sec)

-------------------------
FINAL STARTUP INFORMATION
-------------------------

E(0)                                       ...   -267.363698176
E(L-MP2)                                   ...     -0.921794599
E(L-MP2) including corrections             ...     -0.921797409
Initial E(tot)                             ...   -268.285495585
<T|T>                                      ...      0.277077806
Number of pairs included                   ... 169
Total number of pairs                      ... 190

------------------------------------------------
                  RHF COUPLED CLUSTER ITERATIONS
------------------------------------------------

Number of PNO amplitudes to be optimized   ...       140573
Number of non-PNO amplitudes               ...      2393209
Untruncated number of regular amplitudes   ...      2690590

Iter       E(tot)           E(Corr)          Delta-E          Residual     Time
  0   -268.257208738     -0.893135684      0.028658914      0.016542585    2.49
                           *** Turning on DIIS ***
  1   -268.325298275     -0.961225222     -0.068089537      0.006430344    2.54
  2   -268.356473631     -0.992400577     -0.031175355      0.001499553    2.55
  3   -268.360529786     -0.996456733     -0.004056155      0.000685542    7.70
  4   -268.361384495     -0.997311441     -0.000854709      0.000294123    7.82
  5   -268.361524050     -0.997450997     -0.000139555      0.000206938    2.46
  6   -268.361554860     -0.997481807     -0.000030810      0.000113960    2.53
  7   -268.361559518     -0.997486464     -0.000004658      0.000061244    2.50
  8   -268.361560932     -0.997487878     -0.000001414      0.000022339    2.50
  9   -268.361560937     -0.997487883     -0.000000005      0.000005798    2.41
               --- The Coupled-Cluster iterations have converged ---

----------------------
COUPLED CLUSTER ENERGY
----------------------

E(0)                                       ...   -267.363698176
E(CORR)(strong-pairs)                      ...     -0.997487883
E(CORR)(weak-pairs)                        ...     -0.000374877
E(CORR)(corrected)                         ...     -0.997862761
E(TOT)                                     ...   -268.361560937
Singles Norm <S|S>**1/2                    ...      0.045480879  
T1 diagnostic                              ...      0.007377973  

------------------
LARGEST AMPLITUDES
------------------
  23-> 25  23-> 25       0.037797
  22-> 25  22-> 25       0.037796
  24-> 25  24-> 25       0.037796
  21-> 25  21-> 25       0.037795
  22-> 34  22-> 34       0.037373
  21-> 34  21-> 34       0.037372
  23-> 34  23-> 34       0.037372
  24-> 34  24-> 34       0.037371
  18-> 25  18-> 25       0.037358
  13-> 25  13-> 25       0.037357
  17-> 25  17-> 25       0.037356
  14-> 25  14-> 25       0.037356
  15-> 25  15-> 25       0.034964
  20-> 25  20-> 25       0.034964
  19-> 25  19-> 25       0.034964
  16-> 25  16-> 25       0.034963


-------------------------------------------
DLPNO BASED TRIPLES CORRECTION
-------------------------------------------

Singles multiplier          ...  1.000000
TCutTNO                     ... 1.000e-09
TCutMP2Pairs                ... 1.000e-06
TCutDOStrong                ... 1.000e-02
TCutMKNStrong               ... 1.000e-02
TCutDOWeak                  ... 2.000e-02
TCutMKNWeak                 ... 1.000e-01

Fragment selection                          .... not used
Number of Triples that are to be computed   ...      1169

 . . . . . . . . .
10% done  
20% done  
30% done  
40% done  
50% done  
60% done  
70% done  
80% done  
90% done               (     24.046 sec)
Triples timings:
Total time for T0               ...    26.126 sec
Total time for Iterative (T)    ...     0.000 sec
Total time of overall (T)       ...    26.493 sec

Triples List generation         ...     0.000 sec
TNO generation                  ...     2.077 sec
Pair density generation         ...     0.002 sec
Look up tables                  ...     0.000 sec
Generating 3-index integrals    ...    12.262 sec
  Make 4-ind.int. from 3-ind.int...     4.404 sec
  Projecting amplitudes (D + S) ...     2.523 sec
  Downprojecting integrals      ...     0.001 sec
  Energy contr. (sum over a,b,c)...     1.472 sec
Fitting ET(->0)                 ...     0.000 sec

Everything after 3-index        ...    11.784 sec

Timing details:
 TNO integrals                  ...    16.050 sec
   Reading 3-index integrals    ...     0.029 sec
   Sorting integrals            ...     3.147 sec
       Sorting integrals 1      ...     0.001 sec
       Sorting integrals 2      ...     1.078 sec
       Sorting integrals 3      ...     0.153 sec
       Sorting integrals 4      ...     0.020 sec
       Sorting integrals 5      ...     0.049 sec
       Sorting integrals 6      ...     1.845 sec
   Calculating local VM**-1/2   ...     0.144 sec
   Orthogonal. integrals        ...     0.273 sec
   Multipl. 3-index integrals   ...    12.458 sec
   All concerning IRIab (w/TNO) ...     1.949 sec

 Calculate W0/W1                ...     3.378 sec
 W 3-ext contribution           ...     1.902 sec
 W 3-int contribution           ...     0.637 sec
 Sorting W                      ...     0.758 sec

 V exchange contribution        ...     0.616 sec

 Timings for Triples without generation
     of 3-index integrals       ...    11.781 sec
       0 weak pairs             ...    10.743 sec
       1 weak pair              ...     1.039 sec
       2 weak pairs             ...     0.000 sec
       3 weak pairs             ...     0.000 sec
  Extra time for extrapolation  ...     0.000 sec

Number of Triples   (0, 1, 2, 3 weak pairs; overall):    984     185       0       0  (  1169)
Number of Atoms     (0, 1, 2, 3 weak pairs; overall):   16.4    16.5     0.0     0.0  (    18)
Number of PAOs      (0, 1, 2, 3 weak pairs; overall):  132.9   136.6     0.0     0.0  (   144)
Number of AuxFcns   (0, 1, 2, 3 weak pairs; overall):  218.6   217.0     0.0     0.0  (   504)
Number of TNOs      (0, 1, 2, 3 weak pairs         ):   60.3    48.7     0.0     0.0
Aver. Number of NTNO, Atoms, PAOs, AuxFcns / Triples:   1169    58.5    16.4   133.5   218.3

Triples Correction (T)                     ...     -0.027476792
Final correlation energy                   ...     -1.025339553
E(CCSD)                                    ...   -268.361560937
E(CCSD(T))                                 ...   -268.389037729


Maximum memory used throughout the entire calculation: 3077.6 MB


------------------------------------------------------------------------------- 
                                     TIMINGS                                   
------------------------------------------------------------------------------- 


Total execution time                   ...       91.823 sec

Localization of occupied MO's          ...        0.419 sec (  0.5%)
Fock Matrix Formation                  ...        1.100 sec (  1.2%)
Global overlap, Fock, MKN matrices     ...        0.128 sec (  0.1%)
Differential overlap integrals         ...        0.108 sec (  0.1%)
Organizing maps                        ...        0.021 sec (  0.0%)
RI 3-index integral generations        ...        1.559 sec (  1.7%)
RI-PNO integral transformation         ...       22.648 sec ( 24.7%)
Initial Guess                          ...        3.570 sec (  3.9%)
DIIS Solver                            ...        0.433 sec (  0.5%)
State Vector Update                    ...        0.011 sec (  0.0%)
Sigma-vector construction              ...       35.374 sec ( 38.5%)
  <D|H|D>(0-ext)                       ...        1.625 sec (  4.6% of sigma)
  <D|H|D>(2-ext Fock)                  ...        0.012 sec (  0.0% of sigma)
  <D|H|D>(2-ext)                       ...        3.184 sec (  9.0% of sigma)
  <D|H|D>(4-ext)                       ...        1.848 sec (  5.2% of sigma)
  <D|H|D>(4-ext-corr)                  ...        9.894 sec ( 28.0% of sigma)
  CCSD doubles correction              ...        0.145 sec (  0.4% of sigma)
  <S|H|S>                              ...        0.229 sec (  0.6% of sigma)
  <S|H|D>(1-ext)                       ...        0.224 sec (  0.6% of sigma)
  <D|H|S>(1-ext)                       ...        0.009 sec (  0.0% of sigma)
  <S|H|D>(3-ext)                       ...        0.144 sec (  0.4% of sigma)
  Fock-dressing                        ...        4.163 sec ( 11.8% of sigma)
  Singles amplitudes                   ...        0.170 sec (  0.5% of sigma)
  (ik|jl)-dressing                     ...        6.510 sec ( 18.4% of sigma)
  (ij|ab),(ia|jb)-dressing             ...        6.292 sec ( 17.8% of sigma)
  Pair energies                        ...        0.004 sec (  0.0% of sigma)
Total Time for computing (T)           ...       26.546 sec ( 28.9% of ALL)


-------------------------   --------------------
FINAL SINGLE POINT ENERGY      -268.389037728937
-------------------------   --------------------


                            ***************************************
                            *     ORCA property calculations      *
                            ***************************************

                                    ---------------------
                                    Active property flags
                                    ---------------------
   (+) Dipole Moment


------------------------------------------------------------------------------
                       ORCA ELECTRIC PROPERTIES CALCULATION
------------------------------------------------------------------------------

Dipole Moment Calculation                       ... on
Quadrupole Moment Calculation                   ... off
Polarizability Calculation                      ... off
GBWName                                         ... butanediamine_tTTTt.gbw
Electron density file                           ... butanediamine_tTTTt.scfp.tmp
The origin for moment calculation is the CENTER OF MASS  = ( 0.000002, -0.000001 -0.000000)

-------------
DIPOLE MOMENT
-------------
                                X             Y             Z
Electronic contribution:      0.00008       0.00000      -0.00003
Nuclear contribution   :     -0.00003       0.00001       0.00011
                        -----------------------------------------
Total Dipole Moment    :      0.00005       0.00001       0.00008
                        -----------------------------------------
Magnitude (a.u.)       :      0.00010
Magnitude (Debye)      :      0.00025



--------------------
Rotational spectrum 
--------------------
 
Rotational constants in cm-1:     0.526341     0.037117     0.035994 
Rotational constants in MHz : 15779.317261  1112.735560  1079.064728 

 Dipole components along the rotational axes: 
x,y,z [a.u.] :     0.000052    -0.000015     0.000084 
x,y,z [Debye]:     0.000131    -0.000037     0.000213 

 

Timings for individual modules:

Sum of individual times         ...      102.928 sec (=   1.715 min)
GTO integral calculation        ...        2.068 sec (=   0.034 min)   2.0 %
SCF iterations                  ...        8.884 sec (=   0.148 min)   8.6 %
MDCI module                     ...       91.976 sec (=   1.533 min)  89.4 %
                             ****ORCA TERMINATED NORMALLY****
TOTAL RUN TIME: 0 days 0 hours 1 minutes 43 seconds 151 msec
butanediamine_tTTTt.gbw -> /home1/pantazis/klk/VDZ/Nitrogen_compounds/butanediamine_tTTTt.gbw
butanediamine_tTTTt.ges -> /home1/pantazis/klk/VDZ/Nitrogen_compounds/butanediamine_tTTTt.ges
butanediamine_tTTTt.job -> /home1/pantazis/klk/VDZ/Nitrogen_compounds/butanediamine_tTTTt.job
butanediamine_tTTTt.loc -> /home1/pantazis/klk/VDZ/Nitrogen_compounds/butanediamine_tTTTt.loc
butanediamine_tTTTt.nodes -> /home1/pantazis/klk/VDZ/Nitrogen_compounds/butanediamine_tTTTt.nodes
butanediamine_tTTTt.prop -> /home1/pantazis/klk/VDZ/Nitrogen_compounds/butanediamine_tTTTt.prop
butanediamine_tTTTt_property.txt -> /home1/pantazis/klk/VDZ/Nitrogen_compounds/butanediamine_tTTTt_property.txt
butanediamine_tTTTt.xyz -> /home1/pantazis/klk/VDZ/Nitrogen_compounds/butanediamine_tTTTt.xyz
cp: cannot stat butanediamine_tTTTt.asa.inp: No such file or directory
