! Job execution by suborca V 6.07 on ZEUS !
Job started from zeus1, running /scratch/pantazis/C_Et_glycoside_g__HSQGZJ/orca/orca copied from /opt/orca on zeussn122 in /scratch/pantazis/C_Et_glycoside_g__HSQGZJ
Job execution start: Sat Jun 29 11:46:21 CEST 2019
Shared library path: /scratch/pantazis/C_Et_glycoside_g__HSQGZJ/orca:/opt/openmpi_1.10.2/lib:/opt/intel/mkl/lib/intel64:/opt/intel/lib/intel64:
PBS Job ID is: 158902.icqc
izeussn122
izeussn122
izeussn122
izeussn122

                                 *****************
                                 * O   R   C   A *
                                 *****************

           --- An Ab Initio, DFT and Semiempirical electronic structure package ---

                  #######################################################
                  #                        -***-                        #
                  #          Department of theory and spectroscopy      #
                  #               Directorship: Frank Neese             #
                  #        Max Planck Institute fuer Kohlenforschung    #
                  #                Kaiser Wilhelm Platz 1               #
                  #                 D-45470 Muelheim/Ruhr               #
                  #                      Germany                        #
                  #                                                     #
                  #                  All rights reserved                #
                  #                        -***-                        #
                  #######################################################


                         Program Version 4.1.x  -  STABLE  -
                                (SVN: $Rev: 14094$)
                ($Date: 2019-06-14 15:01:15 +0200 (Fri, 14 Jun 2019) $)

                         (BUILD: $Sun Jun 23 06:18:31 CEST 2019$)


 With contributions from (in alphabetic order):
   Daniel Aravena         : Magnetic Properties
   Michael Atanasov       : Ab Initio Ligand Field Theory
   Alexander A. Auer      : GIAO ZORA
   Ute Becker             : Parallelization
   Giovanni Bistoni       : ED, Open-shell LED
   Martin Brehm           : Molecular dynamics
   Dmytro Bykov           : SCF Hessian
   Vijay G. Chilkuri      : MRCI spin determinant printing
   Dipayan Datta          : RHF DLPNO-CCSD density
   Achintya Kumar Dutta   : EOM-CC, STEOM-CC
   Dmitry Ganyushin       : Spin-Orbit,Spin-Spin,Magnetic field MRCI
   Miquel Garcia          : C-PCM Hessian
   Yang Guo               : DLPNO-NEVPT2, CIM, IAO-localization
   Andreas Hansen         : Spin unrestricted coupled pair/coupled cluster methods
   Benjamin Helmich-Paris : CASSCF linear response (MC-RPA)
   Lee Huntington         : MR-EOM, pCC
   Robert Izsak           : Overlap fitted RIJCOSX, COSX-SCS-MP3, EOM
   Christian Kollmar      : KDIIS, OOCD, Brueckner-CCSD(T), CCSD density
   Simone Kossmann        : Meta GGA functionals, TD-DFT gradient, OOMP2, MP2 Hessian
   Martin Krupicka        : AUTO-CI
   Lucas Lang             : DCDCAS
   Dagmar Lenk            : GEPOL surface, SMD
   Dimitrios Liakos       : Extrapolation schemes; parallel MDCI
   Dimitrios Manganas     : ROCIS; embedding schemes
   Dimitrios Pantazis     : SARC Basis sets
   Taras Petrenko         : DFT Hessian,TD-DFT gradient, ASA, ECA, R-Raman, ABS, FL, XAS/XES, NRVS
   Peter Pinski           : DLPNO-MP2, DLPNO-MP2 Gradient
   Christoph Reimann      : Effective Core Potentials
   Marius Retegan         : Local ZFS, SOC
   Christoph Riplinger    : Optimizer, TS searches, QM/MM, DLPNO-CCSD(T), (RO)-DLPNO pert. Triples
   Tobias Risthaus        : Range-separated hybrids, TD-DFT gradient, RPA, STAB
   Michael Roemelt        : Restricted open shell CIS
   Masaaki Saitow         : Open-shell DLPNO
   Barbara Sandhoefer     : DKH picture change effects
   Avijit Sen             : IP-ROCIS
   Kantharuban Sivalingam : CASSCF convergence, NEVPT2, FIC-MRCI
   Bernardo de Souza      : ESD, SOC TD-DFT
   Georgi Stoychev        : AutoAux, RI-MP2 NMR
   Willem Van den Heuvel  : Paramagnetic NMR
   Boris Wezisla          : Elementary symmetry handling
   Frank Wennmohs         : Technical directorship


 We gratefully acknowledge several colleagues who have allowed us to
 interface, adapt or use parts of their codes:
   Stefan Grimme, W. Hujo, H. Kruse,             : VdW corrections, initial TS optimization,
                  C. Bannwarth                     DFT functionals, gCP, sTDA/sTD-DF
   Ed Valeev                                     : LibInt (2-el integral package), F12 methods
   Garnet Chan, S. Sharma, J. Yang, R. Olivares  : DMRG
   Ulf Ekstrom                                   : XCFun DFT Library
   Mihaly Kallay                                 : mrcc  (arbitrary order and MRCC methods)
   Andreas Klamt, Michael Diedenhofen            : otool_cosmo (COSMO solvation model)
   Jiri Pittner, Ondrej Demel                    : Mk-CCSD
   Frank Weinhold                                : gennbo (NPA and NBO analysis)
   Christopher J. Cramer and Donald G. Truhlar   : smd solvation model
   Lars Goerigk                                  : TD-DFT with DH, B97 family of functionals
   V. Asgeirsson, H. Jonsson                     : NEB implementation
   FAccTs GmbH                                   : IRC, NEB, NEB-TS, Multilevel


 Your calculation uses the libint2 library for the computation of 2-el integrals
 For citations please refer to: http://libint.valeyev.net

 This ORCA versions uses:
   CBLAS   interface :  Fast vector & matrix operations
   LAPACKE interface :  Fast linear algebra routines
   SCALAPACK package :  Parallel linear algebra routines




***************************************
The coordinates will be read from file: C_Et_glycoside_g.xyz
***************************************


----- Orbital basis set information -----
Your calculation utilizes the basis: cc-pVDZ 
       H, B-Ne : Obtained from the ccRepo (grant-hill.group.shef.ac.uk/ccrepo) Feb. 2017
                 T. H. Dunning, Jr., J. Chem. Phys. 90, 1007 (1989)
            He : Obtained from the ccRepo (grant-hill.group.shef.ac.uk/ccrepo) Feb. 2017
                 D. E. Woon, T. H. Dunning, Jr., J. Chem. Phys. 100, 2975 (1994)
  Li-Be, Na-Mg : Obtained from the ccRepo (grant-hill.group.shef.ac.uk/ccrepo) Feb. 2017
                 B. P. Prascher, D. E. Woon, K. A. Peterson, T. H. Dunning, Jr., A. K. Wilson, Theor. Chem. Acc. 128, 69 (2011)
         Al-Ar : Obtained from the ccRepo (grant-hill.group.shef.ac.uk/ccrepo) Feb. 2017
                 D. E. Woon, T. H. Dunning, Jr., J. Chem. Phys. 98, 1358 (1993)
            Ca : Obtained from the Peterson Research Group Website (tyr0.chem.wsu.edu/~kipeters) Feb. 2017
                 J. Koput, K. A. Peterson, J. Phys. Chem. 106, 9595 (2002)
         Sc-Zn : Obtained from the ccRepo (grant-hill.group.shef.ac.uk/ccrepo) Feb. 2017
                 N. B. Balabanov, K. A. Peterson, J. Chem. Phys. 123, 064107 (2005)
                 N. B. Balabanov, K. A. Peterson, J. Chem. Phys. 125, 074110 (2006)
         Ga-Kr : Obtained from the ccRepo (grant-hill.group.shef.ac.uk/ccrepo) Feb. 2017
                 A. K. Wilson, D. E. Woon, K. A. Peterson, T. H. Dunning, Jr., J. Chem. Phys. 110, 7667 (1999)

----- AuxC basis set information -----
Your calculation utilizes the auxiliary basis: cc-pVDZ/C 
  H-He, B, Ne, Al-Ar, Ga-Br : Obtained from the EMSL Basis Set Exchange (bse.pnl.gov) Feb. 2017
                              F. Weigend, A. Kohn, C. Hattig, J. Chem. Phys. 116, 3175 (2002)
               Li-Be, Na-Mg : Obtained from the EMSL Basis Set Exchange (bse.pnl.gov) Feb. 2017
                              C. Haettig, Phys. Chem. Chem. Phys. 7, 59 (2005)
                        C-F : Obtained from the EMSL Basis Set Exchange (bse.pnl.gov) Feb. 2017
                              C. Haettig, Phys. Chem. Chem. Phys. 7, 59 (2005)
                              F. Weigend, A. Kohn, C. Hattig, J. Chem. Phys. 116, 3175 (2002)
                         Kr : Obtained from the TURBOMOLE 7.0 basis set library
                              F. Weigend, A. Kohn, C. Hattig, J. Chem. Phys. 116, 3175 (2002)
                              S function revised in Sep. 2009

----- AuxJK basis set information -----
Your calculation utilizes the auxiliary basis: cc-pVTZ/JK 
  H, B-F, Al-Cl, Ga-Br : Obtained from the TURBOMOLE 7.0 basis set library

================================================================================
                                        WARNINGS
                       Please study these warnings very carefully!
================================================================================


WARNING: MDCI localization with Augmented Hessian Foster-Boys
  ===> : Switching off randomization!

WARNING: Post HF methods need fully converged wavefunctions
  ===> : Setting SCFConvForced true
         You can overwrite this default with %scf ConvForced false 


INFO   : the flag for use of LIBINT has been found!

================================================================================
                                       INPUT FILE
================================================================================
NAME = C_Et_glycoside_g.inp
|  1> ! RHF DLPNO-CCSD(T) cc-pVDZ RIJK cc-pVTZ/JK cc-pVDZ/C
|  2> ! KDIIS SOSCF TightSCF TightPNO
|  3> 
|  4> %pal nprocs 4 end
|  5> 
|  6> %maxcore 8000
|  7> 
|  8> %scf maxiter 300
|  9>      shift shift 0.2 erroff 0.1 end
| 10> end
| 11> 
| 12> * xyzfile 0 1 C_Et_glycoside_g.xyz 
| 13> 
| 14> 
| 15>                          ****END OF INPUT****
================================================================================

                       ****************************
                       * Single Point Calculation *
                       ****************************

---------------------------------
CARTESIAN COORDINATES (ANGSTROEM)
---------------------------------
  C      1.274140   -0.627260   -0.580880
  O     -0.046320   -1.196800   -0.644330
  C     -0.988840   -0.728720    0.316230
  C     -1.156010    0.800340    0.222240
  C      0.202920    1.495990    0.274130
  C      1.155640    0.898180   -0.757250
  C     -2.294000   -1.479760    0.083210
  O     -2.857520   -1.071840   -1.159760
  O     -2.020590    1.318470    1.243100
  O      0.094090    2.890910   -0.008020
  O      2.452160    1.479390   -0.669270
  C      2.073630   -1.081750    0.648040
  C      2.275380   -2.600630    0.691430
  H     -0.653580   -0.986110    1.338550
  H     -1.654880    1.042020   -0.719600
  H      0.639310    1.364930    1.279650
  H      0.726760    1.086150   -1.752530
  H      1.769770   -1.027410   -1.471890
  H      1.589900   -0.746160    1.574070
  H      3.040500   -0.569310    0.611710
  H     -2.071520   -2.555440    0.082930
  H     -1.657880    1.085030    2.110450
  H     -0.648010    3.242680    0.504720
  H      2.343010    2.439030   -0.734110
  H      2.856280   -2.892910    1.572480
  H      1.318460   -3.130910    0.722420
  H      2.816640   -2.949770   -0.195650
  H     -3.670880   -1.566360   -1.314960
  H     -2.975450   -1.254830    0.915280

----------------------------
CARTESIAN COORDINATES (A.U.)
----------------------------
  NO LB      ZA    FRAG     MASS         X           Y           Z
   0 C     6.0000    0    12.011    2.407776   -1.185350   -1.097704
   1 O     8.0000    0    15.999   -0.087532   -2.261624   -1.217607
   2 C     6.0000    0    12.011   -1.868637   -1.377081    0.597588
   3 C     6.0000    0    12.011   -2.184542    1.512423    0.419973
   4 C     6.0000    0    12.011    0.383463    2.827011    0.518031
   5 C     6.0000    0    12.011    2.183843    1.697314   -1.430995
   6 C     6.0000    0    12.011   -4.335032   -2.796341    0.157244
   7 O     8.0000    0    15.999   -5.399930   -2.025484   -2.191629
   8 O     8.0000    0    15.999   -3.818362    2.491547    2.349119
   9 O     8.0000    0    15.999    0.177804    5.463028   -0.015156
  10 O     8.0000    0    15.999    4.633911    2.795642   -1.264737
  11 C     6.0000    0    12.011    3.918593   -2.044211    1.224618
  12 C     6.0000    0    12.011    4.299845   -4.914478    1.306613
  13 H     1.0000    0     1.008   -1.235087   -1.863478    2.529493
  14 H     1.0000    0     1.008   -3.127270    1.969132   -1.359847
  15 H     1.0000    0     1.008    1.208121    2.579344    2.418188
  16 H     1.0000    0     1.008    1.373377    2.052526   -3.311802
  17 H     1.0000    0     1.008    3.344381   -1.941524   -2.781469
  18 H     1.0000    0     1.008    3.004476   -1.410038    2.974561
  19 H     1.0000    0     1.008    5.745712   -1.075840    1.155964
  20 H     1.0000    0     1.008   -3.914605   -4.829082    0.156715
  21 H     1.0000    0     1.008   -3.132939    2.050410    3.988173
  22 H     1.0000    0     1.008   -1.224561    6.127777    0.953783
  23 H     1.0000    0     1.008    4.427647    4.609099   -1.387267
  24 H     1.0000    0     1.008    5.397587   -5.466808    2.971557
  25 H     1.0000    0     1.008    2.491528   -5.916562    1.365176
  26 H     1.0000    0     1.008    5.322678   -5.574257   -0.369725
  27 H     1.0000    0     1.008   -6.936958   -2.959991   -2.484914
  28 H     1.0000    0     1.008   -5.622786   -2.371285    1.729629

--------------------------------
INTERNAL COORDINATES (ANGSTROEM)
--------------------------------
 C      0   0   0     0.000000000000     0.00000000     0.00000000
 O      1   0   0     1.439450008059     0.00000000     0.00000000
 C      2   1   0     1.424822217120   116.55895428     0.00000000
 C      3   2   1     1.541040042504   110.89184198    57.43250931
 C      4   3   2     1.527518327059   110.68889085   308.32291094
 C      5   4   3     1.526039612494   110.73485048    51.86483412
 C      3   2   1     1.523746050889   107.55287106   181.14262678
 O      7   3   2     1.424404415080   109.33910270   291.68222030
 O      4   3   2     1.434612286613   112.35416464   184.47916578
 O      5   4   3     1.427324209071   111.74801899   171.38602385
 O      6   5   4     1.423555286914   111.52377537   183.50398717
 C      1   2   3     1.534923381345   113.32493610    70.44173237
 C     12   1   2     1.532834697220   112.62036264    60.11320021
 H      3   2   1     1.106249095864   110.24917699   297.03432420
 H      4   3   2     1.092860048176   108.75407592    68.72170975
 H      5   4   3     1.103939955840   109.18071500   292.09180972
 H      6   5   4     1.099933204199   107.52834066    62.88805694
 H      1   2   3     1.095293540335   103.57359519   187.09084586
 H     12   1   2     1.097336284782   110.82332339   296.79619764
 H     12   1   2     1.094875435563   107.14666039   181.69008893
 H      7   3   2     1.098446580950   108.01272911    52.72657220
 H      9   4   3     0.968684055923   108.93291943    58.44965322
 H     10   5   4     0.968171911646   107.98932191    46.07178886
 H     11   6   5     0.968001486414   107.33261784   306.06510808
 H     13  12   1     1.095044068017   110.92087108   179.44761380
 H     13  12   1     1.094464775541   111.45826901   300.03335740
 H     13  12   1     1.096253644737   110.95682895    59.77276176
 H      8   7   3     0.964464390219   109.10005152   178.49491032
 H      7   3   2     1.098775724295   108.33162879   170.70689410

---------------------------
INTERNAL COORDINATES (A.U.)
---------------------------
 C      0   0   0     0.000000000000     0.00000000     0.00000000
 O      1   0   0     2.720166298702     0.00000000     0.00000000
 C      2   1   0     2.692523779884   116.55895428     0.00000000
 C      3   2   1     2.912143641738   110.89184198    57.43250931
 C      4   3   2     2.886591302686   110.68889085   308.32291094
 C      5   4   3     2.883796937128   110.73485048    51.86483412
 C      3   2   1     2.879462733824   107.55287106   181.14262678
 O      7   3   2     2.691734248450   109.33910270   291.68222030
 O      4   3   2     2.711024330056   112.35416464   184.47916578
 O      5   4   3     2.697251859460   111.74801899   171.38602385
 O      6   5   4     2.690129628763   111.52377537   183.50398717
 C      1   2   3     2.900584827295   113.32493610    70.44173237
 C     12   1   2     2.896637786317   112.62036264    60.11320021
 H      3   2   1     2.090507827081   110.24917699   297.03432420
 H      4   3   2     2.065206193757   108.75407592    68.72170975
 H      5   4   3     2.086144184831   109.18071500   292.09180972
 H      6   5   4     2.078572521543   107.52834066    62.88805694
 H      1   2   3     2.069804827487   103.57359519   187.09084586
 H     12   1   2     2.073665055053   110.82332339   296.79619764
 H     12   1   2     2.069014723972   107.14666039   181.69008893
 H      7   3   2     2.075763210737   108.01272911    52.72657220
 H      9   4   3     1.830547575991   108.93291943    58.44965322
 H     10   5   4     1.829579763566   107.98932191    46.07178886
 H     11   6   5     1.829257706551   107.33261784   306.06510808
 H     13  12   1     2.069333393128   110.92087108   179.44761380
 H     13  12   1     2.068238688996   111.45826901   300.03335740
 H     13  12   1     2.071619161867   110.95682895    59.77276176
 H      8   7   3     1.822573563433   109.10005152   178.49491032
 H      7   3   2     2.076385201519   108.33162879   170.70689410

---------------------
BASIS SET INFORMATION
---------------------
There are 3 groups of distinct atoms

 Group   1 Type C   : 17s4p1d contracted to 3s2p1d pattern {881/31/1}
 Group   2 Type O   : 17s4p1d contracted to 3s2p1d pattern {881/31/1}
 Group   3 Type H   : 4s1p contracted to 2s1p pattern {31/1}

Atom   0C    basis set group =>   1
Atom   1O    basis set group =>   2
Atom   2C    basis set group =>   1
Atom   3C    basis set group =>   1
Atom   4C    basis set group =>   1
Atom   5C    basis set group =>   1
Atom   6C    basis set group =>   1
Atom   7O    basis set group =>   2
Atom   8O    basis set group =>   2
Atom   9O    basis set group =>   2
Atom  10O    basis set group =>   2
Atom  11C    basis set group =>   1
Atom  12C    basis set group =>   1
Atom  13H    basis set group =>   3
Atom  14H    basis set group =>   3
Atom  15H    basis set group =>   3
Atom  16H    basis set group =>   3
Atom  17H    basis set group =>   3
Atom  18H    basis set group =>   3
Atom  19H    basis set group =>   3
Atom  20H    basis set group =>   3
Atom  21H    basis set group =>   3
Atom  22H    basis set group =>   3
Atom  23H    basis set group =>   3
Atom  24H    basis set group =>   3
Atom  25H    basis set group =>   3
Atom  26H    basis set group =>   3
Atom  27H    basis set group =>   3
Atom  28H    basis set group =>   3
-------------------------------
AUXILIARY BASIS SET INFORMATION
-------------------------------
There are 3 groups of distinct atoms

 Group   1 Type C   : 7s5p4d2f contracted to 7s5p4d2f pattern {1111111/11111/1111/11}
 Group   2 Type O   : 7s5p4d2f contracted to 7s5p4d2f pattern {1111111/11111/1111/11}
 Group   3 Type H   : 3s2p1d contracted to 3s2p1d pattern {111/11/1}

Atom   0C    basis set group =>   1
Atom   1O    basis set group =>   2
Atom   2C    basis set group =>   1
Atom   3C    basis set group =>   1
Atom   4C    basis set group =>   1
Atom   5C    basis set group =>   1
Atom   6C    basis set group =>   1
Atom   7O    basis set group =>   2
Atom   8O    basis set group =>   2
Atom   9O    basis set group =>   2
Atom  10O    basis set group =>   2
Atom  11C    basis set group =>   1
Atom  12C    basis set group =>   1
Atom  13H    basis set group =>   3
Atom  14H    basis set group =>   3
Atom  15H    basis set group =>   3
Atom  16H    basis set group =>   3
Atom  17H    basis set group =>   3
Atom  18H    basis set group =>   3
Atom  19H    basis set group =>   3
Atom  20H    basis set group =>   3
Atom  21H    basis set group =>   3
Atom  22H    basis set group =>   3
Atom  23H    basis set group =>   3
Atom  24H    basis set group =>   3
Atom  25H    basis set group =>   3
Atom  26H    basis set group =>   3
Atom  27H    basis set group =>   3
Atom  28H    basis set group =>   3
-------------------------------
AUXILIARY BASIS SET INFORMATION
-------------------------------
There are 3 groups of distinct atoms

 Group   1 Type C   : 10s7p5d2f1g contracted to 10s7p5d2f1g pattern {1111111111/1111111/11111/11/1}
 Group   2 Type O   : 10s7p5d2f1g contracted to 10s7p5d2f1g pattern {1111111111/1111111/11111/11/1}
 Group   3 Type H   : 4s3p2d1f contracted to 4s3p2d1f pattern {1111/111/11/1}

Atom   0C    basis set group =>   1
Atom   1O    basis set group =>   2
Atom   2C    basis set group =>   1
Atom   3C    basis set group =>   1
Atom   4C    basis set group =>   1
Atom   5C    basis set group =>   1
Atom   6C    basis set group =>   1
Atom   7O    basis set group =>   2
Atom   8O    basis set group =>   2
Atom   9O    basis set group =>   2
Atom  10O    basis set group =>   2
Atom  11C    basis set group =>   1
Atom  12C    basis set group =>   1
Atom  13H    basis set group =>   3
Atom  14H    basis set group =>   3
Atom  15H    basis set group =>   3
Atom  16H    basis set group =>   3
Atom  17H    basis set group =>   3
Atom  18H    basis set group =>   3
Atom  19H    basis set group =>   3
Atom  20H    basis set group =>   3
Atom  21H    basis set group =>   3
Atom  22H    basis set group =>   3
Atom  23H    basis set group =>   3
Atom  24H    basis set group =>   3
Atom  25H    basis set group =>   3
Atom  26H    basis set group =>   3
Atom  27H    basis set group =>   3
Atom  28H    basis set group =>   3

Checking for AutoStart:
The File: C_Et_glycoside_g.gbw exists
Trying to determine its content:
     ... Fine, the file contains calculation information
     ... Fine, the calculation information was read
     ... Fine, the file contains a basis set
     ... Fine, the basis set was read
     ... Fine, the file contains a geometry
     ... Fine, the geometry was read
     ... Fine, the file contains a set of orbitals
     ... Fine, the orbitals can be read
     => possible old guess file was deleted
     => GBW file was renamed to GES file
     => GES file is set as startup file
     => Guess is set to MORead
     ... now leaving AutoStart



           ************************************************************
           *        Program running with 4 parallel MPI-processes     *
           *              working on a common directory               *
           ************************************************************
------------------------------------------------------------------------------
                           ORCA GTO INTEGRAL CALCULATION
                           -- RI-GTO INTEGRALS CHOSEN --
------------------------------------------------------------------------------

                         BASIS SET STATISTICS AND STARTUP INFO

Gaussian basis set:
 # of primitive gaussian shells          ...  366
 # of primitive gaussian functions       ...  554
 # of contracted shells                  ...  126
 # of contracted basis functions         ...  262
 Highest angular momentum                ...    2
 Maximum contraction depth               ...    8
Auxiliary gaussian basis set:
 # of primitive gaussian shells          ...  485
 # of primitive gaussian functions       ... 1507
 # of contracted shells                  ...  485
 # of contracted aux-basis functions     ... 1507
 Highest angular momentum                ...    4
 Maximum contraction depth               ...    1
Ratio of auxiliary to basis functions    ...  5.75
Integral package used                  ... LIBINT
 One Electron integrals                  ... done
 Ordering auxiliary basis shells         ... done
 Integral threshhold             Thresh  ...  2.500e-11
 Primitive cut-off               TCut    ...  2.500e-12
 Pre-screening matrix                    ... done
 Shell pair data                         ... 
 Ordering of the shell pairs             ... done (   0.001 sec) 7349 of 8001 pairs
 Determination of significant pairs      ... done (   0.000 sec)
 Creation of shell pair data             ... done (   0.003 sec)
 Storage of shell pair data              ... done (   0.004 sec)
 Shell pair data done in (   0.008 sec)
 Computing two index integrals           ... done
 Cholesky decomposition of the V-matrix  ... done


Timings:
 Total evaluation time                   ...  17.604 sec (  0.293 min)
 One electron matrix time                ...   2.771 sec (  0.046 min) = 15.7%
 Schwartz matrix evaluation time         ...   0.292 sec (  0.005 min) =  1.7%
 Two index repulsion integral time       ...  11.547 sec (  0.192 min) = 65.6%
 Cholesky decomposition of V             ...   2.959 sec (  0.049 min) = 16.8%
 Three index repulsion integral time     ...   0.000 sec (  0.000 min) =  0.0%



           ************************************************************
           *        Program running with 4 parallel MPI-processes     *
           *              working on a common directory               *
           ************************************************************
-------------------------------------------------------------------------------
                                 ORCA SCF
-------------------------------------------------------------------------------

------------
SCF SETTINGS
------------
Hamiltonian:
 Ab initio Hamiltonian  Method          .... Hartree-Fock(GTOs)
 RI-approximation to the Coulomb term is turned on
   Number of auxiliary basis functions  .... 1507
   RI-JK (J+K treated both via RI)      .... on


General Settings:
 Integral files         IntName         .... C_Et_glycoside_g
 Hartree-Fock type      HFTyp           .... RHF
 Total Charge           Charge          ....    0
 Multiplicity           Mult            ....    1
 Number of Electrons    NEL             ....  104
 Basis Dimension        Dim             ....  262
 Nuclear Repulsion      ENuc            ....    937.1035947415 Eh

Convergence Acceleration:
 DIIS                   CNVDIIS         .... off
 Newton-Raphson         CNVNR           .... off
 SOSCF                  CNVSOSCF        .... on
   Start iteration      SOSCFMaxIt      ....   150
   Startup grad/error   SOSCFStart      ....  0.003300
 Level Shifting         CNVShift        .... on
   Level shift para.    LevelShift      ....    0.2000
   Turn off err/grad.   ShiftErr        ....    0.1000
 Zerner damping         CNVZerner       .... off
 Static damping         CNVDamp         .... off
 Fernandez-Rico         CNVRico         .... off

SCF Procedure:
 Maximum # iterations   MaxIter         ....   300
 SCF integral mode      SCFMode         .... Direct
   Integral package                     .... LIBINT
 Reset frequency        DirectResetFreq ....    20
 Integral Threshold     Thresh          ....  2.500e-11 Eh
 Primitive CutOff       TCut            ....  2.500e-12 Eh

Convergence Tolerance:
 Convergence Check Mode ConvCheckMode   .... Total+1el-Energy
 Convergence forced     ConvForced      .... 1
 Energy Change          TolE            ....  1.000e-08 Eh
 1-El. energy change                    ....  1.000e-05 Eh
 Orbital Gradient       TolG            ....  1.000e-05
 Orbital Rotation angle TolX            ....  1.000e-05


Diagonalization of the overlap matrix:
Smallest eigenvalue                        ... 1.713e-03
Time for diagonalization                   ...    0.015 sec
Threshold for overlap eigenvalues          ... 1.000e-08
Number of eigenvalues below threshold      ... 0
Time for construction of square roots      ...    0.067 sec
Total time needed                          ...    0.082 sec

---------------------
INITIAL GUESS: MOREAD
---------------------
Guess MOs are being read from file: C_Et_glycoside_g.ges
Input Geometry matches current geometry (good)
Atom 0: N(Shells)= 6 and 10 - projection required
Input basis set needs projection
NBasis(read)= 614
NBasis(calc)= 262
Basis set overlap was calculated
Using GuessMode=FMatrix for the initial guess
C*T matrix was formed
Effective Fockian was calculated
Effective Fockian was diagonalized
Initial density was built
                      ------------------
                      INITIAL GUESS DONE (   0.1 sec)
                      ------------------
--------------
SCF ITERATIONS
--------------
ITER       Energy         Delta-E        Max-DP      RMS-DP      [F,P]   Gradient Norm
                             ****Turning on KDIIS(Cayley)****
                      *** Initiating the SOSCF procedure ***
                           *** Shutting down KDIIS ***
                      *** Re-Reading the Fockian *** 
                      *** Removing any level shift *** 
ITER      Energy       Delta-E        Grad      Rot      Max-DP    RMS-DP
  0   -686.59260178 -686.5926017803  0.002983  0.002983  0.004463  0.000087
  1   -686.59289365  -0.0002918650  0.002702  0.001368  0.037344  0.000768
  2   -686.59410137  -0.0012077291  0.000888  0.000587  0.005982  0.000151
  3   -686.59419437  -0.0000929983  0.000280  0.000183  0.003445  0.000070
  4   -686.59421009  -0.0000157144  0.000043  0.000064  0.000273  0.000008
  5   -686.59421080  -0.0000007094  0.000027  0.000028  0.000146  0.000004
  6   -686.59421088  -0.0000000850  0.000007  0.000004  0.000041  0.000001
                  ***Gradient check signals convergence***
              ***Rediagonalizing the Fockian in SOSCF/NRSCF***

               *****************************************************
               *                     SUCCESS                       *
               *           SCF CONVERGED AFTER   7 CYCLES          *
               *****************************************************


----------------
TOTAL SCF ENERGY
----------------

Total Energy       :         -686.59421089 Eh          -18683.17831 eV

Components:
Nuclear Repulsion  :          937.10359474 Eh           25499.88520 eV
Electronic Energy  :        -1623.69780563 Eh          -44183.06351 eV
One Electron Energy:        -2804.09736592 Eh          -76303.36851 eV
Two Electron Energy:         1180.39956029 Eh           32120.30500 eV

Virial components:
Potential Energy   :        -1372.51080337 Eh          -37347.91769 eV
Kinetic Energy     :          685.91659248 Eh           18664.73938 eV
Virial Ratio       :            2.00098790


---------------
SCF CONVERGENCE
---------------

  Last Energy change         ...   -6.1948e-09  Tolerance :   1.0000e-08
  Last MAX-Density change    ...    7.2187e-06  Tolerance :   1.0000e-07
  Last RMS-Density change    ...    2.0887e-07  Tolerance :   5.0000e-09
  Last Orbital Gradient      ...    1.2771e-06  Tolerance :   1.0000e-05
  Last Orbital Rotation      ...    1.4938e-06  Tolerance :   1.0000e-05

             **** THE GBW FILE WAS UPDATED (C_Et_glycoside_g.gbw) ****
             **** DENSITY FILE WAS UPDATED (C_Et_glycoside_g.scfp.tmp) ****
             **** ENERGY FILE WAS UPDATED (C_Et_glycoside_g.en.tmp) ****
----------------
ORBITAL ENERGIES
----------------

  NO   OCC          E(Eh)            E(eV) 
   0   2.0000     -20.574635      -559.8643 
   1   2.0000     -20.561876      -559.5171 
   2   2.0000     -20.559764      -559.4596 
   3   2.0000     -20.555318      -559.3386 
   4   2.0000     -20.554627      -559.3198 
   5   2.0000     -11.293177      -307.3030 
   6   2.0000     -11.286039      -307.1087 
   7   2.0000     -11.284891      -307.0775 
   8   2.0000     -11.284716      -307.0727 
   9   2.0000     -11.283740      -307.0462 
  10   2.0000     -11.281627      -306.9887 
  11   2.0000     -11.225720      -305.4674 
  12   2.0000     -11.220260      -305.3188 
  13   2.0000      -1.391984       -37.8778 
  14   2.0000      -1.373762       -37.3820 
  15   2.0000      -1.365029       -37.1443 
  16   2.0000      -1.351501       -36.7762 
  17   2.0000      -1.344351       -36.5816 
  18   2.0000      -1.070329       -29.1251 
  19   2.0000      -1.054092       -28.6833 
  20   2.0000      -1.010939       -27.5091 
  21   2.0000      -0.935493       -25.4561 
  22   2.0000      -0.882580       -24.0162 
  23   2.0000      -0.836834       -22.7714 
  24   2.0000      -0.825670       -22.4676 
  25   2.0000      -0.768251       -20.9052 
  26   2.0000      -0.719968       -19.5913 
  27   2.0000      -0.706700       -19.2303 
  28   2.0000      -0.698149       -18.9976 
  29   2.0000      -0.672035       -18.2870 
  30   2.0000      -0.654140       -17.8000 
  31   2.0000      -0.644253       -17.5310 
  32   2.0000      -0.634181       -17.2569 
  33   2.0000      -0.613140       -16.6844 
  34   2.0000      -0.609438       -16.5837 
  35   2.0000      -0.594587       -16.1795 
  36   2.0000      -0.583198       -15.8696 
  37   2.0000      -0.566243       -15.4083 
  38   2.0000      -0.545862       -14.8537 
  39   2.0000      -0.544161       -14.8074 
  40   2.0000      -0.536196       -14.5906 
  41   2.0000      -0.526727       -14.3330 
  42   2.0000      -0.511598       -13.9213 
  43   2.0000      -0.504684       -13.7331 
  44   2.0000      -0.497214       -13.5299 
  45   2.0000      -0.483728       -13.1629 
  46   2.0000      -0.460429       -12.5289 
  47   2.0000      -0.456492       -12.4218 
  48   2.0000      -0.445100       -12.1118 
  49   2.0000      -0.430519       -11.7150 
  50   2.0000      -0.425747       -11.5852 
  51   2.0000      -0.407335       -11.0841 
  52   0.0000       0.159679         4.3451 
  53   0.0000       0.181163         4.9297 
  54   0.0000       0.193422         5.2633 
  55   0.0000       0.201145         5.4734 
  56   0.0000       0.215091         5.8529 
  57   0.0000       0.220432         5.9983 
  58   0.0000       0.230877         6.2825 
  59   0.0000       0.242467         6.5979 
  60   0.0000       0.251060         6.8317 
  61   0.0000       0.262910         7.1542 
  62   0.0000       0.267063         7.2672 
  63   0.0000       0.281174         7.6511 
  64   0.0000       0.286463         7.7951 
  65   0.0000       0.295081         8.0296 
  66   0.0000       0.309020         8.4089 
  67   0.0000       0.319756         8.7010 
  68   0.0000       0.344185         9.3657 
  69   0.0000       0.361488         9.8366 
  70   0.0000       0.377174        10.2634 
  71   0.0000       0.382798        10.4165 
  72   0.0000       0.403900        10.9907 
  73   0.0000       0.411090        11.1863 
  74   0.0000       0.423745        11.5307 
  75   0.0000       0.430394        11.7116 
  76   0.0000       0.447006        12.1636 
  77   0.0000       0.468914        12.7598 
  78   0.0000       0.476332        12.9616 
  79   0.0000       0.513790        13.9809 
  80   0.0000       0.548689        14.9306 
  81   0.0000       0.608725        16.5642 
  82   0.0000       0.628536        17.1033 
  83   0.0000       0.632103        17.2004 
  84   0.0000       0.661943        18.0124 
  85   0.0000       0.680743        18.5240 
  86   0.0000       0.689112        18.7517 
  87   0.0000       0.718266        19.5450 
  88   0.0000       0.734327        19.9821 
  89   0.0000       0.746483        20.3128 
  90   0.0000       0.752647        20.4806 
  91   0.0000       0.771171        20.9846 
  92   0.0000       0.779362        21.2075 
  93   0.0000       0.788675        21.4609 
  94   0.0000       0.798803        21.7365 
  95   0.0000       0.807699        21.9786 
  96   0.0000       0.818959        22.2850 
  97   0.0000       0.832409        22.6510 
  98   0.0000       0.841092        22.8873 
  99   0.0000       0.854912        23.2633 
 100   0.0000       0.855950        23.2916 
 101   0.0000       0.863677        23.5018 
 102   0.0000       0.872415        23.7396 
 103   0.0000       0.883040        24.0287 
 104   0.0000       0.886143        24.1132 
 105   0.0000       0.895525        24.3685 
 106   0.0000       0.900778        24.5114 
 107   0.0000       0.904575        24.6147 
 108   0.0000       0.913968        24.8703 
 109   0.0000       0.920232        25.0408 
 110   0.0000       0.927003        25.2250 
 111   0.0000       0.929171        25.2840 
 112   0.0000       0.945320        25.7235 
 113   0.0000       0.956798        26.0358 
 114   0.0000       0.959665        26.1138 
 115   0.0000       0.972726        26.4692 
 116   0.0000       0.980498        26.6807 
 117   0.0000       1.003815        27.3152 
 118   0.0000       1.036868        28.2146 
 119   0.0000       1.054114        28.6839 
 120   0.0000       1.069773        29.1100 
 121   0.0000       1.099478        29.9183 
 122   0.0000       1.125402        30.6238 
 123   0.0000       1.177011        32.0281 
 124   0.0000       1.208769        32.8923 
 125   0.0000       1.218623        33.1604 
 126   0.0000       1.243364        33.8337 
 127   0.0000       1.262827        34.3633 
 128   0.0000       1.268690        34.5228 
 129   0.0000       1.294888        35.2357 
 130   0.0000       1.316526        35.8245 
 131   0.0000       1.323208        36.0063 
 132   0.0000       1.332559        36.2608 
 133   0.0000       1.347152        36.6579 
 134   0.0000       1.355826        36.8939 
 135   0.0000       1.384615        37.6773 
 136   0.0000       1.388667        37.7876 
 137   0.0000       1.401093        38.1257 
 138   0.0000       1.424230        38.7553 
 139   0.0000       1.441508        39.2254 
 140   0.0000       1.453540        39.5528 
 141   0.0000       1.463146        39.8142 
 142   0.0000       1.477568        40.2067 
 143   0.0000       1.496231        40.7145 
 144   0.0000       1.515141        41.2291 
 145   0.0000       1.528386        41.5895 
 146   0.0000       1.558775        42.4164 
 147   0.0000       1.574199        42.8361 
 148   0.0000       1.574284        42.8384 
 149   0.0000       1.593438        43.3597 
 150   0.0000       1.600290        43.5461 
 151   0.0000       1.623979        44.1907 
 152   0.0000       1.638901        44.5968 
 153   0.0000       1.654901        45.0321 
 154   0.0000       1.660666        45.1890 
 155   0.0000       1.696580        46.1663 
 156   0.0000       1.697978        46.2043 
 157   0.0000       1.705162        46.3998 
 158   0.0000       1.724501        46.9261 
 159   0.0000       1.751778        47.6683 
 160   0.0000       1.764934        48.0263 
 161   0.0000       1.793045        48.7912 
 162   0.0000       1.802415        49.0462 
 163   0.0000       1.805265        49.1237 
 164   0.0000       1.831041        49.8252 
 165   0.0000       1.863008        50.6950 
 166   0.0000       1.873412        50.9781 
 167   0.0000       1.885198        51.2988 
 168   0.0000       1.890308        51.4379 
 169   0.0000       1.899149        51.6785 
 170   0.0000       1.913352        52.0649 
 171   0.0000       1.924945        52.3804 
 172   0.0000       1.935793        52.6756 
 173   0.0000       1.943677        52.8902 
 174   0.0000       1.946187        52.9584 
 175   0.0000       1.963099        53.4186 
 176   0.0000       1.969523        53.5934 
 177   0.0000       1.974419        53.7267 
 178   0.0000       1.987474        54.0819 
 179   0.0000       2.000281        54.4304 
 180   0.0000       2.008806        54.6624 
 181   0.0000       2.036703        55.4215 
 182   0.0000       2.045881        55.6713 
 183   0.0000       2.057942        55.9994 
 184   0.0000       2.062079        56.1120 
 185   0.0000       2.070449        56.3398 
 186   0.0000       2.078399        56.5561 
 187   0.0000       2.085432        56.7475 
 188   0.0000       2.100392        57.1546 
 189   0.0000       2.106619        57.3240 
 190   0.0000       2.127324        57.8874 
 191   0.0000       2.140823        58.2548 
 192   0.0000       2.169660        59.0395 
 193   0.0000       2.184134        59.4333 
 194   0.0000       2.204315        59.9825 
 195   0.0000       2.226652        60.5903 
 196   0.0000       2.240037        60.9545 
 197   0.0000       2.252956        61.3061 
 198   0.0000       2.263092        61.5819 
 199   0.0000       2.283146        62.1276 
 200   0.0000       2.291310        62.3497 
 201   0.0000       2.297859        62.5279 
 202   0.0000       2.336397        63.5766 
 203   0.0000       2.364807        64.3497 
 204   0.0000       2.378684        64.7273 
 205   0.0000       2.406651        65.4883 
 206   0.0000       2.412996        65.6610 
 207   0.0000       2.427072        66.0440 
 208   0.0000       2.442392        66.4609 
 209   0.0000       2.456441        66.8432 
 210   0.0000       2.474912        67.3458 
 211   0.0000       2.483706        67.5851 
 212   0.0000       2.488422        67.7134 
 213   0.0000       2.522939        68.6527 
 214   0.0000       2.528265        68.7976 
 215   0.0000       2.545418        69.2643 
 216   0.0000       2.572662        70.0057 
 217   0.0000       2.584200        70.3196 
 218   0.0000       2.594900        70.6108 
 219   0.0000       2.605834        70.9084 
 220   0.0000       2.632922        71.6454 
 221   0.0000       2.667441        72.5848 
 222   0.0000       2.692254        73.2599 
 223   0.0000       2.721068        74.0440 
 224   0.0000       2.733537        74.3833 
 225   0.0000       2.764758        75.2329 
 226   0.0000       2.773372        75.4673 
 227   0.0000       2.801439        76.2310 
 228   0.0000       2.811343        76.5005 
 229   0.0000       2.851561        77.5949 
 230   0.0000       2.865608        77.9772 
 231   0.0000       2.904770        79.0428 
 232   0.0000       2.924141        79.5699 
 233   0.0000       2.952301        80.3362 
 234   0.0000       2.962830        80.6227 
 235   0.0000       2.986967        81.2795 
 236   0.0000       3.034822        82.5817 
 237   0.0000       3.275693        89.1361 
 238   0.0000       3.285976        89.4160 
 239   0.0000       3.293179        89.6120 
 240   0.0000       3.298231        89.7494 
 241   0.0000       3.336557        90.7923 
 242   0.0000       3.342808        90.9624 
 243   0.0000       3.356268        91.3287 
 244   0.0000       3.378121        91.9233 
 245   0.0000       3.401833        92.5686 
 246   0.0000       3.412868        92.8689 
 247   0.0000       3.441555        93.6495 
 248   0.0000       3.465537        94.3020 
 249   0.0000       3.474546        94.5472 
 250   0.0000       3.500902        95.2644 
 251   0.0000       3.538581        96.2897 
 252   0.0000       3.616694        98.4152 
 253   0.0000       3.648967        99.2934 
 254   0.0000       3.702654       100.7543 
 255   0.0000       3.730281       101.5061 
 256   0.0000       3.772830       102.6639 
 257   0.0000       3.810865       103.6989 
 258   0.0000       4.096369       111.4679 
 259   0.0000       4.129209       112.3615 
 260   0.0000       4.135478       112.5321 
 261   0.0000       4.148428       112.8845 

                    ********************************
                    * MULLIKEN POPULATION ANALYSIS *
                    ********************************

-----------------------
MULLIKEN ATOMIC CHARGES
-----------------------
   0 C :    0.149698
   1 O :   -0.510215
   2 C :    0.114284
   3 C :    0.194656
   4 C :    0.177020
   5 C :    0.227736
   6 C :    0.275088
   7 O :   -0.380622
   8 O :   -0.405509
   9 O :   -0.402941
  10 O :   -0.391209
  11 C :   -0.079434
  12 C :   -0.021027
  13 H :    0.002181
  14 H :    0.065840
  15 H :    0.003741
  16 H :    0.032336
  17 H :    0.036542
  18 H :    0.014139
  19 H :    0.056316
  20 H :    0.032858
  21 H :    0.162497
  22 H :    0.178088
  23 H :    0.182392
  24 H :    0.029112
  25 H :    0.035547
  26 H :    0.032009
  27 H :    0.167538
  28 H :    0.021340
Sum of atomic charges:   -0.0000000

--------------------------------
MULLIKEN REDUCED ORBITAL CHARGES
--------------------------------
  0 C s       :     3.080975  s :     3.080975
      pz      :     1.014961  p :     2.627967
      px      :     0.714829
      py      :     0.898177
      dz2     :     0.026226  d :     0.141360
      dxz     :     0.030958
      dyz     :     0.016907
      dx2y2   :     0.040023
      dxy     :     0.027246
  1 O s       :     3.800653  s :     3.800653
      pz      :     1.654523  p :     4.692650
      px      :     1.280192
      py      :     1.757934
      dz2     :     0.003080  d :     0.016912
      dxz     :     0.004309
      dyz     :     0.002517
      dx2y2   :     0.002396
      dxy     :     0.004610
  2 C s       :     3.070579  s :     3.070579
      pz      :     0.849029  p :     2.670697
      px      :     0.903187
      py      :     0.918480
      dz2     :     0.036555  d :     0.144441
      dxz     :     0.029782
      dyz     :     0.016496
      dx2y2   :     0.031739
      dxy     :     0.029869
  3 C s       :     3.051141  s :     3.051141
      pz      :     0.869026  p :     2.613562
      px      :     0.854066
      py      :     0.890470
      dz2     :     0.029578  d :     0.140641
      dxz     :     0.034834
      dyz     :     0.020175
      dx2y2   :     0.031320
      dxy     :     0.024733
  4 C s       :     3.052706  s :     3.052706
      pz      :     1.003052  p :     2.626344
      px      :     0.931889
      py      :     0.691403
      dz2     :     0.029747  d :     0.143930
      dxz     :     0.020132
      dyz     :     0.025737
      dx2y2   :     0.035568
      dxy     :     0.032747
  5 C s       :     3.026393  s :     3.026393
      pz      :     0.980408  p :     2.602172
      px      :     0.702816
      py      :     0.918949
      dz2     :     0.025780  d :     0.143699
      dxz     :     0.036833
      dyz     :     0.015302
      dx2y2   :     0.037597
      dxy     :     0.028186
  6 C s       :     2.964484  s :     2.964484
      pz      :     0.750782  p :     2.634285
      px      :     0.922884
      py      :     0.960619
      dz2     :     0.036063  d :     0.126143
      dxz     :     0.035003
      dyz     :     0.017532
      dx2y2   :     0.020118
      dxy     :     0.017427
  7 O s       :     3.727590  s :     3.727590
      pz      :     1.507462  p :     4.638793
      px      :     1.409932
      py      :     1.721400
      dz2     :     0.004890  d :     0.014239
      dxz     :     0.001599
      dyz     :     0.002842
      dx2y2   :     0.001087
      dxy     :     0.003821
  8 O s       :     3.749993  s :     3.749993
      pz      :     1.165856  p :     4.641205
      px      :     1.664872
      py      :     1.810476
      dz2     :     0.002116  d :     0.014311
      dxz     :     0.005650
      dyz     :     0.002385
      dx2y2   :     0.001715
      dxy     :     0.002445
  9 O s       :     3.730276  s :     3.730276
      pz      :     1.737057  p :     4.658720
      px      :     1.579246
      py      :     1.342417
      dz2     :     0.001420  d :     0.013946
      dxz     :     0.003098
      dyz     :     0.002785
      dx2y2   :     0.004934
      dxy     :     0.001709
 10 O s       :     3.733269  s :     3.733269
      pz      :     1.908346  p :     4.643748
      px      :     1.485859
      py      :     1.249542
      dz2     :     0.002333  d :     0.014192
      dxz     :     0.001767
      dyz     :     0.000434
      dx2y2   :     0.006710
      dxy     :     0.002948
 11 C s       :     3.082038  s :     3.082038
      pz      :     0.959024  p :     2.916073
      px      :     0.985283
      py      :     0.971765
      dz2     :     0.019041  d :     0.081324
      dxz     :     0.015044
      dyz     :     0.014372
      dx2y2   :     0.015559
      dxy     :     0.017308
 12 C s       :     3.026870  s :     3.026870
      pz      :     0.992287  p :     2.932383
      px      :     0.998050
      py      :     0.942047
      dz2     :     0.011657  d :     0.061774
      dxz     :     0.011758
      dyz     :     0.009723
      dx2y2   :     0.013396
      dxy     :     0.015241
 13 H s       :     0.971450  s :     0.971450
      pz      :     0.017840  p :     0.026369
      px      :     0.003987
      py      :     0.004543
 14 H s       :     0.906127  s :     0.906127
      pz      :     0.017096  p :     0.028033
      px      :     0.006872
      py      :     0.004064
 15 H s       :     0.969475  s :     0.969475
      pz      :     0.017866  p :     0.026784
      px      :     0.006992
      py      :     0.001926
 16 H s       :     0.940296  s :     0.940296
      pz      :     0.018645  p :     0.027368
      px      :     0.005236
      py      :     0.003488
 17 H s       :     0.936159  s :     0.936159
      pz      :     0.015775  p :     0.027300
      px      :     0.005740
      py      :     0.005785
 18 H s       :     0.956814  s :     0.956814
      pz      :     0.015674  p :     0.029046
      px      :     0.007865
      py      :     0.005508
 19 H s       :     0.913573  s :     0.913573
      pz      :     0.004520  p :     0.030112
      px      :     0.017633
      py      :     0.007959
 20 H s       :     0.938393  s :     0.938393
      pz      :     0.003101  p :     0.028749
      px      :     0.004788
      py      :     0.020859
 21 H s       :     0.757299  s :     0.757299
      pz      :     0.040073  p :     0.080204
      px      :     0.019613
      py      :     0.020518
 22 H s       :     0.740631  s :     0.740631
      pz      :     0.026284  p :     0.081281
      px      :     0.037197
      py      :     0.017800
 23 H s       :     0.736487  s :     0.736487
      pz      :     0.020204  p :     0.081121
      px      :     0.013388
      py      :     0.047530
 24 H s       :     0.940418  s :     0.940418
      pz      :     0.015207  p :     0.030470
      px      :     0.009715
      py      :     0.005548
 25 H s       :     0.933849  s :     0.933849
      pz      :     0.005325  p :     0.030604
      px      :     0.017343
      py      :     0.007936
 26 H s       :     0.937602  s :     0.937602
      pz      :     0.015297  p :     0.030388
      px      :     0.009183
      py      :     0.005909
 27 H s       :     0.750642  s :     0.750642
      pz      :     0.016345  p :     0.081821
      px      :     0.039700
      py      :     0.025776
 28 H s       :     0.950088  s :     0.950088
      pz      :     0.012782  p :     0.028572
      px      :     0.010252
      py      :     0.005538


                     *******************************
                     * LOEWDIN POPULATION ANALYSIS *
                     *******************************

----------------------
LOEWDIN ATOMIC CHARGES
----------------------
   0 C :    0.017731
   1 O :   -0.069127
   2 C :   -0.009540
   3 C :    0.002409
   4 C :   -0.013430
   5 C :    0.004096
   6 C :    0.026745
   7 O :   -0.073775
   8 O :   -0.069560
   9 O :   -0.074775
  10 O :   -0.067076
  11 C :   -0.044482
  12 C :   -0.049026
  13 H :    0.003856
  14 H :    0.030599
  15 H :    0.003626
  16 H :    0.017994
  17 H :    0.028161
  18 H :    0.009991
  19 H :    0.032109
  20 H :    0.014640
  21 H :    0.044286
  22 H :    0.052939
  23 H :    0.055521
  24 H :    0.021760
  25 H :    0.020602
  26 H :    0.022414
  27 H :    0.051111
  28 H :    0.010201

-------------------------------
LOEWDIN REDUCED ORBITAL CHARGES
-------------------------------
  0 C s       :     2.806723  s :     2.806723
      pz      :     1.046040  p :     2.844452
      px      :     0.821917
      py      :     0.976495
      dz2     :     0.059016  d :     0.331094
      dxz     :     0.076328
      dyz     :     0.040185
      dx2y2   :     0.090291
      dxy     :     0.065273
  1 O s       :     3.411748  s :     3.411748
      pz      :     1.636059  p :     4.628810
      px      :     1.284238
      py      :     1.708513
      dz2     :     0.004799  d :     0.028570
      dxz     :     0.007854
      dyz     :     0.003121
      dx2y2   :     0.005016
      dxy     :     0.007780
  2 C s       :     2.807493  s :     2.807493
      pz      :     0.934119  p :     2.863811
      px      :     0.932144
      py      :     0.997548
      dz2     :     0.091382  d :     0.338236
      dxz     :     0.067425
      dyz     :     0.039362
      dx2y2   :     0.072218
      dxy     :     0.067850
  3 C s       :     2.806115  s :     2.806115
      pz      :     0.921844  p :     2.863015
      px      :     0.950888
      py      :     0.990283
      dz2     :     0.064367  d :     0.328461
      dxz     :     0.079701
      dyz     :     0.045572
      dx2y2   :     0.077712
      dxy     :     0.061108
  4 C s       :     2.804555  s :     2.804555
      pz      :     1.032677  p :     2.870927
      px      :     1.022626
      py      :     0.815624
      dz2     :     0.069068  d :     0.337948
      dxz     :     0.050505
      dyz     :     0.060058
      dx2y2   :     0.081744
      dxy     :     0.076573
  5 C s       :     2.801073  s :     2.801073
      pz      :     1.031313  p :     2.858338
      px      :     0.846131
      py      :     0.980894
      dz2     :     0.060887  d :     0.336493
      dxz     :     0.090130
      dyz     :     0.035148
      dx2y2   :     0.089396
      dxy     :     0.060933
  6 C s       :     2.802289  s :     2.802289
      pz      :     0.857871  p :     2.870985
      px      :     0.989973
      py      :     1.023140
      dz2     :     0.087183  d :     0.299981
      dxz     :     0.078547
      dyz     :     0.040125
      dx2y2   :     0.050959
      dxy     :     0.043167
  7 O s       :     3.397976  s :     3.397976
      pz      :     1.501027  p :     4.650443
      px      :     1.442851
      py      :     1.706564
      dz2     :     0.008380  d :     0.025356
      dxz     :     0.003373
      dyz     :     0.003865
      dx2y2   :     0.002053
      dxy     :     0.007685
  8 O s       :     3.403727  s :     3.403727
      pz      :     1.233620  p :     4.640551
      px      :     1.649644
      py      :     1.757287
      dz2     :     0.006147  d :     0.025282
      dxz     :     0.010075
      dyz     :     0.004493
      dx2y2   :     0.001894
      dxy     :     0.002674
  9 O s       :     3.393672  s :     3.393672
      pz      :     1.720724  p :     4.656354
      px      :     1.584339
      py      :     1.351291
      dz2     :     0.001775  d :     0.024748
      dxz     :     0.005736
      dyz     :     0.004688
      dx2y2   :     0.008298
      dxy     :     0.004250
 10 O s       :     3.394002  s :     3.394002
      pz      :     1.840907  p :     4.647934
      px      :     1.492045
      py      :     1.314982
      dz2     :     0.003917  d :     0.025141
      dxz     :     0.002452
      dyz     :     0.000521
      dx2y2   :     0.013093
      dxy     :     0.005158
 11 C s       :     2.792699  s :     2.792699
      pz      :     1.012100  p :     3.051147
      px      :     1.033271
      py      :     1.005777
      dz2     :     0.047256  d :     0.200635
      dxz     :     0.038243
      dyz     :     0.034617
      dx2y2   :     0.037847
      dxy     :     0.042672
 12 C s       :     2.795066  s :     2.795066
      pz      :     1.044366  p :     3.092309
      px      :     1.046647
      py      :     1.001295
      dz2     :     0.030906  d :     0.161652
      dxz     :     0.032940
      dyz     :     0.025842
      dx2y2   :     0.032518
      dxy     :     0.039445
 13 H s       :     0.919246  s :     0.919246
      pz      :     0.042847  p :     0.076898
      px      :     0.016510
      py      :     0.017540
 14 H s       :     0.888563  s :     0.888563
      pz      :     0.041767  p :     0.080838
      px      :     0.022202
      py      :     0.016870
 15 H s       :     0.919269  s :     0.919269
      pz      :     0.043538  p :     0.077105
      px      :     0.022192
      py      :     0.011374
 16 H s       :     0.903764  s :     0.903764
      pz      :     0.045100  p :     0.078242
      px      :     0.017179
      py      :     0.015964
 17 H s       :     0.895379  s :     0.895379
      pz      :     0.039414  p :     0.076460
      px      :     0.017532
      py      :     0.019514
 18 H s       :     0.910486  s :     0.910486
      pz      :     0.037854  p :     0.079523
      px      :     0.022542
      py      :     0.019127
 19 H s       :     0.886212  s :     0.886212
      pz      :     0.016050  p :     0.081679
      px      :     0.041638
      py      :     0.023990
 20 H s       :     0.908299  s :     0.908299
      pz      :     0.010799  p :     0.077060
      px      :     0.017034
      py      :     0.049227
 21 H s       :     0.748720  s :     0.748720
      pz      :     0.088655  p :     0.206993
      px      :     0.058553
      py      :     0.059785
 22 H s       :     0.738611  s :     0.738611
      pz      :     0.072992  p :     0.208450
      px      :     0.089712
      py      :     0.045745
 23 H s       :     0.736362  s :     0.736362
      pz      :     0.059723  p :     0.208117
      px      :     0.042577
      py      :     0.105817
 24 H s       :     0.900123  s :     0.900123
      pz      :     0.035596  p :     0.078117
      px      :     0.024498
      py      :     0.018023
 25 H s       :     0.900243  s :     0.900243
      pz      :     0.015597  p :     0.079155
      px      :     0.040512
      py      :     0.023046
 26 H s       :     0.899658  s :     0.899658
      pz      :     0.036106  p :     0.077928
      px      :     0.023103
      py      :     0.018719
 27 H s       :     0.740846  s :     0.740846
      pz      :     0.045471  p :     0.208044
      px      :     0.091574
      py      :     0.070999
 28 H s       :     0.912761  s :     0.912761
      pz      :     0.033000  p :     0.077038
      px      :     0.027247
      py      :     0.016791


                      *****************************
                      * MAYER POPULATION ANALYSIS *
                      *****************************

  NA   - Mulliken gross atomic population
  ZA   - Total nuclear charge
  QA   - Mulliken gross atomic charge
  VA   - Mayer's total valence
  BVA  - Mayer's bonded valence
  FA   - Mayer's free valence

  ATOM       NA         ZA         QA         VA         BVA        FA
  0 C      5.8503     6.0000     0.1497     3.9043     3.9043    -0.0000
  1 O      8.5102     8.0000    -0.5102     1.9053     1.9053    -0.0000
  2 C      5.8857     6.0000     0.1143     3.9260     3.9260     0.0000
  3 C      5.8053     6.0000     0.1947     3.8318     3.8318    -0.0000
  4 C      5.8230     6.0000     0.1770     3.9453     3.9453    -0.0000
  5 C      5.7723     6.0000     0.2277     3.9399     3.9399    -0.0000
  6 C      5.7249     6.0000     0.2751     3.9805     3.9805    -0.0000
  7 O      8.3806     8.0000    -0.3806     2.0197     2.0197     0.0000
  8 O      8.4055     8.0000    -0.4055     1.9988     1.9988    -0.0000
  9 O      8.4029     8.0000    -0.4029     2.0139     2.0139    -0.0000
 10 O      8.3912     8.0000    -0.3912     2.0150     2.0150     0.0000
 11 C      6.0794     6.0000    -0.0794     3.9596     3.9596    -0.0000
 12 C      6.0210     6.0000    -0.0210     3.9840     3.9840    -0.0000
 13 H      0.9978     1.0000     0.0022     0.9652     0.9652     0.0000
 14 H      0.9342     1.0000     0.0658     1.0034     1.0034     0.0000
 15 H      0.9963     1.0000     0.0037     0.9876     0.9876     0.0000
 16 H      0.9677     1.0000     0.0323     0.9791     0.9791     0.0000
 17 H      0.9635     1.0000     0.0365     0.9850     0.9850     0.0000
 18 H      0.9859     1.0000     0.0141     0.9736     0.9736     0.0000
 19 H      0.9437     1.0000     0.0563     0.9844     0.9844    -0.0000
 20 H      0.9671     1.0000     0.0329     0.9759     0.9759    -0.0000
 21 H      0.8375     1.0000     0.1625     1.0232     1.0232    -0.0000
 22 H      0.8219     1.0000     0.1781     1.0277     1.0277    -0.0000
 23 H      0.8176     1.0000     0.1824     1.0240     1.0240     0.0000
 24 H      0.9709     1.0000     0.0291     0.9738     0.9738    -0.0000
 25 H      0.9645     1.0000     0.0355     0.9808     0.9808    -0.0000
 26 H      0.9680     1.0000     0.0320     0.9760     0.9760    -0.0000
 27 H      0.8325     1.0000     0.1675     1.0204     1.0204     0.0000
 28 H      0.9787     1.0000     0.0213     0.9735     0.9735    -0.0000

  Mayer bond orders larger than 0.1
B(  0-C ,  1-O ) :   0.9249 B(  0-C ,  5-C ) :   1.0362 B(  0-C , 11-C ) :   1.0033 
B(  0-C , 17-H ) :   0.9636 B(  1-O ,  2-C ) :   0.9313 B(  2-C ,  3-C ) :   0.9828 
B(  2-C ,  6-C ) :   1.0696 B(  2-C , 13-H ) :   0.9460 B(  3-C ,  4-C ) :   1.0202 
B(  3-C ,  8-O ) :   0.9172 B(  3-C , 14-H ) :   0.9392 B(  4-C ,  5-C ) :   1.0016 
B(  4-C ,  9-O ) :   0.9833 B(  4-C , 15-H ) :   0.9429 B(  5-C , 10-O ) :   0.9830 
B(  5-C , 16-H ) :   0.9538 B(  6-C ,  7-O ) :   1.0072 B(  6-C , 20-H ) :   0.9640 
B(  6-C , 28-H ) :   0.9590 B(  7-O , 27-H ) :   0.9973 B(  8-O , 21-H ) :   0.9992 
B(  9-O , 22-H ) :   0.9877 B( 10-O , 23-H ) :   0.9877 B( 11-C , 12-C ) :   1.0668 
B( 11-C , 18-H ) :   0.9612 B( 11-C , 19-H ) :   0.9599 B( 12-C , 24-H ) :   0.9833 
B( 12-C , 25-H ) :   0.9786 B( 12-C , 26-H ) :   0.9803 

-------
TIMINGS
-------

Total SCF time: 0 days 0 hours 0 min 41 sec 

Total time                  ....      41.183 sec
Sum of individual times     ....      40.919 sec  ( 99.4%)

Fock matrix formation       ....      40.675 sec  ( 98.8%)
Diagonalization             ....       0.010 sec  (  0.0%)
Density matrix formation    ....       0.006 sec  (  0.0%)
Population analysis         ....       0.031 sec  (  0.1%)
Initial guess               ....       0.137 sec  (  0.3%)
Orbital Transformation      ....       0.000 sec  (  0.0%)
Orbital Orthonormalization  ....       0.000 sec  (  0.0%)
DIIS solution               ....       0.000 sec  (  0.0%)
SOSCF solution              ....       0.059 sec  (  0.1%)


           ************************************************************
           *        Program running with 4 parallel MPI-processes     *
           *              working on a common directory               *
           ************************************************************


------------------------------------------------------------------------------- 
                              ORCA-MATRIX DRIVEN CI                            
------------------------------------------------------------------------------- 


Wavefunction type
-----------------
Correlation treatment                      ...      CCSD     
Single excitations                         ... ON
Orbital optimization                       ... OFF
Calculation of Z vector                    ... OFF
Calculation of Brueckner orbitals          ... OFF
Perturbative triple excitations            ... ON
Calculation of F12 correction              ... OFF
Frozen core treatment                      ... chemical core (26 el)
Reference Wavefunction                     ... RHF
  Internal Orbitals:    13 ...   51 ( 39 MO's/ 78 electrons)
  Virtual  Orbitals:    52 ...  261 (210 MO's              )
Number of AO's                             ...    262
Number of electrons                        ...    104
Number of correlated electrons             ...     78

Algorithmic settings
--------------------
Integral transformation                    ... All integrals via the RI transformation
K(C) Formation                             ... RI-DLPNO
   PNO-Integral Storage                    ... ON DISK
   PNO occupation number cut-off           ... 1.000e-07
   Singles PNO occupation number cut-off   ... 3.000e-09
   PNO Mulliken prescreening cut-off       ... 1.000e-03
   Domain cut-off (Mulliken population)    ... 1.000e-03
   PNO Normalization                       ...    1
Maximum number of iterations               ...        50
Convergence tolerance (max. residuum)      ... 1.000e-05
Level shift for amplitude update           ... 2.000e-01
Maximum number of DIIS vectors             ...         7
DIIS turned on at iteration                ...         0
Damping before turning on DIIS             ...     0.500
Damping after turning on DIIS              ...     0.000
Pair specific amplitude update             ... OFF
Natural orbital iterations                 ... OFF
Perturbative natural orbital generation    ... OFF
Printlevel                                 ... 2

Singles Fock matrix elements calculated using PNOs.

Memory handling:
----------------
Maximum memory for working arrays          ...   8000 MB
Data storage in matrix containers          ... UNCOMPRESSED
Data type for integral storage             ... DOUBLE
In-Core Storage of quantities:
   Amplitudes+Sigma Vector      ... NO
   J+K operators                ... NO
   DIIS vectors                 ... NO
   3-external integrals         ... NO
   4-external integrals         ... NO

Localization treatment:
-----------------------
Localization option                        ...    6
Localization threshhold                    ... -1.0e+00
Using relative localization threshhold     ... 1.0e-08
Neglect threshold for strong pairs         ... 1.000e-05 Eh
Prescreening threshold for very weak pairs ... 1.000e-07 Eh

Initializing the integral package          ... done
Localizing the valence orbitals
------------------------------------------------------------------------------
                           ORCA ORBITAL LOCALIZATION
------------------------------------------------------------------------------

Input orbitals are from                  ... C_Et_glycoside_g.proc0.gbw
Output orbitals are to                   ... C_Et_glycoside_g.proc0.loc
Max. number of iterations                ... 128
Localizations seeded randomly            ... off
Convergence tolerance                    ... 1.000e-06
Using relative localization threshhold   ... 1.000e-08
Treshold for strong local MOs            ... 9.500e-01
Treshold for bond MOs                    ... 8.500e-01
Operator                                 ... 0
Orbital range for localization           ... 13 to 51
Localization criterion                   ... FOSTER-BOYS (AUGMENTED HESSIAN)
Doing the dipole integrals     ... o.k.
Initial value of the localization sum :   906.986147
ITERATION   0 : L=  936.0748515275 DL=  2.91e+01 (AVERGE_DL)=    0.1981312993 
ITERATION   1 : L=  941.4624211033 DL=  5.39e+00 (AVERGE_DL)=    0.0852682484 
ITERATION   2 : L=  941.5498919727 DL=  8.75e-02 (AVERGE_DL)=    0.0108648221 
ITERATION   3 : L=  941.5540343243 DL=  4.14e-03 (AVERGE_DL)=    0.0023643642 
ITERATION   4 : L=  941.5543807359 DL=  3.46e-04 (AVERGE_DL)=    0.0006837339 
ITERATION   5 : L=  941.5544168197 DL=  3.61e-05 (AVERGE_DL)=    0.0002206719 
ITERATION   6 : L=  941.5544203559 DL=  3.54e-06 (AVERGE_DL)=    0.0000690813 
ITERATION   7 : L=  941.5544206894 DL=  3.34e-07 (AVERGE_DL)=    0.0000212151 
LOCALIZATION SUM CONVERGED

------------------------------------------------------
AUGMENTED HESSIAN OPTIMIZATION OF FOSTER-BOYS ORBITALS
------------------------------------------------------

Spin operator:           0
Orbital window:          13 to 51
Number of iterations:    128
Gradient tolerance:      1.000e-06
Number of pairs:         741
Davidson threshold:      2000
Diagonalization method:  LAPACK
Iter:    0   L: 941.5544206894   Grad. norm: 3.658302e-03
   *** Likely close to a maximum now. ***
       Augmented Hessian eigenvalues:  1.17e-07 -1.23e+00 -1.31e+00 -1.35e+00 ... 
Iter:    1   L: 941.5544207480   Grad. norm: 2.160101e-08
LOCALIZATION HAS CONVERGED.

Eigenvalues of the Hessian:
  0 -1.232e+00
  1 -1.313e+00
  2 -1.346e+00
  3 -1.373e+00
  4 -1.379e+00
  5 -3.532e+00
  6 -3.537e+00
  7 -3.608e+00
  8 -3.627e+00
  9 -3.655e+00
    ...


------------------------------------------------------------------------------- 
                    LOCALIZED MOLECULAR ORBITAL COMPOSITIONS                   
------------------------------------------------------------------------------- 

The Mulliken populations for each LMO on each atom are computed
The LMO`s will be ordered according to atom index and type
  (A) Strongly localized MO`s have populations of >=0.950 on one atom
  (B) Two center bond orbitals have populations of >=0.850 on two atoms
  (C) Other MO`s are considered to be `delocalized`

FOUND  -  10 strongly local MO`s
       -  29 two center bond MO`s
       -   0 significantly delocalized MO`s

Rather strongly localized orbitals:
MO  22:  10O  -   0.987033
MO  21:  10O  -   0.977557
MO  20:   9O  -   0.975767
MO  19:   9O  -   0.988465
MO  18:   8O  -   0.983906
MO  17:   8O  -   0.979309
MO  16:   7O  -   0.987834
MO  15:   7O  -   0.985616
MO  14:   1O  -   0.982522
MO  13:   1O  -   0.976408
Bond-like localized orbitals:
MO  51:  28H  -   0.507553  and   6C  -   0.504143
MO  50:  27H  -   0.416566  and   7O  -   0.582886
MO  49:  26H  -   0.501143  and  12C  -   0.510907
MO  48:  25H  -   0.497450  and  12C  -   0.514340
MO  47:  24H  -   0.503729  and  12C  -   0.508239
MO  46:  23H  -   0.404143  and  10O  -   0.598025
MO  45:  22H  -   0.405193  and   9O  -   0.597749
MO  44:  21H  -   0.419165  and   8O  -   0.589856
MO  43:  20H  -   0.499725  and   6C  -   0.512705
MO  42:  19H  -   0.483907  and  11C  -   0.522618
MO  41:  18H  -   0.511905  and  11C  -   0.496228
MO  40:  17H  -   0.492313  and   0C  -   0.514603
MO  39:  16H  -   0.497783  and   5C  -   0.514614
MO  38:  15H  -   0.511278  and   4C  -   0.496487
MO  37:  14H  -   0.468882  and   3C  -   0.531846
MO  36:  13H  -   0.520410  and   2C  -   0.491652
MO  35:  12C  -   0.494904  and  11C  -   0.547190
MO  34:  11C  -   0.507856  and   0C  -   0.544227
MO  33:  10O  -   0.659417  and   5C  -   0.352753
MO  32:   9O  -   0.664206  and   4C  -   0.351115
MO  31:   8O  -   0.674677  and   3C  -   0.339269
MO  30:   7O  -   0.655837  and   6C  -   0.354718
MO  29:   6C  -   0.477411  and   2C  -   0.578741
MO  28:   5C  -   0.509982  and   4C  -   0.551098
MO  27:   5C  -   0.521630  and   0C  -   0.543488
MO  26:   4C  -   0.521831  and   3C  -   0.547199
MO  25:   3C  -   0.523791  and   2C  -   0.531721
MO  24:   2C  -   0.358046  and   1O  -   0.662746
MO  23:   1O  -   0.684676  and   0C  -   0.338248
Localized MO's were stored in: C_Et_glycoside_g.proc0.loc

Localizing the core orbitals
------------------------------------------------------------------------------
                           ORCA ORBITAL LOCALIZATION
------------------------------------------------------------------------------

Input orbitals are from                  ... C_Et_glycoside_g.proc0.loc
Output orbitals are to                   ... C_Et_glycoside_g.proc0.loc
Max. number of iterations                ... 128
Localizations seeded randomly            ... off
Convergence tolerance                    ... 1.000e-06
Using relative localization threshhold   ... 1.000e-08
Treshold for strong local MOs            ... 9.500e-01
Treshold for bond MOs                    ... 8.500e-01
Operator                                 ... 0
Orbital range for localization           ... 0 to 12
Localization criterion                   ... FOSTER-BOYS (AUGMENTED HESSIAN)
Doing the dipole integrals     ... o.k.
Initial value of the localization sum :   263.250430
ITERATION   0 : L=  263.2504702681 DL=  3.98e-05 (AVERGE_DL)=    0.0007146055 
ITERATION   1 : L=  263.2504702681 DL=  0.00e+00 (AVERGE_DL)=    0.0000000000 
LOCALIZATION SUM CONVERGED

------------------------------------------------------
AUGMENTED HESSIAN OPTIMIZATION OF FOSTER-BOYS ORBITALS
------------------------------------------------------

Spin operator:           0
Orbital window:          0 to 12
Number of iterations:    128
Gradient tolerance:      1.000e-06
Number of pairs:         78
Davidson threshold:      2000
Diagonalization method:  LAPACK
Iter:    0   L: 263.2504702681   Grad. norm: 2.784609e-04
   *** Likely close to a maximum now. ***
       Augmented Hessian eigenvalues:  2.49e-10 -2.89e+01 -2.90e+01 -2.90e+01 ... 
Iter:    1   L: 263.2504702682   Grad. norm: 4.799106e-16
LOCALIZATION HAS CONVERGED.

Eigenvalues of the Hessian:
  0 -2.894e+01
  1 -2.898e+01
  2 -2.899e+01
  3 -2.910e+01
  4 -2.939e+01
  5 -2.959e+01
  6 -3.317e+01
  7 -3.327e+01
  8 -3.333e+01
  9 -3.356e+01
    ...


------------------------------------------------------------------------------- 
                    LOCALIZED MOLECULAR ORBITAL COMPOSITIONS                   
------------------------------------------------------------------------------- 

The Mulliken populations for each LMO on each atom are computed
The LMO`s will be ordered according to atom index and type
  (A) Strongly localized MO`s have populations of >=0.950 on one atom
  (B) Two center bond orbitals have populations of >=0.850 on two atoms
  (C) Other MO`s are considered to be `delocalized`

FOUND  -  13 strongly local MO`s
       -   0 two center bond MO`s
       -   0 significantly delocalized MO`s

Rather strongly localized orbitals:
MO  12:  12C  -   0.999515
MO  11:  11C  -   0.999258
MO  10:  10O  -   0.999657
MO   9:   9O  -   0.999668
MO   8:   8O  -   0.999717
MO   7:   7O  -   0.999794
MO   6:   6C  -   0.999467
MO   5:   5C  -   0.998946
MO   4:   4C  -   0.998875
MO   3:   3C  -   0.998871
MO   2:   2C  -   0.999081
MO   1:   1O  -   0.999527
MO   0:   0C  -   0.998953
Localized MO's were stored in: C_Et_glycoside_g.proc0.loc

Warning: internal orbitals are localized - no re-canonicalization of internal orbitals

--------------------------
CLOSED-SHELL FOCK OPERATOR
--------------------------

RI-JK section for the Fock operator:
  RHF full Fock operator         ... done
  RHF frozen core Fock operator  ... done
Time needed for Fock operator              ...            6.586 sec
Reference energy                           ...   -686.594210888

--------------
DLPNO SETTINGS (2015 fully linear scaling implementation)
--------------

TCutMKN:           1.000e-03
TCutPAO:           1.000e-03
TCutPNO:           1.000e-07
TCutPNOSingles:    3.000e-09
TCutEN:            9.700e-01
TCutPAOExt:        1.000e-01
TCutPairs:         1.000e-05
TCutPre:           1.000e-07
TCutOSV:           1.000e-06
TCutDOij:          1.000e-05
TCutDO:            5.000e-03
TCutC:             1.000e-04
TCutCPAO:          1.000e-03
TCutCMO:           1.000e-03
TScaleDOMP2PreScr: 2.000e+00
TScaleMKNMP2PreScr:1.000e+01
TScalePNOMP2PreScr:1.000e+00
PAO overlap thresh 1.000e-08
Using PNOs for Singles Fock computation
Use new domains
Use fully linear algorithm
TCutTNO:           1.000e-09
TCutMP2Pairs:      1.000e-06
TCutDOStrong:      2.000e-03
TCutMKNStrong:     1.000e-02
TCutMKNWeak:       1.000e-01
TCutDOWeak:        4.000e-03
NTCutTNO:          1

--------------------------
Calculating differential overlap integrals ... ok
--------------------------
ELECTRON PAIR PRESCREENING
--------------------------

Dipole-based pair screening          .... used

   TCutDOij = 1.000000e-05
   TCutPre  = 1.000000e-07
   .... Finished loop over pairs
Total time spent in the prescreening                  ...     0.000 sec
sum of pair energies estimated for screened out pairs ...       0.000000000000 Eh
Thresholds for map construction and integral transformation for crude MP2:
   TCutMKN                    ...     1.0e-02
   TCutDO                     ...     1.0e-02
   TCutPairs                  ...     1.0e-05
   TCutPNO_CrudeMP2           ...     1.0e-07
   TCutPNOSingles_CrudeMP2    ...     3.0e-09
--------------------------------
LOCAL RI TRANSFORMATION (IAVPAO)
--------------------------------

Orbital window:      13 to 51
Number of PAOs:     262
Basis functions:    262 (126 shells)
Aux. functions:     952 (330 shells)

Processing maps (0.0 sec)
Average map sizes:
   Aux shells -> MOs              39.0
   Aux shells -> PAOs            262.0
   MOs        -> AO shells       114.9
   PAOs       -> AO shells       124.9

Calculating integrals (1.2 sec, 74.226 MB)
Sorting integrals (0.2 sec, 74.216 MB)
Total time for the integral transformation: 1.4 sec
--------------------------------
INITIAL GUESS AND PNO GENERATION
--------------------------------

PNO truncation parameters                   .... 
    PAOOverlapThresh   =        1.000e-08

    TCutPairs          =        1.000e-05
    TCutPNO            =        1.000e-07
    TCutPNOSingles     =        3.000e-09
    TCutMP2Pairs       =        1.000e-06
    TCutMKN            =        1.000e-02
    TCutDO             =        1.000e-02

Pair selection                          .... not used
Type of local MP2 treatment                 .... semi-local MP2
Strategy for PNO selection                  .... occupation number selection
Pair density normalization                  .... MP2 norm
Spin component scaling                      .... not used

   .... Finished loop over pairs
Making pair pair interaction lists          ... done

                       ===========================
                        625 OF  780 PAIRS ARE KEPT CCSD PAIRS
                        148 OF  780 PAIRS ARE KEPT MP2 PAIRS FOR (T)
                          7 OF  780 PAIRS ARE SKIPPED
                       ===========================

Total time spent in the initial guess                 ...     5.032 sec
SL-MP2 correlation energy (all non-screened pairs)    ...      -1.967901583209 Eh

Initial PNO correlation energy                        ...      -1.965965070020 Eh
sum of pair energies prescreened and skipped MP2 pairs...      -0.000006098079 Eh
sum of pair energies of crude MP2 skipped pairs only  ...      -0.000006098079 Eh
sum of MP2 pair energies for pairs that were not kept ...      -0.000729828752 Eh
sum of PNO error estimates for the kept pairs         ...      -0.001206684437 Eh
                                                          --------------------
sum of all corrections                                         -0.001936513189
Initial total correlation energy                               -1.967901583209
Thresholds for map construction and integral transformation for fine MP2 and CCSD(T) calculation:
   TCutMKN   ...     1.0e-03
   TCutDO    ...     5.0e-03
   TCutPairs ...     1.0e-05
   TCutCMO   ...     1.0e-03
   TCutCPAO  ...     1.0e-03

Thresholds for map construction and integral transformation for strong Triples:
   TCutMKN   ...     1.0e-02
   TCutDO    ...     1.0e-02
   TCutCMO   ...     1.0e-03
   TCutCPAO  ...     1.0e-03

Thresholds for map construction and integral transformation for weak Triples:
   TCutMKN   ...     1.0e-01
   TCutDO    ...     2.0e-02
   TCutCMO   ...     1.0e-03
   TCutCPAO  ...     1.0e-03

--------------------------------
LOCAL RI TRANSFORMATION (IAVPAO)
--------------------------------

Orbital window:      13 to 51
Number of PAOs:     262
Basis functions:    262 (126 shells)
Aux. functions:     952 (330 shells)

Processing maps (0.0 sec)
Average map sizes:
   Aux shells -> MOs              39.0
   Aux shells -> PAOs            262.0
   MOs        -> AO shells       114.9
   PAOs       -> AO shells       124.9

Calculating integrals (1.2 sec, 74.226 MB)
Sorting integrals (0.1 sec, 74.216 MB)
Total time for the integral transformation: 1.3 sec
--------------------------------
INITIAL GUESS AND PNO GENERATION
--------------------------------

PNO truncation parameters                   .... 
    ScaleTCutPNO       =        1.000e-02
    PAOOverlapThresh   =        1.000e-08

    TCutPairs          =        1.000e-05
    TCutPNO            =        1.000e-07
    TCutPNOSingles     =        3.000e-09
    TCutMP2Pairs       =        1.000e-06
    TCutMKN            =        1.000e-03
    TCutDO             =        5.000e-03

Pair selection                          .... not used
Type of local MP2 treatment                 .... full local PMP2
Strategy for PNO selection                  .... occupation number selection
Pair density normalization                  .... MP2 norm
Spin component scaling                      .... not used

PASS-1: Formation of initial guess LMP2 amplitudes
Initial amplitudes guess done. Entering LMP2 iteration loop:
   Max. no of iterations          ...  50
   Energy convergence tolerance   ...    1.0e-07
   Residual convergence tolerance ...    5.0e-07
   Fock matrix cutoff             ...    1.0e-05 Eh
   DIIS convergence acceleration parameters:
        Max # vectors in DIIS     ... 7
        Start iteration of DIIS   ... 0
        Levelshift                ... 2.000e-01
        Damping factor 1          ... 5.000e-01
        Damping factor 2          ... 1.000e+00
   L-MP2 PNO cut-off              ...   1.0e-09
   L-MP2 PNO cut-off (core)       ...   1.0e-11
                           *** Turning on DIIS ***
LMP2-Iter=   0:  ELMP2= -2.020138942903  DE=   5.1e-02 RMAX=   6.4e-03
LMP2-Iter=   1:  ELMP2= -2.044068087849  DE=   2.4e-02 RMAX=   3.5e-03
LMP2-Iter=   2:  ELMP2= -2.047815041843  DE=   3.7e-03 RMAX=   6.2e-04
LMP2-Iter=   3:  ELMP2= -2.048215264507  DE=   4.0e-04 RMAX=   2.3e-04
LMP2-Iter=   4:  ELMP2= -2.048239699613  DE=   2.4e-05 RMAX=   2.9e-05
LMP2-Iter=   5:  ELMP2= -2.048237259719  DE=   2.4e-06 RMAX=   9.0e-06
LMP2-Iter=   6:  ELMP2= -2.048236800496  DE=   4.6e-07 RMAX=   1.3e-06
LMP2-Iter=   7:  ELMP2= -2.048236725077  DE=   7.5e-08 RMAX=   3.1e-07
LMP2-Iter=   8:  ELMP2= -2.048236741834  DE=   1.7e-08 RMAX=   5.4e-08 => CONVERGED
PASS-2: Formation of Pair natural orbitals
   .... Finished loop over pairs

 PNO Occupation Number Statistics: 
  | Av. % of trace(Dij) retained        ...  98.250258692164
  | sigma^2 in % of trace(Dij) retained ...   8.57e+00
  | Av. % of trace(Di) retained         ...  99.999839779025
  | sigma^2 in % of trace(Di) retained  ...   4.13e-09
 Distributions of % trace(Dij) recovered:
  |       >= 99.9  ...   182 ( 23.5 % of all pairs)
  |   [70.0, 80.0) ...     4 (  0.5 % of all pairs)
  |   [80.0, 90.0) ...    21 (  2.7 % of all pairs)
  |   [90.0, 99.0) ...   319 ( 41.3 % of all pairs)
  |   [99.0, 99.9) ...   247 ( 32.0 % of all pairs)
 Distributions of % trace(Di) recovered :
  |       >= 99.9  ...    39 (100.0 % of all I-pairs )

Making pair pair interaction lists          ... done

                       ===========================
                        625 OF  773 PAIRS ARE KEPT
                       ===========================

Total time spent in the initial guess                 ...    37.261 sec
L-MP2 correlation energy (all non-screened pairs)     ...      -2.048236741834 Eh
L-MP2 PNO error correction                            ...      -0.000030197701 Eh
                                                          --------------------
Initial total L-MP2 energy (non-screened pairs)       ...      -2.048266939535 Eh

Initial PNO correlation energy                        ...      -2.046516864401 Eh
sum of pair energies estimated for screened out pairs ...      -0.000006098079 Eh
sum of MP2 pair energies for pairs that were not kept ...      -0.000877477435 Eh
sum of PNO error estimates for the kept pairs         ...      -0.001129261474 Eh
                                                          --------------------
sum of all corrections                                         -0.002012836989
Initial total correlation energy                               -2.048529701390
Thresholds for map construction and integral transformation for fine MP2 and CCSD(T) calculation:
   TCutMKN   ...     1.0e-03
   TCutDO    ...     5.0e-03
   TCutPairs ...     1.0e-05
   TCutCMO   ...     1.0e-03
   TCutCPAO  ...     1.0e-03

Time for aux screen maps:            0.013
Time for maps after fine MP2:            0.052
-----------------------------
LOCAL RI TRANSFORMATION (IJV)
-----------------------------

Orbital window:      13 to 51
Basis functions:    262 (126 shells)
Aux. functions:     952 (330 shells)

Processing maps (0.0 sec)
Average map sizes:
   Aux shells -> MOs(i)           38.9
   Aux shells -> MOs(j)           39.0
   MOs        -> AO shells       114.9

Calculating integrals (1.0 sec, 11.037 MB)
Sorting integrals (0.0 sec, 11.027 MB)
Total time for the integral transformation: 1.1 sec
--------------------------------
LOCAL RI TRANSFORMATION (VABPAO)
--------------------------------

Number of PAOs:     262
Basis functions:    262 (126 shells)
Aux. functions:     952 (330 shells)

Processing maps (0.0 sec)
Average map sizes:
   Aux shells -> PAOs            262.0
   PAOs       -> AO shells       124.9

Calculating integrals (2.3 sec, 882.474 MB)
Finished


-------------------------------------
Pair Pair Term precalculation with     
RI-(ij|mn) and (im|jn) transformation  
ON THE FLY                             
-------------------------------------

   IBatch   1 (of   3)              ... done (   54.104 sec)
   IBatch   2 (of   3)              ... done (   63.219 sec)
   IBatch   3 (of   3)              ... done (   13.327 sec)
Total EXT                           ...         130.650 sec

---------------------
RI-PNO TRANSFORMATION
---------------------

Total Number of PNOs                   ... 13551
Average number of PNOs per pair        ...    21
Maximal number of PNOs per pair        ...    43
   #pairs with  1 -  5 PNOs   :    0
   #pairs with  6 - 10 PNOs   :  121
   #pairs with 11 - 15 PNOs   :   89
   #pairs with 16 - 20 PNOs   :   92
   #pairs with 21 - 25 PNOs   :   82
   #pairs with 26 - 30 PNOs   :   72
   #pairs with 31 - 35 PNOs   :  102
   #pairs with 36 - 40 PNOs   :   63
   #pairs with 41 - 45 PNOs   :    4
   #pairs with 46 - 50 PNOs   :    0

Generation of (ij|ab)[P] integrals            ... on
Generation of (ia|bc)[P],(ja|bc)[P] integrals ... on
Storage of 3 and 4 external integrals         ... on
Generation of ALL (ka|bc)[P] integrals        ... on
Keep RI integrals in memory                   ... off

Ibatch:  1 (of  1)
Starting 2-4 index PNO integral generation ... done

Timings:
Total PNO integral transformation time     ...         39.084 sec
Size of the 3-external file                ...        84 MB
Size of the 4-external file                ...       347 MB
Size of the IKJL file                      ...         1 MB
Size of the all 3-external file            ...      1644 MB
Size of the 1-external file                ...        12 MB

Making pair/pair overlap matrices          ... done (   12.886 sec)
Size of the pair overlap file              ... 891 MB
Redoing the guess amplitudes               ... done (    0.011 sec)

-------------------------
FINAL STARTUP INFORMATION
-------------------------

E(0)                                       ...   -686.594210888
E(L-MP2)                                   ...     -2.048266940
E(L-MP2) including corrections             ...     -2.048529701
Initial E(tot)                             ...   -688.642740590
<T|T>                                      ...      0.552768022
Number of pairs included                   ... 625
Total number of pairs                      ... 780

------------------------------------------------
                  RHF COUPLED CLUSTER ITERATIONS
------------------------------------------------

Number of PNO amplitudes to be optimized   ...       358981
Number of non-PNO amplitudes               ...     27562500
Untruncated number of regular amplitudes   ...     34398000

Iter       E(tot)           E(Corr)          Delta-E          Residual     Time
  0   -688.562853664     -1.966629939      0.081637000      0.020903576   14.60
                           *** Turning on DIIS ***
  1   -688.674887499     -2.078663773     -0.112033834      0.008893991   13.80
  2   -688.735338606     -2.139114881     -0.060451107      0.002410407   13.92
  3   -688.745007529     -2.148783804     -0.009668923      0.001328494   13.46
  4   -688.747526023     -2.151302298     -0.002518493      0.000450958   14.80
  5   -688.748061103     -2.151837378     -0.000535080      0.000210639   13.71
  6   -688.748150222     -2.151926497     -0.000089119      0.000096404   13.61
  7   -688.748166480     -2.151942755     -0.000016259      0.000042714   13.47
  8   -688.748171109     -2.151947384     -0.000004629      0.000015568   14.51
  9   -688.748170106     -2.151946380      0.000001004      0.000004717   14.31
               --- The Coupled-Cluster iterations have converged ---

----------------------
COUPLED CLUSTER ENERGY
----------------------

E(0)                                       ...   -686.594210888
E(CORR)(strong-pairs)                      ...     -2.151946380
E(CORR)(weak-pairs)                        ...     -0.002012837
E(CORR)(corrected)                         ...     -2.153959217
E(TOT)                                     ...   -688.748170106
Singles Norm <S|S>**1/2                    ...      0.086897130  
T1 diagnostic                              ...      0.009839162  

------------------
LARGEST AMPLITUDES
------------------
  40-> 61  40-> 61       0.044507
  47-> 61  47-> 61       0.042552
  48-> 61  48-> 61       0.042420
  32-> 53  32-> 53       0.041928
  30-> 53  30-> 53       0.040696
  49-> 61  49-> 61       0.040318
  36-> 52  36-> 52       0.040233
  31-> 53  31-> 53       0.039783
  33-> 53  33-> 53       0.039467
  23-> 52  23-> 52       0.038977
  38-> 52  38-> 52       0.038642
  24-> 52  24-> 52       0.038526
  51-> 52  51-> 52       0.038003
  41-> 52  41-> 52       0.037931
  37-> 60  37-> 60       0.037513
  43-> 52  43-> 52       0.037317


-------------------------------------------
DLPNO BASED TRIPLES CORRECTION
-------------------------------------------

Singles multiplier          ...  1.000000
TCutTNO                     ... 1.000e-09
TCutMP2Pairs                ... 1.000e-06
TCutDOStrong                ... 1.000e-02
TCutMKNStrong               ... 1.000e-02
TCutDOWeak                  ... 2.000e-02
TCutMKNWeak                 ... 1.000e-01

Fragment selection                          .... not used
Number of Triples that are to be computed   ...      8731

 . . . . . . . . .
10% done  
20% done  
30% done  
40% done  
50% done  
60% done  
70% done               (    321.140 sec)
 . . . . . . . . .
80% done  
90% done               (     58.961 sec)
Triples timings:
Total time for T0               ...   426.403 sec
Total time for Iterative (T)    ...     0.000 sec
Total time of overall (T)       ...   451.770 sec

Triples List generation         ...     0.000 sec
TNO generation                  ...    46.289 sec
Pair density generation         ...     0.005 sec
Look up tables                  ...     0.001 sec
Generating 3-index integrals    ...   228.030 sec
  Make 4-ind.int. from 3-ind.int...    34.785 sec
  Projecting amplitudes (D + S) ...    82.903 sec
  Downprojecting integrals      ...     0.014 sec
  Energy contr. (sum over a,b,c)...     9.072 sec
Fitting ET(->0)                 ...     0.000 sec

Everything after 3-index        ...   152.071 sec

Timing details:
 TNO integrals                  ...   255.150 sec
   Reading 3-index integrals    ...     2.772 sec
   Sorting integrals            ...    39.244 sec
       Sorting integrals 1      ...     0.013 sec
       Sorting integrals 2      ...    24.606 sec
       Sorting integrals 3      ...     1.964 sec
       Sorting integrals 4      ...     0.497 sec
       Sorting integrals 5      ...     0.781 sec
       Sorting integrals 6      ...    11.383 sec
   Calculating local VM**-1/2   ...     2.097 sec
   Orthogonal. integrals        ...     2.867 sec
   Multipl. 3-index integrals   ...   208.170 sec
   All concerning IRIab (w/TNO) ...    16.519 sec

 Calculate W0/W1                ...    25.235 sec
 W 3-ext contribution           ...    11.418 sec
 W 3-int contribution           ...     7.216 sec
 Sorting W                      ...     5.945 sec

 V exchange contribution        ...     3.611 sec

 Timings for Triples without generation
     of 3-index integrals       ...   152.042 sec
       0 weak pairs             ...   127.818 sec
       1 weak pair              ...    24.224 sec
       2 weak pairs             ...     0.000 sec
       3 weak pairs             ...     0.000 sec
  Extra time for extrapolation  ...     0.000 sec

Number of Triples   (0, 1, 2, 3 weak pairs; overall):   6222    2509       0       0  (  8731)
Number of Atoms     (0, 1, 2, 3 weak pairs; overall):   23.2    20.1     0.0     0.0  (    29)
Number of PAOs      (0, 1, 2, 3 weak pairs; overall):  219.8   191.0     0.0     0.0  (   262)
Number of AuxFcns   (0, 1, 2, 3 weak pairs; overall):  287.8   229.6     0.0     0.0  (   952)
Number of TNOs      (0, 1, 2, 3 weak pairs         ):   56.8    41.1     0.0     0.0
Aver. Number of NTNO, Atoms, PAOs, AuxFcns / Triples:   8731    52.3    22.3   211.5   271.1

Triples Correction (T)                     ...     -0.060377665
Final correlation energy                   ...     -2.214336882
E(CCSD)                                    ...   -688.748170106
E(CCSD(T))                                 ...   -688.808547770


Maximum memory used throughout the entire calculation: 8266.4 MB


------------------------------------------------------------------------------- 
                                     TIMINGS                                   
------------------------------------------------------------------------------- 


Total execution time                   ...      845.025 sec

Localization of occupied MO's          ...        0.799 sec (  0.1%)
Fock Matrix Formation                  ...        6.586 sec (  0.8%)
Global overlap, Fock, MKN matrices     ...        0.208 sec (  0.0%)
Differential overlap integrals         ...        0.328 sec (  0.0%)
Organizing maps                        ...        0.161 sec (  0.0%)
RI 3-index integral generations        ...        6.009 sec (  0.7%)
RI-PNO integral transformation         ...      190.178 sec ( 22.5%)
Initial Guess                          ...       42.342 sec (  5.0%)
DIIS Solver                            ...        1.943 sec (  0.2%)
State Vector Update                    ...        0.035 sec (  0.0%)
Sigma-vector construction              ...      139.869 sec ( 16.6%)
  <0|H|D>                              ...        0.002 sec (  0.0% of sigma)
  <D|H|D>(0-ext)                       ...       14.328 sec ( 10.2% of sigma)
  <D|H|D>(2-ext Fock)                  ...        0.034 sec (  0.0% of sigma)
  <D|H|D>(2-ext)                       ...       32.167 sec ( 23.0% of sigma)
  <D|H|D>(4-ext)                       ...        4.478 sec (  3.2% of sigma)
  <D|H|D>(4-ext-corr)                  ...       31.408 sec ( 22.5% of sigma)
  CCSD doubles correction              ...        0.905 sec (  0.6% of sigma)
  <S|H|S>                              ...        0.576 sec (  0.4% of sigma)
  <S|H|D>(1-ext)                       ...        1.586 sec (  1.1% of sigma)
  <D|H|S>(1-ext)                       ...        0.047 sec (  0.0% of sigma)
  <S|H|D>(3-ext)                       ...        0.342 sec (  0.2% of sigma)
  Fock-dressing                        ...       30.498 sec ( 21.8% of sigma)
  Singles amplitudes                   ...        1.200 sec (  0.9% of sigma)
  (ik|jl)-dressing                     ...       11.217 sec (  8.0% of sigma)
  (ij|ab),(ia|jb)-dressing             ...        6.542 sec (  4.7% of sigma)
  Pair energies                        ...        0.011 sec (  0.0% of sigma)
Total Time for computing (T)           ...      452.157 sec ( 53.5% of ALL)


-------------------------   --------------------
FINAL SINGLE POINT ENERGY      -688.808547770108
-------------------------   --------------------


                            ***************************************
                            *     ORCA property calculations      *
                            ***************************************

                                    ---------------------
                                    Active property flags
                                    ---------------------
   (+) Dipole Moment


------------------------------------------------------------------------------
                       ORCA ELECTRIC PROPERTIES CALCULATION
------------------------------------------------------------------------------

Dipole Moment Calculation                       ... on
Quadrupole Moment Calculation                   ... off
Polarizability Calculation                      ... off
GBWName                                         ... C_Et_glycoside_g.gbw
Electron density file                           ... C_Et_glycoside_g.scfp.tmp
The origin for moment calculation is the CENTER OF MASS  = (-0.036452,  0.071967 -0.044005)

-------------
DIPOLE MOMENT
-------------
                                X             Y             Z
Electronic contribution:     -4.34076       7.06001      -3.51347
Nuclear contribution   :      3.79126      -7.48458       4.57681
                        -----------------------------------------
Total Dipole Moment    :     -0.54950      -0.42457       1.06334
                        -----------------------------------------
Magnitude (a.u.)       :      1.27000
Magnitude (Debye)      :      3.22809



--------------------
Rotational spectrum 
--------------------
 
Rotational constants in cm-1:     0.028861     0.023617     0.015565 
Rotational constants in MHz :   865.225062   708.019907   466.624807 

 Dipole components along the rotational axes: 
x,y,z [a.u.] :    -0.580935    -0.371676     1.066434 
x,y,z [Debye]:    -1.476619    -0.944726     2.710659 

 

Timings for individual modules:

Sum of individual times         ...      904.587 sec (=  15.076 min)
GTO integral calculation        ...       17.726 sec (=   0.295 min)   2.0 %
SCF iterations                  ...       41.278 sec (=   0.688 min)   4.6 %
MDCI module                     ...      845.583 sec (=  14.093 min)  93.5 %
                             ****ORCA TERMINATED NORMALLY****
TOTAL RUN TIME: 0 days 0 hours 15 minutes 5 seconds 351 msec
C_Et_glycoside_g.gbw -> /home1/pantazis/klk/VDZ/Oxygen_compounds/C_Et_glycoside_g.gbw
C_Et_glycoside_g.ges -> /home1/pantazis/klk/VDZ/Oxygen_compounds/C_Et_glycoside_g.ges
C_Et_glycoside_g.job -> /home1/pantazis/klk/VDZ/Oxygen_compounds/C_Et_glycoside_g.job
C_Et_glycoside_g.loc -> /home1/pantazis/klk/VDZ/Oxygen_compounds/C_Et_glycoside_g.loc
C_Et_glycoside_g.nodes -> /home1/pantazis/klk/VDZ/Oxygen_compounds/C_Et_glycoside_g.nodes
C_Et_glycoside_g.prop -> /home1/pantazis/klk/VDZ/Oxygen_compounds/C_Et_glycoside_g.prop
C_Et_glycoside_g_property.txt -> /home1/pantazis/klk/VDZ/Oxygen_compounds/C_Et_glycoside_g_property.txt
C_Et_glycoside_g.xyz -> /home1/pantazis/klk/VDZ/Oxygen_compounds/C_Et_glycoside_g.xyz
cp: cannot stat C_Et_glycoside_g.asa.inp: No such file or directory
