! Job execution by suborca V 6.07 on ZEUS !
Job started from zeus1, running /scratch/pantazis/cis_1_3_dimethylcyclohex_ax_ax__AstWMr/orca/orca copied from /opt/orca on zeussn126 in /scratch/pantazis/cis_1_3_dimethylcyclohex_ax_ax__AstWMr
Job execution start: Sat Jun 29 10:18:55 CEST 2019
Shared library path: /scratch/pantazis/cis_1_3_dimethylcyclohex_ax_ax__AstWMr/orca:/opt/openmpi_1.10.2/lib:/opt/intel/mkl/lib/intel64:/opt/intel/lib/intel64:
PBS Job ID is: 158677.icqc
izeussn126
izeussn126
izeussn126
izeussn126

                                 *****************
                                 * O   R   C   A *
                                 *****************

           --- An Ab Initio, DFT and Semiempirical electronic structure package ---

                  #######################################################
                  #                        -***-                        #
                  #          Department of theory and spectroscopy      #
                  #               Directorship: Frank Neese             #
                  #        Max Planck Institute fuer Kohlenforschung    #
                  #                Kaiser Wilhelm Platz 1               #
                  #                 D-45470 Muelheim/Ruhr               #
                  #                      Germany                        #
                  #                                                     #
                  #                  All rights reserved                #
                  #                        -***-                        #
                  #######################################################


                         Program Version 4.1.x  -  STABLE  -
                                (SVN: $Rev: 14094$)
                ($Date: 2019-06-14 15:01:15 +0200 (Fri, 14 Jun 2019) $)

                         (BUILD: $Sun Jun 23 06:18:31 CEST 2019$)


 With contributions from (in alphabetic order):
   Daniel Aravena         : Magnetic Properties
   Michael Atanasov       : Ab Initio Ligand Field Theory
   Alexander A. Auer      : GIAO ZORA
   Ute Becker             : Parallelization
   Giovanni Bistoni       : ED, Open-shell LED
   Martin Brehm           : Molecular dynamics
   Dmytro Bykov           : SCF Hessian
   Vijay G. Chilkuri      : MRCI spin determinant printing
   Dipayan Datta          : RHF DLPNO-CCSD density
   Achintya Kumar Dutta   : EOM-CC, STEOM-CC
   Dmitry Ganyushin       : Spin-Orbit,Spin-Spin,Magnetic field MRCI
   Miquel Garcia          : C-PCM Hessian
   Yang Guo               : DLPNO-NEVPT2, CIM, IAO-localization
   Andreas Hansen         : Spin unrestricted coupled pair/coupled cluster methods
   Benjamin Helmich-Paris : CASSCF linear response (MC-RPA)
   Lee Huntington         : MR-EOM, pCC
   Robert Izsak           : Overlap fitted RIJCOSX, COSX-SCS-MP3, EOM
   Christian Kollmar      : KDIIS, OOCD, Brueckner-CCSD(T), CCSD density
   Simone Kossmann        : Meta GGA functionals, TD-DFT gradient, OOMP2, MP2 Hessian
   Martin Krupicka        : AUTO-CI
   Lucas Lang             : DCDCAS
   Dagmar Lenk            : GEPOL surface, SMD
   Dimitrios Liakos       : Extrapolation schemes; parallel MDCI
   Dimitrios Manganas     : ROCIS; embedding schemes
   Dimitrios Pantazis     : SARC Basis sets
   Taras Petrenko         : DFT Hessian,TD-DFT gradient, ASA, ECA, R-Raman, ABS, FL, XAS/XES, NRVS
   Peter Pinski           : DLPNO-MP2, DLPNO-MP2 Gradient
   Christoph Reimann      : Effective Core Potentials
   Marius Retegan         : Local ZFS, SOC
   Christoph Riplinger    : Optimizer, TS searches, QM/MM, DLPNO-CCSD(T), (RO)-DLPNO pert. Triples
   Tobias Risthaus        : Range-separated hybrids, TD-DFT gradient, RPA, STAB
   Michael Roemelt        : Restricted open shell CIS
   Masaaki Saitow         : Open-shell DLPNO
   Barbara Sandhoefer     : DKH picture change effects
   Avijit Sen             : IP-ROCIS
   Kantharuban Sivalingam : CASSCF convergence, NEVPT2, FIC-MRCI
   Bernardo de Souza      : ESD, SOC TD-DFT
   Georgi Stoychev        : AutoAux, RI-MP2 NMR
   Willem Van den Heuvel  : Paramagnetic NMR
   Boris Wezisla          : Elementary symmetry handling
   Frank Wennmohs         : Technical directorship


 We gratefully acknowledge several colleagues who have allowed us to
 interface, adapt or use parts of their codes:
   Stefan Grimme, W. Hujo, H. Kruse,             : VdW corrections, initial TS optimization,
                  C. Bannwarth                     DFT functionals, gCP, sTDA/sTD-DF
   Ed Valeev                                     : LibInt (2-el integral package), F12 methods
   Garnet Chan, S. Sharma, J. Yang, R. Olivares  : DMRG
   Ulf Ekstrom                                   : XCFun DFT Library
   Mihaly Kallay                                 : mrcc  (arbitrary order and MRCC methods)
   Andreas Klamt, Michael Diedenhofen            : otool_cosmo (COSMO solvation model)
   Jiri Pittner, Ondrej Demel                    : Mk-CCSD
   Frank Weinhold                                : gennbo (NPA and NBO analysis)
   Christopher J. Cramer and Donald G. Truhlar   : smd solvation model
   Lars Goerigk                                  : TD-DFT with DH, B97 family of functionals
   V. Asgeirsson, H. Jonsson                     : NEB implementation
   FAccTs GmbH                                   : IRC, NEB, NEB-TS, Multilevel


 Your calculation uses the libint2 library for the computation of 2-el integrals
 For citations please refer to: http://libint.valeyev.net

 This ORCA versions uses:
   CBLAS   interface :  Fast vector & matrix operations
   LAPACKE interface :  Fast linear algebra routines
   SCALAPACK package :  Parallel linear algebra routines




***************************************
The coordinates will be read from file: cis_1_3_dimethylcyclohex_ax_ax.xyz
***************************************


----- Orbital basis set information -----
Your calculation utilizes the basis: cc-pVDZ 
       H, B-Ne : Obtained from the ccRepo (grant-hill.group.shef.ac.uk/ccrepo) Feb. 2017
                 T. H. Dunning, Jr., J. Chem. Phys. 90, 1007 (1989)
            He : Obtained from the ccRepo (grant-hill.group.shef.ac.uk/ccrepo) Feb. 2017
                 D. E. Woon, T. H. Dunning, Jr., J. Chem. Phys. 100, 2975 (1994)
  Li-Be, Na-Mg : Obtained from the ccRepo (grant-hill.group.shef.ac.uk/ccrepo) Feb. 2017
                 B. P. Prascher, D. E. Woon, K. A. Peterson, T. H. Dunning, Jr., A. K. Wilson, Theor. Chem. Acc. 128, 69 (2011)
         Al-Ar : Obtained from the ccRepo (grant-hill.group.shef.ac.uk/ccrepo) Feb. 2017
                 D. E. Woon, T. H. Dunning, Jr., J. Chem. Phys. 98, 1358 (1993)
            Ca : Obtained from the Peterson Research Group Website (tyr0.chem.wsu.edu/~kipeters) Feb. 2017
                 J. Koput, K. A. Peterson, J. Phys. Chem. 106, 9595 (2002)
         Sc-Zn : Obtained from the ccRepo (grant-hill.group.shef.ac.uk/ccrepo) Feb. 2017
                 N. B. Balabanov, K. A. Peterson, J. Chem. Phys. 123, 064107 (2005)
                 N. B. Balabanov, K. A. Peterson, J. Chem. Phys. 125, 074110 (2006)
         Ga-Kr : Obtained from the ccRepo (grant-hill.group.shef.ac.uk/ccrepo) Feb. 2017
                 A. K. Wilson, D. E. Woon, K. A. Peterson, T. H. Dunning, Jr., J. Chem. Phys. 110, 7667 (1999)

----- AuxC basis set information -----
Your calculation utilizes the auxiliary basis: cc-pVDZ/C 
  H-He, B, Ne, Al-Ar, Ga-Br : Obtained from the EMSL Basis Set Exchange (bse.pnl.gov) Feb. 2017
                              F. Weigend, A. Kohn, C. Hattig, J. Chem. Phys. 116, 3175 (2002)
               Li-Be, Na-Mg : Obtained from the EMSL Basis Set Exchange (bse.pnl.gov) Feb. 2017
                              C. Haettig, Phys. Chem. Chem. Phys. 7, 59 (2005)
                        C-F : Obtained from the EMSL Basis Set Exchange (bse.pnl.gov) Feb. 2017
                              C. Haettig, Phys. Chem. Chem. Phys. 7, 59 (2005)
                              F. Weigend, A. Kohn, C. Hattig, J. Chem. Phys. 116, 3175 (2002)
                         Kr : Obtained from the TURBOMOLE 7.0 basis set library
                              F. Weigend, A. Kohn, C. Hattig, J. Chem. Phys. 116, 3175 (2002)
                              S function revised in Sep. 2009

----- AuxJK basis set information -----
Your calculation utilizes the auxiliary basis: cc-pVTZ/JK 
  H, B-F, Al-Cl, Ga-Br : Obtained from the TURBOMOLE 7.0 basis set library

================================================================================
                                        WARNINGS
                       Please study these warnings very carefully!
================================================================================


WARNING: MDCI localization with Augmented Hessian Foster-Boys
  ===> : Switching off randomization!

WARNING: Post HF methods need fully converged wavefunctions
  ===> : Setting SCFConvForced true
         You can overwrite this default with %scf ConvForced false 


INFO   : the flag for use of LIBINT has been found!

================================================================================
                                       INPUT FILE
================================================================================
NAME = cis_1_3_dimethylcyclohex_ax_ax.inp
|  1> ! RHF DLPNO-CCSD(T) cc-pVDZ RIJK cc-pVTZ/JK cc-pVDZ/C
|  2> ! KDIIS SOSCF TightSCF TightPNO
|  3> 
|  4> %pal nprocs 4 end
|  5> 
|  6> %maxcore 8000
|  7> 
|  8> %scf maxiter 300
|  9>      shift shift 0.2 erroff 0.1 end
| 10> end
| 11> 
| 12> * xyzfile 0 1 cis_1_3_dimethylcyclohex_ax_ax.xyz 
| 13> 
| 14> 
| 15>                          ****END OF INPUT****
================================================================================

                       ****************************
                       * Single Point Calculation *
                       ****************************

---------------------------------
CARTESIAN COORDINATES (ANGSTROEM)
---------------------------------
  C     -1.267380    1.190190    0.110650
  C      0.000030    1.569140   -0.673290
  C      1.267410    1.190160    0.110680
  C      1.318170   -0.309530    0.480210
  C     -0.000010   -0.732910    1.175870
  C     -1.318180   -0.309510    0.480220
  C      1.720590   -1.192220   -0.714980
  C     -1.720620   -1.192190   -0.714960
  H      2.166080    1.465180   -0.456880
  H      1.291750    1.782890    1.036710
  H      2.113410   -0.434100    1.229260
  H      0.000020   -0.275670    2.175740
  H      0.000050    1.074110   -1.653310
  H      0.000030    2.646770   -0.879370
  H     -2.113430   -0.434030    1.229270
  H     -1.291730    1.782950    1.036660
  H     -2.166030    1.465210   -0.456930
  H      2.738920   -0.948950   -1.040760
  H      1.703310   -2.254080   -0.443420
  H      1.063420   -1.063480   -1.579280
  H     -0.000010   -1.819180    1.339310
  H     -1.703340   -2.254050   -0.443410
  H     -2.738960   -0.948920   -1.040710
  H     -1.063480   -1.063430   -1.579290

----------------------------
CARTESIAN COORDINATES (A.U.)
----------------------------
  NO LB      ZA    FRAG     MASS         X           Y           Z
   0 C     6.0000    0    12.011   -2.395001    2.249133    0.209098
   1 C     6.0000    0    12.011    0.000057    2.965245   -1.272334
   2 C     6.0000    0    12.011    2.395058    2.249076    0.209155
   3 C     6.0000    0    12.011    2.490980   -0.584927    0.907465
   4 C     6.0000    0    12.011   -0.000019   -1.384999    2.222072
   5 C     6.0000    0    12.011   -2.490999   -0.584889    0.907484
   6 C     6.0000    0    12.011    3.251444   -2.252969   -1.351116
   7 C     6.0000    0    12.011   -3.251501   -2.252913   -1.351079
   8 H     1.0000    0     1.008    4.093298    2.768789   -0.863378
   9 H     1.0000    0     1.008    2.441054    3.369174    1.959098
  10 H     1.0000    0     1.008    3.993766   -0.820330    2.322965
  11 H     1.0000    0     1.008    0.000038   -0.520941    4.111553
  12 H     1.0000    0     1.008    0.000094    2.029774   -3.124303
  13 H     1.0000    0     1.008    0.000057    5.001670   -1.661768
  14 H     1.0000    0     1.008   -3.993804   -0.820198    2.322984
  15 H     1.0000    0     1.008   -2.441016    3.369287    1.959003
  16 H     1.0000    0     1.008   -4.093203    2.768846   -0.863473
  17 H     1.0000    0     1.008    5.175809   -1.793256   -1.966751
  18 H     1.0000    0     1.008    3.218789   -4.259594   -0.837942
  19 H     1.0000    0     1.008    2.009573   -2.009686   -2.984407
  20 H     1.0000    0     1.008   -0.000019   -3.437752    2.530929
  21 H     1.0000    0     1.008   -3.218846   -4.259537   -0.837923
  22 H     1.0000    0     1.008   -5.175884   -1.793199   -1.966657
  23 H     1.0000    0     1.008   -2.009686   -2.009591   -2.984426

--------------------------------
INTERNAL COORDINATES (ANGSTROEM)
--------------------------------
 C      0   0   0     0.000000000000     0.00000000     0.00000000
 C      1   0   0     1.537690844806     0.00000000     0.00000000
 C      2   1   0     1.537688806521   111.01902002     0.00000000
 C      3   2   1     1.545379919178   112.83993588    56.62794165
 C      4   3   2     1.549448925393   110.15622979   308.51065460
 C      1   2   3     1.545400503074   112.84040108   303.37349331
 C      4   3   2     1.539338373653   112.29624031    77.37828700
 C      6   1   2     1.539330103779   112.29519015   282.61993442
 H      3   2   1     1.097892582587   110.44758640   180.03340426
 H      3   2   1     1.099751267060   108.34318888   296.19344001
 H      4   3   2     1.099545472002   107.25321911   193.38379292
 H      5   4   3     1.099458246320   107.13624990   288.70229441
 H      2   1   3     1.097949863017   110.11833686   122.21863273
 H      2   1   3     1.097157866171   109.74373816   238.50431574
 H      6   1   2     1.099547041013   107.25255210   166.61456300
 H      1   2   3     1.099750817322   108.34232757    63.80827007
 H      1   2   3     1.097886551197   110.44808149   179.96763130
 H      7   4   3     1.096498467942   110.25826961    63.50680600
 H      7   4   3     1.096170648941   111.03897906   182.72900188
 H      7   4   3     1.093371339710   112.89943117   303.51870526
 H      5   4   3     1.098496766723   109.69448467   174.05280222
 H      8   6   1     1.096168171632   111.03928200   177.26895364
 H      8   6   1     1.096498842225   110.25793132   296.49046686
 H      8   6   1     1.093379378853   112.89974452    56.47755537

---------------------------
INTERNAL COORDINATES (A.U.)
---------------------------
 C      0   0   0     0.000000000000     0.00000000     0.00000000
 C      1   0   0     2.905814575321     0.00000000     0.00000000
 C      2   1   0     2.905810723521   111.01902002     0.00000000
 C      3   2   1     2.920344820109   112.83993588    56.62794165
 C      4   3   2     2.928034127490   110.15622979   308.51065460
 C      1   2   3     2.920383718033   112.84040108   303.37349331
 C      4   3   2     2.908927953640   112.29624031    77.37828700
 C      6   1   2     2.908912325843   112.29519015   282.61993442
 H      3   2   1     2.074716305553   110.44758640   180.03340426
 H      3   2   1     2.078228710176   108.34318888   296.19344001
 H      4   3   2     2.077839813877   107.25321911   193.38379292
 H      5   4   3     2.077674981225   107.13624990   288.70229441
 H      2   1   3     2.074824549879   110.11833686   122.21863273
 H      2   1   3     2.073327892740   109.74373816   238.50431574
 H      6   1   2     2.077842778878   107.25255210   166.61456300
 H      1   2   3     2.078227860294   108.34232757    63.80827007
 H      1   2   3     2.074704907878   110.44808149   179.96763130
 H      7   4   3     2.072081810675   110.25826961    63.50680600
 H      7   4   3     2.071462322541   111.03897906   182.72900188
 H      7   4   3     2.066172394731   112.89943117   303.51870526
 H      5   4   3     2.075858048104   109.69448467   174.05280222
 H      8   6   1     2.071457641106   111.03928200   177.26895364
 H      8   6   1     2.072082517966   110.25793132   296.49046686
 H      8   6   1     2.066187586508   112.89974452    56.47755537

---------------------
BASIS SET INFORMATION
---------------------
There are 2 groups of distinct atoms

 Group   1 Type C   : 17s4p1d contracted to 3s2p1d pattern {881/31/1}
 Group   2 Type H   : 4s1p contracted to 2s1p pattern {31/1}

Atom   0C    basis set group =>   1
Atom   1C    basis set group =>   1
Atom   2C    basis set group =>   1
Atom   3C    basis set group =>   1
Atom   4C    basis set group =>   1
Atom   5C    basis set group =>   1
Atom   6C    basis set group =>   1
Atom   7C    basis set group =>   1
Atom   8H    basis set group =>   2
Atom   9H    basis set group =>   2
Atom  10H    basis set group =>   2
Atom  11H    basis set group =>   2
Atom  12H    basis set group =>   2
Atom  13H    basis set group =>   2
Atom  14H    basis set group =>   2
Atom  15H    basis set group =>   2
Atom  16H    basis set group =>   2
Atom  17H    basis set group =>   2
Atom  18H    basis set group =>   2
Atom  19H    basis set group =>   2
Atom  20H    basis set group =>   2
Atom  21H    basis set group =>   2
Atom  22H    basis set group =>   2
Atom  23H    basis set group =>   2
-------------------------------
AUXILIARY BASIS SET INFORMATION
-------------------------------
There are 2 groups of distinct atoms

 Group   1 Type C   : 7s5p4d2f contracted to 7s5p4d2f pattern {1111111/11111/1111/11}
 Group   2 Type H   : 3s2p1d contracted to 3s2p1d pattern {111/11/1}

Atom   0C    basis set group =>   1
Atom   1C    basis set group =>   1
Atom   2C    basis set group =>   1
Atom   3C    basis set group =>   1
Atom   4C    basis set group =>   1
Atom   5C    basis set group =>   1
Atom   6C    basis set group =>   1
Atom   7C    basis set group =>   1
Atom   8H    basis set group =>   2
Atom   9H    basis set group =>   2
Atom  10H    basis set group =>   2
Atom  11H    basis set group =>   2
Atom  12H    basis set group =>   2
Atom  13H    basis set group =>   2
Atom  14H    basis set group =>   2
Atom  15H    basis set group =>   2
Atom  16H    basis set group =>   2
Atom  17H    basis set group =>   2
Atom  18H    basis set group =>   2
Atom  19H    basis set group =>   2
Atom  20H    basis set group =>   2
Atom  21H    basis set group =>   2
Atom  22H    basis set group =>   2
Atom  23H    basis set group =>   2
-------------------------------
AUXILIARY BASIS SET INFORMATION
-------------------------------
There are 2 groups of distinct atoms

 Group   1 Type C   : 10s7p5d2f1g contracted to 10s7p5d2f1g pattern {1111111111/1111111/11111/11/1}
 Group   2 Type H   : 4s3p2d1f contracted to 4s3p2d1f pattern {1111/111/11/1}

Atom   0C    basis set group =>   1
Atom   1C    basis set group =>   1
Atom   2C    basis set group =>   1
Atom   3C    basis set group =>   1
Atom   4C    basis set group =>   1
Atom   5C    basis set group =>   1
Atom   6C    basis set group =>   1
Atom   7C    basis set group =>   1
Atom   8H    basis set group =>   2
Atom   9H    basis set group =>   2
Atom  10H    basis set group =>   2
Atom  11H    basis set group =>   2
Atom  12H    basis set group =>   2
Atom  13H    basis set group =>   2
Atom  14H    basis set group =>   2
Atom  15H    basis set group =>   2
Atom  16H    basis set group =>   2
Atom  17H    basis set group =>   2
Atom  18H    basis set group =>   2
Atom  19H    basis set group =>   2
Atom  20H    basis set group =>   2
Atom  21H    basis set group =>   2
Atom  22H    basis set group =>   2
Atom  23H    basis set group =>   2

Checking for AutoStart:
The File: cis_1_3_dimethylcyclohex_ax_ax.gbw exists
Trying to determine its content:
     ... Fine, the file contains calculation information
     ... Fine, the calculation information was read
     ... Fine, the file contains a basis set
     ... Fine, the basis set was read
     ... Fine, the file contains a geometry
     ... Fine, the geometry was read
     ... Fine, the file contains a set of orbitals
     ... Fine, the orbitals can be read
     => possible old guess file was deleted
     => GBW file was renamed to GES file
     => GES file is set as startup file
     => Guess is set to MORead
     ... now leaving AutoStart



           ************************************************************
           *        Program running with 4 parallel MPI-processes     *
           *              working on a common directory               *
           ************************************************************
------------------------------------------------------------------------------
                           ORCA GTO INTEGRAL CALCULATION
                           -- RI-GTO INTEGRALS CHOSEN --
------------------------------------------------------------------------------

                         BASIS SET STATISTICS AND STARTUP INFO

Gaussian basis set:
 # of primitive gaussian shells          ...  256
 # of primitive gaussian functions       ...  384
 # of contracted shells                  ...   96
 # of contracted basis functions         ...  192
 Highest angular momentum                ...    2
 Maximum contraction depth               ...    8
Auxiliary gaussian basis set:
 # of primitive gaussian shells          ...  360
 # of primitive gaussian functions       ... 1112
 # of contracted shells                  ...  360
 # of contracted aux-basis functions     ... 1112
 Highest angular momentum                ...    4
 Maximum contraction depth               ...    1
Ratio of auxiliary to basis functions    ...  5.79
Integral package used                  ... LIBINT
 One Electron integrals                  ... done
 Ordering auxiliary basis shells         ... done
 Integral threshhold             Thresh  ...  2.500e-11
 Primitive cut-off               TCut    ...  2.500e-12
 Pre-screening matrix                    ... done
 Shell pair data                         ... 
 Ordering of the shell pairs             ... done (   0.001 sec) 4634 of 4656 pairs
 Determination of significant pairs      ... done (   0.000 sec)
 Creation of shell pair data             ... done (   0.002 sec)
 Storage of shell pair data              ... done (   0.002 sec)
 Shell pair data done in (   0.005 sec)
 Computing two index integrals           ... done
 Cholesky decomposition of the V-matrix  ... done


Timings:
 Total evaluation time                   ...  43.946 sec (  0.732 min)
 One electron matrix time                ...  43.325 sec (  0.722 min) = 98.6%
 Schwartz matrix evaluation time         ...   0.200 sec (  0.003 min) =  0.5%
 Two index repulsion integral time       ...   0.175 sec (  0.003 min) =  0.4%
 Cholesky decomposition of V             ...   0.216 sec (  0.004 min) =  0.5%
 Three index repulsion integral time     ...   0.000 sec (  0.000 min) =  0.0%



           ************************************************************
           *        Program running with 4 parallel MPI-processes     *
           *              working on a common directory               *
           ************************************************************
-------------------------------------------------------------------------------
                                 ORCA SCF
-------------------------------------------------------------------------------

------------
SCF SETTINGS
------------
Hamiltonian:
 Ab initio Hamiltonian  Method          .... Hartree-Fock(GTOs)
 RI-approximation to the Coulomb term is turned on
   Number of auxiliary basis functions  .... 1112
   RI-JK (J+K treated both via RI)      .... on


General Settings:
 Integral files         IntName         .... cis_1_3_dimethylcyclohex_ax_ax
 Hartree-Fock type      HFTyp           .... RHF
 Total Charge           Charge          ....    0
 Multiplicity           Mult            ....    1
 Number of Electrons    NEL             ....   64
 Basis Dimension        Dim             ....  192
 Nuclear Repulsion      ENuc            ....    414.6252670087 Eh

Convergence Acceleration:
 DIIS                   CNVDIIS         .... off
 Newton-Raphson         CNVNR           .... off
 SOSCF                  CNVSOSCF        .... on
   Start iteration      SOSCFMaxIt      ....   150
   Startup grad/error   SOSCFStart      ....  0.003300
 Level Shifting         CNVShift        .... on
   Level shift para.    LevelShift      ....    0.2000
   Turn off err/grad.   ShiftErr        ....    0.1000
 Zerner damping         CNVZerner       .... off
 Static damping         CNVDamp         .... off
 Fernandez-Rico         CNVRico         .... off

SCF Procedure:
 Maximum # iterations   MaxIter         ....   300
 SCF integral mode      SCFMode         .... Direct
   Integral package                     .... LIBINT
 Reset frequency        DirectResetFreq ....    20
 Integral Threshold     Thresh          ....  2.500e-11 Eh
 Primitive CutOff       TCut            ....  2.500e-12 Eh

Convergence Tolerance:
 Convergence Check Mode ConvCheckMode   .... Total+1el-Energy
 Convergence forced     ConvForced      .... 1
 Energy Change          TolE            ....  1.000e-08 Eh
 1-El. energy change                    ....  1.000e-05 Eh
 Orbital Gradient       TolG            ....  1.000e-05
 Orbital Rotation angle TolX            ....  1.000e-05


Diagonalization of the overlap matrix:
Smallest eigenvalue                        ... 3.563e-03
Time for diagonalization                   ...    0.008 sec
Threshold for overlap eigenvalues          ... 1.000e-08
Number of eigenvalues below threshold      ... 0
Time for construction of square roots      ...    0.006 sec
Total time needed                          ...    0.014 sec

---------------------
INITIAL GUESS: MOREAD
---------------------
Guess MOs are being read from file: cis_1_3_dimethylcyclohex_ax_ax.ges
Input Geometry matches current geometry (good)
Atom 0: N(Shells)= 6 and 10 - projection required
Input basis set needs projection
NBasis(read)= 464
NBasis(calc)= 192
Basis set overlap was calculated
Using GuessMode=FMatrix for the initial guess
C*T matrix was formed
Effective Fockian was calculated
Effective Fockian was diagonalized
Initial density was built
                      ------------------
                      INITIAL GUESS DONE (   0.1 sec)
                      ------------------
--------------
SCF ITERATIONS
--------------
ITER       Energy         Delta-E        Max-DP      RMS-DP      [F,P]   Gradient Norm
                             ****Turning on KDIIS(Cayley)****
  0   -312.2889798882   0.000000000000 0.00205169  0.00005293  0.0047814   0.005680722
  1   -312.2891251442  -0.000145256040 0.00390624  0.00010178  0.0043329   0.005159532
  2   -312.2893696217  -0.000244477500 0.00600081  0.00016334  0.0034732   0.004154607
                      *** Initiating the SOSCF procedure ***
                           *** Shutting down KDIIS ***
                      *** Re-Reading the Fockian *** 
                      *** Removing any level shift *** 
ITER      Energy       Delta-E        Grad      Rot      Max-DP    RMS-DP
  3   -312.28965935  -0.0002897319  0.002082  0.002082  0.008535  0.000244
  4   -312.28982389  -0.0001645358  0.000006  0.000007  0.000021  0.000001
                  ***Gradient check signals convergence***
              ***Rediagonalizing the Fockian in SOSCF/NRSCF***

               *****************************************************
               *                     SUCCESS                       *
               *           SCF CONVERGED AFTER   5 CYCLES          *
               *****************************************************


----------------
TOTAL SCF ENERGY
----------------

Total Energy       :         -312.28982389 Eh           -8497.83813 eV

Components:
Nuclear Repulsion  :          414.62526701 Eh           11282.52711 eV
Electronic Energy  :         -726.91509090 Eh          -19780.36524 eV
One Electron Energy:        -1243.08007365 Eh          -33825.92848 eV
Two Electron Energy:          516.16498274 Eh           14045.56324 eV

Virial components:
Potential Energy   :         -624.12163666 Eh          -16983.21314 eV
Kinetic Energy     :          311.83181276 Eh            8485.37501 eV
Virial Ratio       :            2.00146878


---------------
SCF CONVERGENCE
---------------

  Last Energy change         ...   -3.5980e-09  Tolerance :   1.0000e-08
  Last MAX-Density change    ...    5.2200e-06  Tolerance :   1.0000e-07
  Last RMS-Density change    ...    2.5719e-07  Tolerance :   5.0000e-09
  Last Orbital Gradient      ...    2.1739e-06  Tolerance :   1.0000e-05
  Last Orbital Rotation      ...    2.4576e-06  Tolerance :   1.0000e-05

             **** THE GBW FILE WAS UPDATED (cis_1_3_dimethylcyclohex_ax_ax.gbw) ****
             **** DENSITY FILE WAS UPDATED (cis_1_3_dimethylcyclohex_ax_ax.scfp.tmp) ****
             **** ENERGY FILE WAS UPDATED (cis_1_3_dimethylcyclohex_ax_ax.en.tmp) ****
----------------
ORBITAL ENERGIES
----------------

  NO   OCC          E(Eh)            E(eV) 
   0   2.0000     -11.224836      -305.4433 
   1   2.0000     -11.224831      -305.4432 
   2   2.0000     -11.218658      -305.2752 
   3   2.0000     -11.217911      -305.2549 
   4   2.0000     -11.217681      -305.2486 
   5   2.0000     -11.217588      -305.2461 
   6   2.0000     -11.214994      -305.1755 
   7   2.0000     -11.214989      -305.1754 
   8   2.0000      -1.117625       -30.4121 
   9   2.0000      -1.035891       -28.1880 
  10   2.0000      -1.009217       -27.4622 
  11   2.0000      -0.926203       -25.2033 
  12   2.0000      -0.911820       -24.8119 
  13   2.0000      -0.820501       -22.3270 
  14   2.0000      -0.790532       -21.5115 
  15   2.0000      -0.705417       -19.1954 
  16   2.0000      -0.655315       -17.8320 
  17   2.0000      -0.612488       -16.6666 
  18   2.0000      -0.598448       -16.2846 
  19   2.0000      -0.588065       -16.0021 
  20   2.0000      -0.568030       -15.4569 
  21   2.0000      -0.548369       -14.9219 
  22   2.0000      -0.544866       -14.8266 
  23   2.0000      -0.530495       -14.4355 
  24   2.0000      -0.503885       -13.7114 
  25   2.0000      -0.483979       -13.1697 
  26   2.0000      -0.480035       -13.0624 
  27   2.0000      -0.468293       -12.7429 
  28   2.0000      -0.461865       -12.5680 
  29   2.0000      -0.433419       -11.7939 
  30   2.0000      -0.415031       -11.2936 
  31   2.0000      -0.413764       -11.2591 
  32   0.0000       0.168377         4.5818 
  33   0.0000       0.197756         5.3812 
  34   0.0000       0.208919         5.6850 
  35   0.0000       0.219377         5.9695 
  36   0.0000       0.234298         6.3756 
  37   0.0000       0.244554         6.6547 
  38   0.0000       0.250667         6.8210 
  39   0.0000       0.261853         7.1254 
  40   0.0000       0.262035         7.1303 
  41   0.0000       0.270598         7.3633 
  42   0.0000       0.282344         7.6830 
  43   0.0000       0.292094         7.9483 
  44   0.0000       0.312070         8.4919 
  45   0.0000       0.315488         8.5849 
  46   0.0000       0.328421         8.9368 
  47   0.0000       0.357777         9.7356 
  48   0.0000       0.363653         9.8955 
  49   0.0000       0.368700        10.0328 
  50   0.0000       0.391360        10.6495 
  51   0.0000       0.413517        11.2524 
  52   0.0000       0.420687        11.4475 
  53   0.0000       0.446548        12.1512 
  54   0.0000       0.456524        12.4227 
  55   0.0000       0.486555        13.2398 
  56   0.0000       0.568761        15.4768 
  57   0.0000       0.583594        15.8804 
  58   0.0000       0.591339        16.0912 
  59   0.0000       0.625933        17.0325 
  60   0.0000       0.640414        17.4266 
  61   0.0000       0.641099        17.4452 
  62   0.0000       0.649242        17.6668 
  63   0.0000       0.684901        18.6371 
  64   0.0000       0.724766        19.7219 
  65   0.0000       0.768500        20.9120 
  66   0.0000       0.804023        21.8786 
  67   0.0000       0.810416        22.0525 
  68   0.0000       0.821135        22.3442 
  69   0.0000       0.830861        22.6089 
  70   0.0000       0.855393        23.2764 
  71   0.0000       0.858836        23.3701 
  72   0.0000       0.863221        23.4894 
  73   0.0000       0.869755        23.6672 
  74   0.0000       0.875243        23.8166 
  75   0.0000       0.894200        24.3324 
  76   0.0000       0.894570        24.3425 
  77   0.0000       0.899244        24.4697 
  78   0.0000       0.907286        24.6885 
  79   0.0000       0.907309        24.6891 
  80   0.0000       0.912257        24.8238 
  81   0.0000       0.917187        24.9579 
  82   0.0000       0.925194        25.1758 
  83   0.0000       0.930632        25.3238 
  84   0.0000       0.938987        25.5511 
  85   0.0000       0.939616        25.5682 
  86   0.0000       0.951655        25.8958 
  87   0.0000       0.957959        26.0674 
  88   0.0000       0.964787        26.2532 
  89   0.0000       0.967580        26.3292 
  90   0.0000       0.976085        26.5606 
  91   0.0000       1.034109        28.1395 
  92   0.0000       1.034949        28.1624 
  93   0.0000       1.041248        28.3338 
  94   0.0000       1.112385        30.2695 
  95   0.0000       1.123726        30.5781 
  96   0.0000       1.141737        31.0683 
  97   0.0000       1.229441        33.4548 
  98   0.0000       1.250210        34.0199 
  99   0.0000       1.268541        34.5188 
 100   0.0000       1.311655        35.6919 
 101   0.0000       1.343836        36.5676 
 102   0.0000       1.381329        37.5879 
 103   0.0000       1.398034        38.0424 
 104   0.0000       1.445115        39.3236 
 105   0.0000       1.482606        40.3438 
 106   0.0000       1.538629        41.8682 
 107   0.0000       1.538966        41.8774 
 108   0.0000       1.588502        43.2253 
 109   0.0000       1.608983        43.7827 
 110   0.0000       1.638229        44.5785 
 111   0.0000       1.645369        44.7728 
 112   0.0000       1.666298        45.3423 
 113   0.0000       1.683868        45.8204 
 114   0.0000       1.692761        46.0624 
 115   0.0000       1.709365        46.5142 
 116   0.0000       1.741982        47.4017 
 117   0.0000       1.765944        48.0538 
 118   0.0000       1.783297        48.5260 
 119   0.0000       1.816107        49.4188 
 120   0.0000       1.824700        49.6526 
 121   0.0000       1.863101        50.6976 
 122   0.0000       1.871904        50.9371 
 123   0.0000       1.873652        50.9847 
 124   0.0000       1.885143        51.2973 
 125   0.0000       1.892137        51.4877 
 126   0.0000       1.907970        51.9185 
 127   0.0000       1.918986        52.2183 
 128   0.0000       1.924130        52.3582 
 129   0.0000       1.924881        52.3787 
 130   0.0000       1.945505        52.9399 
 131   0.0000       1.958606        53.2964 
 132   0.0000       1.965347        53.4798 
 133   0.0000       1.976082        53.7719 
 134   0.0000       1.998219        54.3743 
 135   0.0000       2.006570        54.6015 
 136   0.0000       2.009875        54.6915 
 137   0.0000       2.021999        55.0214 
 138   0.0000       2.028097        55.1873 
 139   0.0000       2.043802        55.6147 
 140   0.0000       2.050485        55.7965 
 141   0.0000       2.050560        55.7986 
 142   0.0000       2.052661        55.8558 
 143   0.0000       2.078862        56.5687 
 144   0.0000       2.106647        57.3248 
 145   0.0000       2.113787        57.5191 
 146   0.0000       2.149292        58.4852 
 147   0.0000       2.153594        58.6023 
 148   0.0000       2.179588        59.3096 
 149   0.0000       2.186342        59.4934 
 150   0.0000       2.204684        59.9925 
 151   0.0000       2.228722        60.6466 
 152   0.0000       2.249499        61.2120 
 153   0.0000       2.269696        61.7616 
 154   0.0000       2.296831        62.4999 
 155   0.0000       2.326380        63.3040 
 156   0.0000       2.341968        63.7282 
 157   0.0000       2.363801        64.3223 
 158   0.0000       2.370904        64.5156 
 159   0.0000       2.384914        64.8968 
 160   0.0000       2.392759        65.1103 
 161   0.0000       2.400416        65.3187 
 162   0.0000       2.462124        66.9978 
 163   0.0000       2.486331        67.6565 
 164   0.0000       2.508901        68.2707 
 165   0.0000       2.528511        68.8043 
 166   0.0000       2.537671        69.0535 
 167   0.0000       2.558226        69.6129 
 168   0.0000       2.579993        70.2052 
 169   0.0000       2.591241        70.5113 
 170   0.0000       2.599795        70.7440 
 171   0.0000       2.615918        71.1828 
 172   0.0000       2.664623        72.5081 
 173   0.0000       2.711496        73.7836 
 174   0.0000       2.719687        74.0064 
 175   0.0000       2.771862        75.4262 
 176   0.0000       2.787495        75.8516 
 177   0.0000       2.789920        75.9176 
 178   0.0000       2.815119        76.6033 
 179   0.0000       2.816817        76.6495 
 180   0.0000       2.817961        76.6806 
 181   0.0000       2.843944        77.3877 
 182   0.0000       2.896338        78.8134 
 183   0.0000       2.897268        78.8387 
 184   0.0000       2.958973        80.5178 
 185   0.0000       2.977235        81.0147 
 186   0.0000       2.989704        81.3540 
 187   0.0000       3.005062        81.7719 
 188   0.0000       3.047535        82.9276 
 189   0.0000       3.065297        83.4110 
 190   0.0000       3.120908        84.9242 
 191   0.0000       3.163901        86.0941 

                    ********************************
                    * MULLIKEN POPULATION ANALYSIS *
                    ********************************

-----------------------
MULLIKEN ATOMIC CHARGES
-----------------------
   0 C :    0.002489
   1 C :   -0.034905
   2 C :    0.002494
   3 C :   -0.188642
   4 C :    0.039448
   5 C :   -0.188639
   6 C :    0.012194
   7 C :    0.012193
   8 H :    0.017528
   9 H :    0.019616
  10 H :    0.011634
  11 H :    0.021741
  12 H :    0.021477
  13 H :    0.023610
  14 H :    0.011635
  15 H :    0.019616
  16 H :    0.017527
  17 H :    0.028050
  18 H :    0.026365
  19 H :    0.026708
  20 H :    0.016738
  21 H :    0.026365
  22 H :    0.028049
  23 H :    0.026710
Sum of atomic charges:   -0.0000000

--------------------------------
MULLIKEN REDUCED ORBITAL CHARGES
--------------------------------
  0 C s       :     3.050503  s :     3.050503
      pz      :     0.967458  p :     2.865924
      px      :     0.955935
      py      :     0.942531
      dz2     :     0.011428  d :     0.081084
      dxz     :     0.017511
      dyz     :     0.018368
      dx2y2   :     0.021733
      dxy     :     0.012044
  1 C s       :     3.062467  s :     3.062467
      pz      :     0.983836  p :     2.889582
      px      :     0.939803
      py      :     0.965943
      dz2     :     0.016607  d :     0.082855
      dxz     :     0.020541
      dyz     :     0.012106
      dx2y2   :     0.023874
      dxy     :     0.009727
  2 C s       :     3.050500  s :     3.050500
      pz      :     0.967455  p :     2.865921
      px      :     0.955936
      py      :     0.942530
      dz2     :     0.011429  d :     0.081085
      dxz     :     0.017511
      dyz     :     0.018368
      dx2y2   :     0.021733
      dxy     :     0.012044
  3 C s       :     3.151849  s :     3.151849
      pz      :     0.988887  p :     2.932884
      px      :     0.969866
      py      :     0.974130
      dz2     :     0.015247  d :     0.103909
      dxz     :     0.026697
      dyz     :     0.021649
      dx2y2   :     0.026404
      dxy     :     0.013912
  4 C s       :     3.034148  s :     3.034148
      pz      :     0.962224  p :     2.847110
      px      :     0.927627
      py      :     0.957259
      dz2     :     0.015752  d :     0.079293
      dxz     :     0.017781
      dyz     :     0.009990
      dx2y2   :     0.025692
      dxy     :     0.010078
  5 C s       :     3.151852  s :     3.151852
      pz      :     0.988886  p :     2.932879
      px      :     0.969864
      py      :     0.974129
      dz2     :     0.015246  d :     0.103909
      dxz     :     0.026698
      dyz     :     0.021649
      dx2y2   :     0.026404
      dxy     :     0.013912
  6 C s       :     3.016228  s :     3.016228
      pz      :     0.965845  p :     2.910727
      px      :     0.981871
      py      :     0.963011
      dz2     :     0.012860  d :     0.060851
      dxz     :     0.016153
      dyz     :     0.011257
      dx2y2   :     0.016899
      dxy     :     0.003682
  7 C s       :     3.016228  s :     3.016228
      pz      :     0.965843  p :     2.910727
      px      :     0.981873
      py      :     0.963011
      dz2     :     0.012861  d :     0.060852
      dxz     :     0.016152
      dyz     :     0.011257
      dx2y2   :     0.016899
      dxy     :     0.003682
  8 H s       :     0.953314  s :     0.953314
      pz      :     0.009011  p :     0.029158
      px      :     0.015026
      py      :     0.005121
  9 H s       :     0.951693  s :     0.951693
      pz      :     0.015750  p :     0.028692
      px      :     0.004291
      py      :     0.008650
 10 H s       :     0.960841  s :     0.960841
      pz      :     0.011367  p :     0.027525
      px      :     0.012437
      py      :     0.003721
 11 H s       :     0.949547  s :     0.949547
      pz      :     0.017521  p :     0.028712
      px      :     0.003743
      py      :     0.007448
 12 H s       :     0.949492  s :     0.949492
      pz      :     0.017035  p :     0.029032
      px      :     0.003816
      py      :     0.008180
 13 H s       :     0.947159  s :     0.947159
      pz      :     0.005230  p :     0.029231
      px      :     0.003903
      py      :     0.020098
 14 H s       :     0.960839  s :     0.960839
      pz      :     0.011367  p :     0.027525
      px      :     0.012437
      py      :     0.003721
 15 H s       :     0.951692  s :     0.951692
      pz      :     0.015750  p :     0.028692
      px      :     0.004292
      py      :     0.008650
 16 H s       :     0.953314  s :     0.953314
      pz      :     0.009012  p :     0.029159
      px      :     0.015025
      py      :     0.005121
 17 H s       :     0.941822  s :     0.941822
      pz      :     0.006117  p :     0.030128
      px      :     0.018496
      py      :     0.005514
 18 H s       :     0.943388  s :     0.943388
      pz      :     0.005448  p :     0.030248
      px      :     0.005191
      py      :     0.019608
 19 H s       :     0.942655  s :     0.942655
      pz      :     0.014508  p :     0.030637
      px      :     0.010897
      py      :     0.005231
 20 H s       :     0.954246  s :     0.954246
      pz      :     0.004956  p :     0.029015
      px      :     0.003760
      py      :     0.020300
 21 H s       :     0.943387  s :     0.943387
      pz      :     0.005448  p :     0.030248
      px      :     0.005191
      py      :     0.019608
 22 H s       :     0.941823  s :     0.941823
      pz      :     0.006117  p :     0.030128
      px      :     0.018496
      py      :     0.005514
 23 H s       :     0.942654  s :     0.942654
      pz      :     0.014509  p :     0.030636
      px      :     0.010897
      py      :     0.005231


                     *******************************
                     * LOEWDIN POPULATION ANALYSIS *
                     *******************************

----------------------
LOEWDIN ATOMIC CHARGES
----------------------
   0 C :   -0.026294
   1 C :   -0.034067
   2 C :   -0.026296
   3 C :   -0.040886
   4 C :   -0.021879
   5 C :   -0.040886
   6 C :   -0.047752
   7 C :   -0.047752
   8 H :    0.016857
   9 H :    0.016515
  10 H :    0.019928
  11 H :    0.019341
  12 H :    0.013419
  13 H :    0.020085
  14 H :    0.019928
  15 H :    0.016515
  16 H :    0.016855
  17 H :    0.020530
  18 H :    0.020057
  19 H :    0.014855
  20 H :    0.015484
  21 H :    0.020056
  22 H :    0.020530
  23 H :    0.014857

-------------------------------
LOEWDIN REDUCED ORBITAL CHARGES
-------------------------------
  0 C s       :     2.793859  s :     2.793859
      pz      :     1.023218  p :     3.028516
      px      :     1.007288
      py      :     0.998010
      dz2     :     0.028171  d :     0.203919
      dxz     :     0.043657
      dyz     :     0.047612
      dx2y2   :     0.055004
      dxy     :     0.029476
  1 C s       :     2.790806  s :     2.790806
      pz      :     1.018391  p :     3.038504
      px      :     0.995638
      py      :     1.024475
      dz2     :     0.041991  d :     0.204757
      dxz     :     0.047340
      dyz     :     0.031576
      dx2y2   :     0.059684
      dxy     :     0.024166
  2 C s       :     2.793856  s :     2.793856
      pz      :     1.023215  p :     3.028516
      px      :     1.007287
      py      :     0.998014
      dz2     :     0.028174  d :     0.203924
      dxz     :     0.043656
      dyz     :     0.047612
      dx2y2   :     0.055005
      dxy     :     0.029477
  3 C s       :     2.793882  s :     2.793882
      pz      :     1.007684  p :     3.005337
      px      :     1.002135
      py      :     0.995518
      dz2     :     0.033894  d :     0.241667
      dxz     :     0.065172
      dyz     :     0.049140
      dx2y2   :     0.061282
      dxy     :     0.032179
  4 C s       :     2.796194  s :     2.796194
      pz      :     1.012902  p :     3.024466
      px      :     0.989869
      py      :     1.021696
      dz2     :     0.042601  d :     0.201219
      dxz     :     0.042824
      dyz     :     0.025858
      dx2y2   :     0.064391
      dxy     :     0.025545
  5 C s       :     2.793883  s :     2.793883
      pz      :     1.007686  p :     3.005337
      px      :     1.002137
      py      :     0.995514
      dz2     :     0.033894  d :     0.241666
      dxz     :     0.065173
      dyz     :     0.049139
      dx2y2   :     0.061282
      dxy     :     0.032178
  6 C s       :     2.797128  s :     2.797128
      pz      :     1.023244  p :     3.088348
      px      :     1.038860
      py      :     1.026244
      dz2     :     0.033010  d :     0.162275
      dxz     :     0.043468
      dyz     :     0.028133
      dx2y2   :     0.048173
      dxy     :     0.009492
  7 C s       :     2.797128  s :     2.797128
      pz      :     1.023243  p :     3.088347
      px      :     1.038860
      py      :     1.026245
      dz2     :     0.033013  d :     0.162277
      dxz     :     0.043465
      dyz     :     0.028133
      dx2y2   :     0.048173
      dxy     :     0.009492
  8 H s       :     0.904749  s :     0.904749
      pz      :     0.023886  p :     0.078395
      px      :     0.036539
      py      :     0.017969
  9 H s       :     0.905466  s :     0.905466
      pz      :     0.037281  p :     0.078019
      px      :     0.015629
      py      :     0.025109
 10 H s       :     0.901418  s :     0.901418
      pz      :     0.029874  p :     0.078655
      px      :     0.031864
      py      :     0.016917
 11 H s       :     0.902350  s :     0.902350
      pz      :     0.041407  p :     0.078309
      px      :     0.016219
      py      :     0.020683
 12 H s       :     0.907376  s :     0.907376
      pz      :     0.040353  p :     0.079204
      px      :     0.016528
      py      :     0.022323
 13 H s       :     0.901461  s :     0.901461
      pz      :     0.017000  p :     0.078453
      px      :     0.016339
      py      :     0.045114
 14 H s       :     0.901418  s :     0.901418
      pz      :     0.029874  p :     0.078654
      px      :     0.031864
      py      :     0.016916
 15 H s       :     0.905466  s :     0.905466
      pz      :     0.037280  p :     0.078019
      px      :     0.015629
      py      :     0.025110
 16 H s       :     0.904749  s :     0.904749
      pz      :     0.023888  p :     0.078396
      px      :     0.036539
      py      :     0.017969
 17 H s       :     0.901539  s :     0.901539
      pz      :     0.018686  p :     0.077931
      px      :     0.042360
      py      :     0.016884
 18 H s       :     0.901870  s :     0.901870
      pz      :     0.017447  p :     0.078072
      px      :     0.015484
      py      :     0.045142
 19 H s       :     0.904792  s :     0.904792
      pz      :     0.036079  p :     0.080353
      px      :     0.027789
      py      :     0.016485
 20 H s       :     0.905923  s :     0.905923
      pz      :     0.016435  p :     0.078592
      px      :     0.016154
      py      :     0.046004
 21 H s       :     0.901871  s :     0.901871
      pz      :     0.017447  p :     0.078073
      px      :     0.015484
      py      :     0.045142
 22 H s       :     0.901539  s :     0.901539
      pz      :     0.018686  p :     0.077931
      px      :     0.042361
      py      :     0.016884
 23 H s       :     0.904791  s :     0.904791
      pz      :     0.036080  p :     0.080351
      px      :     0.027788
      py      :     0.016484


                      *****************************
                      * MAYER POPULATION ANALYSIS *
                      *****************************

  NA   - Mulliken gross atomic population
  ZA   - Total nuclear charge
  QA   - Mulliken gross atomic charge
  VA   - Mayer's total valence
  BVA  - Mayer's bonded valence
  FA   - Mayer's free valence

  ATOM       NA         ZA         QA         VA         BVA        FA
  0 C      5.9975     6.0000     0.0025     3.9598     3.9598     0.0000
  1 C      6.0349     6.0000    -0.0349     3.9818     3.9818     0.0000
  2 C      5.9975     6.0000     0.0025     3.9598     3.9598    -0.0000
  3 C      6.1886     6.0000    -0.1886     4.0628     4.0628    -0.0000
  4 C      5.9606     6.0000     0.0394     3.9232     3.9232     0.0000
  5 C      6.1886     6.0000    -0.1886     4.0628     4.0628     0.0000
  6 C      5.9878     6.0000     0.0122     3.9318     3.9318     0.0000
  7 C      5.9878     6.0000     0.0122     3.9318     3.9318     0.0000
  8 H      0.9825     1.0000     0.0175     0.9740     0.9740    -0.0000
  9 H      0.9804     1.0000     0.0196     0.9675     0.9675    -0.0000
 10 H      0.9884     1.0000     0.0116     0.9621     0.9621    -0.0000
 11 H      0.9783     1.0000     0.0217     0.9658     0.9658     0.0000
 12 H      0.9785     1.0000     0.0215     0.9676     0.9676     0.0000
 13 H      0.9764     1.0000     0.0236     0.9696     0.9696     0.0000
 14 H      0.9884     1.0000     0.0116     0.9621     0.9621     0.0000
 15 H      0.9804     1.0000     0.0196     0.9675     0.9675     0.0000
 16 H      0.9825     1.0000     0.0175     0.9740     0.9740     0.0000
 17 H      0.9720     1.0000     0.0280     0.9748     0.9748    -0.0000
 18 H      0.9736     1.0000     0.0264     0.9775     0.9775    -0.0000
 19 H      0.9733     1.0000     0.0267     0.9774     0.9774     0.0000
 20 H      0.9833     1.0000     0.0167     0.9756     0.9756    -0.0000
 21 H      0.9736     1.0000     0.0264     0.9775     0.9775     0.0000
 22 H      0.9720     1.0000     0.0280     0.9748     0.9748    -0.0000
 23 H      0.9733     1.0000     0.0267     0.9774     0.9774     0.0000

  Mayer bond orders larger than 0.1
B(  0-C ,  1-C ) :   1.0381 B(  0-C ,  5-C ) :   1.0355 B(  0-C , 15-H ) :   0.9654 
B(  0-C , 16-H ) :   0.9706 B(  1-C ,  2-C ) :   1.0381 B(  1-C , 12-H ) :   0.9658 
B(  1-C , 13-H ) :   0.9729 B(  2-C ,  3-C ) :   1.0355 B(  2-C ,  8-H ) :   0.9706 
B(  2-C ,  9-H ) :   0.9654 B(  3-C ,  4-C ) :   1.0314 B(  3-C ,  6-C ) :   1.0376 
B(  3-C , 10-H ) :   0.9610 B(  4-C ,  5-C ) :   1.0314 B(  4-C , 11-H ) :   0.9647 
B(  4-C , 20-H ) :   0.9667 B(  5-C ,  7-C ) :   1.0376 B(  5-C , 14-H ) :   0.9610 
B(  6-C , 17-H ) :   0.9801 B(  6-C , 18-H ) :   0.9812 B(  6-C , 19-H ) :   0.9777 
B(  7-C , 21-H ) :   0.9812 B(  7-C , 22-H ) :   0.9801 B(  7-C , 23-H ) :   0.9777 


-------
TIMINGS
-------

Total SCF time: 0 days 0 hours 0 min 7 sec 

Total time                  ....       7.661 sec
Sum of individual times     ....       7.483 sec  ( 97.7%)

Fock matrix formation       ....       7.374 sec  ( 96.2%)
Diagonalization             ....       0.017 sec  (  0.2%)
Density matrix formation    ....       0.002 sec  (  0.0%)
Population analysis         ....       0.010 sec  (  0.1%)
Initial guess               ....       0.073 sec  (  1.0%)
Orbital Transformation      ....       0.000 sec  (  0.0%)
Orbital Orthonormalization  ....       0.000 sec  (  0.0%)
DIIS solution               ....       0.000 sec  (  0.0%)
SOSCF solution              ....       0.007 sec  (  0.1%)


           ************************************************************
           *        Program running with 4 parallel MPI-processes     *
           *              working on a common directory               *
           ************************************************************


------------------------------------------------------------------------------- 
                              ORCA-MATRIX DRIVEN CI                            
------------------------------------------------------------------------------- 


Wavefunction type
-----------------
Correlation treatment                      ...      CCSD     
Single excitations                         ... ON
Orbital optimization                       ... OFF
Calculation of Z vector                    ... OFF
Calculation of Brueckner orbitals          ... OFF
Perturbative triple excitations            ... ON
Calculation of F12 correction              ... OFF
Frozen core treatment                      ... chemical core (16 el)
Reference Wavefunction                     ... RHF
  Internal Orbitals:     8 ...   31 ( 24 MO's/ 48 electrons)
  Virtual  Orbitals:    32 ...  191 (160 MO's              )
Number of AO's                             ...    192
Number of electrons                        ...     64
Number of correlated electrons             ...     48

Algorithmic settings
--------------------
Integral transformation                    ... All integrals via the RI transformation
K(C) Formation                             ... RI-DLPNO
   PNO-Integral Storage                    ... ON DISK
   PNO occupation number cut-off           ... 1.000e-07
   Singles PNO occupation number cut-off   ... 3.000e-09
   PNO Mulliken prescreening cut-off       ... 1.000e-03
   Domain cut-off (Mulliken population)    ... 1.000e-03
   PNO Normalization                       ...    1
Maximum number of iterations               ...        50
Convergence tolerance (max. residuum)      ... 1.000e-05
Level shift for amplitude update           ... 2.000e-01
Maximum number of DIIS vectors             ...         7
DIIS turned on at iteration                ...         0
Damping before turning on DIIS             ...     0.500
Damping after turning on DIIS              ...     0.000
Pair specific amplitude update             ... OFF
Natural orbital iterations                 ... OFF
Perturbative natural orbital generation    ... OFF
Printlevel                                 ... 2

Singles Fock matrix elements calculated using PNOs.

Memory handling:
----------------
Maximum memory for working arrays          ...   8000 MB
Data storage in matrix containers          ... UNCOMPRESSED
Data type for integral storage             ... DOUBLE
In-Core Storage of quantities:
   Amplitudes+Sigma Vector      ... NO
   J+K operators                ... NO
   DIIS vectors                 ... NO
   3-external integrals         ... NO
   4-external integrals         ... NO

Localization treatment:
-----------------------
Localization option                        ...    6
Localization threshhold                    ... -1.0e+00
Using relative localization threshhold     ... 1.0e-08
Neglect threshold for strong pairs         ... 1.000e-05 Eh
Prescreening threshold for very weak pairs ... 1.000e-07 Eh

Initializing the integral package          ... done
Localizing the valence orbitals
------------------------------------------------------------------------------
                           ORCA ORBITAL LOCALIZATION
------------------------------------------------------------------------------

Input orbitals are from                  ... cis_1_3_dimethylcyclohex_ax_ax.proc0.gbw
Output orbitals are to                   ... cis_1_3_dimethylcyclohex_ax_ax.proc0.loc
Max. number of iterations                ... 128
Localizations seeded randomly            ... off
Convergence tolerance                    ... 1.000e-06
Using relative localization threshhold   ... 1.000e-08
Treshold for strong local MOs            ... 9.500e-01
Treshold for bond MOs                    ... 8.500e-01
Operator                                 ... 0
Orbital range for localization           ... 8 to 31
Localization criterion                   ... FOSTER-BOYS (AUGMENTED HESSIAN)
Doing the dipole integrals     ... o.k.
Initial value of the localization sum :   339.969489
ITERATION   0 : L=  359.3502745964 DL=  1.94e+01 (AVERGE_DL)=    0.2649910144 
ITERATION   1 : L=  363.2884815059 DL=  3.94e+00 (AVERGE_DL)=    0.1194523571 
ITERATION   2 : L=  363.4199052271 DL=  1.31e-01 (AVERGE_DL)=    0.0218213864 
ITERATION   3 : L=  363.4206429394 DL=  7.38e-04 (AVERGE_DL)=    0.0016348917 
ITERATION   4 : L=  363.4206455577 DL=  2.62e-06 (AVERGE_DL)=    0.0000973999 
ITERATION   5 : L=  363.4206455636 DL=  5.90e-09 (AVERGE_DL)=    0.0000046237 
LOCALIZATION SUM CONVERGED

------------------------------------------------------
AUGMENTED HESSIAN OPTIMIZATION OF FOSTER-BOYS ORBITALS
------------------------------------------------------

Spin operator:           0
Orbital window:          8 to 31
Number of iterations:    128
Gradient tolerance:      1.000e-06
Number of pairs:         276
Davidson threshold:      2000
Diagonalization method:  LAPACK
Iter:    0   L: 363.4206455636   Grad. norm: 1.309315e-03
   *** Likely close to a maximum now. ***
       Augmented Hessian eigenvalues:  1.02e-08 -1.74e+01 -1.74e+01 -1.79e+01 ... 
Iter:    1   L: 363.4206455687   Grad. norm: 1.979953e-10
LOCALIZATION HAS CONVERGED.

Eigenvalues of the Hessian:
  0 -1.737e+01
  1 -1.737e+01
  2 -1.787e+01
  3 -1.800e+01
  4 -1.805e+01
  5 -1.811e+01
  6 -1.817e+01
  7 -1.818e+01
  8 -1.831e+01
  9 -1.832e+01
    ...


------------------------------------------------------------------------------- 
                    LOCALIZED MOLECULAR ORBITAL COMPOSITIONS                   
------------------------------------------------------------------------------- 

The Mulliken populations for each LMO on each atom are computed
The LMO`s will be ordered according to atom index and type
  (A) Strongly localized MO`s have populations of >=0.950 on one atom
  (B) Two center bond orbitals have populations of >=0.850 on two atoms
  (C) Other MO`s are considered to be `delocalized`

FOUND  -   0 strongly local MO`s
       -  24 two center bond MO`s
       -   0 significantly delocalized MO`s

Bond-like localized orbitals:
MO  31:  23H  -   0.504166  and   7C  -   0.509075
MO  30:  22H  -   0.503814  and   7C  -   0.507264
MO  29:  21H  -   0.503750  and   7C  -   0.507842
MO  28:  20H  -   0.509218  and   4C  -   0.500227
MO  27:  19H  -   0.504167  and   6C  -   0.509074
MO  26:  18H  -   0.503750  and   6C  -   0.507842
MO  25:  17H  -   0.503813  and   6C  -   0.507264
MO  24:  16H  -   0.509132  and   0C  -   0.501818
MO  23:  15H  -   0.511034  and   0C  -   0.500520
MO  22:  14H  -   0.515929  and   5C  -   0.495937
MO  21:  13H  -   0.507260  and   1C  -   0.503550
MO  20:  12H  -   0.509927  and   1C  -   0.503469
MO  19:  11H  -   0.510677  and   4C  -   0.499178
MO  18:  10H  -   0.515931  and   3C  -   0.495935
MO  17:   9H  -   0.511034  and   2C  -   0.500520
MO  16:   8H  -   0.509132  and   2C  -   0.501818
MO  15:   7C  -   0.505078  and   5C  -   0.540906
MO  14:   6C  -   0.505078  and   3C  -   0.540906
MO  13:   5C  -   0.535091  and   4C  -   0.517346
MO  12:   5C  -   0.537306  and   0C  -   0.516420
MO  11:   4C  -   0.517345  and   3C  -   0.535092
MO  10:   3C  -   0.537306  and   2C  -   0.516418
MO   9:   2C  -   0.522280  and   1C  -   0.522878
MO   8:   1C  -   0.522877  and   0C  -   0.522281
Localized MO's were stored in: cis_1_3_dimethylcyclohex_ax_ax.proc0.loc

Localizing the core orbitals
------------------------------------------------------------------------------
                           ORCA ORBITAL LOCALIZATION
------------------------------------------------------------------------------

Input orbitals are from                  ... cis_1_3_dimethylcyclohex_ax_ax.proc0.loc
Output orbitals are to                   ... cis_1_3_dimethylcyclohex_ax_ax.proc0.loc
Max. number of iterations                ... 128
Localizations seeded randomly            ... off
Convergence tolerance                    ... 1.000e-06
Using relative localization threshhold   ... 1.000e-08
Treshold for strong local MOs            ... 9.500e-01
Treshold for bond MOs                    ... 8.500e-01
Operator                                 ... 0
Orbital range for localization           ... 0 to 7
Localization criterion                   ... FOSTER-BOYS (AUGMENTED HESSIAN)
Doing the dipole integrals     ... o.k.
Initial value of the localization sum :    88.632783
ITERATION   0 : L=   88.6328057777 DL=  2.24e-05 (AVERGE_DL)=    0.0008942176 
ITERATION   1 : L=   88.6328057777 DL=  0.00e+00 (AVERGE_DL)=    0.0000000000 
LOCALIZATION SUM CONVERGED

------------------------------------------------------
AUGMENTED HESSIAN OPTIMIZATION OF FOSTER-BOYS ORBITALS
------------------------------------------------------

Spin operator:           0
Orbital window:          0 to 7
Number of iterations:    128
Gradient tolerance:      1.000e-06
Number of pairs:         28
Davidson threshold:      2000
Diagonalization method:  LAPACK
Iter:    0   L: 88.6328057777   Grad. norm: 5.699256e-06
   *** Likely close to a maximum now. ***
       Augmented Hessian eigenvalues:  2.91e-13 -3.38e+01 -3.38e+01 -3.38e+01 ... 
Iter:    1   L: 88.6328057777   Grad. norm: 1.560027e-15
LOCALIZATION HAS CONVERGED.

Eigenvalues of the Hessian:
  0 -3.378e+01
  1 -3.378e+01
  2 -3.385e+01
  3 -3.385e+01
  4 -3.411e+01
  5 -3.411e+01
  6 -3.429e+01
  7 -3.429e+01
  8 -9.178e+01
  9 -9.198e+01
    ...


------------------------------------------------------------------------------- 
                    LOCALIZED MOLECULAR ORBITAL COMPOSITIONS                   
------------------------------------------------------------------------------- 

The Mulliken populations for each LMO on each atom are computed
The LMO`s will be ordered according to atom index and type
  (A) Strongly localized MO`s have populations of >=0.950 on one atom
  (B) Two center bond orbitals have populations of >=0.850 on two atoms
  (C) Other MO`s are considered to be `delocalized`

FOUND  -   8 strongly local MO`s
       -   0 two center bond MO`s
       -   0 significantly delocalized MO`s

Rather strongly localized orbitals:
MO   7:   7C  -   0.999566
MO   6:   6C  -   0.999566
MO   5:   5C  -   0.998935
MO   4:   4C  -   0.999275
MO   3:   3C  -   0.998935
MO   2:   2C  -   0.999269
MO   1:   1C  -   0.999219
MO   0:   0C  -   0.999269
Localized MO's were stored in: cis_1_3_dimethylcyclohex_ax_ax.proc0.loc

Warning: internal orbitals are localized - no re-canonicalization of internal orbitals

--------------------------
CLOSED-SHELL FOCK OPERATOR
--------------------------

RI-JK section for the Fock operator:
  RHF full Fock operator         ... done
  RHF frozen core Fock operator  ... done
Time needed for Fock operator              ...            2.359 sec
Reference energy                           ...   -312.289823893

--------------
DLPNO SETTINGS (2015 fully linear scaling implementation)
--------------

TCutMKN:           1.000e-03
TCutPAO:           1.000e-03
TCutPNO:           1.000e-07
TCutPNOSingles:    3.000e-09
TCutEN:            9.700e-01
TCutPAOExt:        1.000e-01
TCutPairs:         1.000e-05
TCutPre:           1.000e-07
TCutOSV:           1.000e-06
TCutDOij:          1.000e-05
TCutDO:            5.000e-03
TCutC:             1.000e-04
TCutCPAO:          1.000e-03
TCutCMO:           1.000e-03
TScaleDOMP2PreScr: 2.000e+00
TScaleMKNMP2PreScr:1.000e+01
TScalePNOMP2PreScr:1.000e+00
PAO overlap thresh 1.000e-08
Using PNOs for Singles Fock computation
Use new domains
Use fully linear algorithm
TCutTNO:           1.000e-09
TCutMP2Pairs:      1.000e-06
TCutDOStrong:      2.000e-03
TCutMKNStrong:     1.000e-02
TCutMKNWeak:       1.000e-01
TCutDOWeak:        4.000e-03
NTCutTNO:          1

--------------------------
Calculating differential overlap integrals ... ok
--------------------------
ELECTRON PAIR PRESCREENING
--------------------------

Dipole-based pair screening          .... used

   TCutDOij = 1.000000e-05
   TCutPre  = 1.000000e-07
   .... Finished loop over pairs
Total time spent in the prescreening                  ...     0.000 sec
sum of pair energies estimated for screened out pairs ...       0.000000000000 Eh
Thresholds for map construction and integral transformation for crude MP2:
   TCutMKN                    ...     1.0e-02
   TCutDO                     ...     1.0e-02
   TCutPairs                  ...     1.0e-05
   TCutPNO_CrudeMP2           ...     1.0e-07
   TCutPNOSingles_CrudeMP2    ...     3.0e-09
--------------------------------
LOCAL RI TRANSFORMATION (IAVPAO)
--------------------------------

Orbital window:       8 to 31
Number of PAOs:     192
Basis functions:    192 (96 shells)
Aux. functions:     672 (240 shells)

Processing maps (0.0 sec)
Average map sizes:
   Aux shells -> MOs              24.0
   Aux shells -> PAOs            192.0
   MOs        -> AO shells        91.6
   PAOs       -> AO shells        95.5

Calculating integrals (0.5 sec, 23.633 MB)
Sorting integrals (0.0 sec, 23.625 MB)
Total time for the integral transformation: 0.6 sec
--------------------------------
INITIAL GUESS AND PNO GENERATION
--------------------------------

PNO truncation parameters                   .... 
    PAOOverlapThresh   =        1.000e-08

    TCutPairs          =        1.000e-05
    TCutPNO            =        1.000e-07
    TCutPNOSingles     =        3.000e-09
    TCutMP2Pairs       =        1.000e-06
    TCutMKN            =        1.000e-02
    TCutDO             =        1.000e-02

Pair selection                          .... not used
Type of local MP2 treatment                 .... semi-local MP2
Strategy for PNO selection                  .... occupation number selection
Pair density normalization                  .... MP2 norm
Spin component scaling                      .... not used

   .... Finished loop over pairs
Making pair pair interaction lists          ... done

                       ===========================
                        300 OF  300 PAIRS ARE KEPT CCSD PAIRS
                          0 OF  300 PAIRS ARE KEPT MP2 PAIRS FOR (T)
                          0 OF  300 PAIRS ARE SKIPPED
                       ===========================

Total time spent in the initial guess                 ...     1.356 sec
SL-MP2 correlation energy (all non-screened pairs)    ...      -1.115499134298 Eh

Initial PNO correlation energy                        ...      -1.114840553840 Eh
sum of pair energies prescreened and skipped MP2 pairs...       0.000000000000 Eh
sum of pair energies of crude MP2 skipped pairs only  ...       0.000000000000 Eh
sum of MP2 pair energies for pairs that were not kept ...       0.000000000000 Eh
sum of PNO error estimates for the kept pairs         ...      -0.000658580458 Eh
                                                          --------------------
sum of all corrections                                         -0.000658580458
Initial total correlation energy                               -1.115499134298
Thresholds for map construction and integral transformation for fine MP2 and CCSD(T) calculation:
   TCutMKN   ...     1.0e-03
   TCutDO    ...     5.0e-03
   TCutPairs ...     1.0e-05
   TCutCMO   ...     1.0e-03
   TCutCPAO  ...     1.0e-03

Thresholds for map construction and integral transformation for strong Triples:
   TCutMKN   ...     1.0e-02
   TCutDO    ...     1.0e-02
   TCutCMO   ...     1.0e-03
   TCutCPAO  ...     1.0e-03

Thresholds for map construction and integral transformation for weak Triples:
   TCutMKN   ...     1.0e-01
   TCutDO    ...     2.0e-02
   TCutCMO   ...     1.0e-03
   TCutCPAO  ...     1.0e-03

--------------------------------
LOCAL RI TRANSFORMATION (IAVPAO)
--------------------------------

Orbital window:       8 to 31
Number of PAOs:     192
Basis functions:    192 (96 shells)
Aux. functions:     672 (240 shells)

Processing maps (0.0 sec)
Average map sizes:
   Aux shells -> MOs              24.0
   Aux shells -> PAOs            192.0
   MOs        -> AO shells        91.6
   PAOs       -> AO shells        95.5

Calculating integrals (0.6 sec, 23.633 MB)
Sorting integrals (0.0 sec, 23.625 MB)
Total time for the integral transformation: 0.6 sec
--------------------------------
INITIAL GUESS AND PNO GENERATION
--------------------------------

PNO truncation parameters                   .... 
    ScaleTCutPNO       =        1.000e-02
    PAOOverlapThresh   =        1.000e-08

    TCutPairs          =        1.000e-05
    TCutPNO            =        1.000e-07
    TCutPNOSingles     =        3.000e-09
    TCutMP2Pairs       =        1.000e-06
    TCutMKN            =        1.000e-03
    TCutDO             =        5.000e-03

Pair selection                          .... not used
Type of local MP2 treatment                 .... full local PMP2
Strategy for PNO selection                  .... occupation number selection
Pair density normalization                  .... MP2 norm
Spin component scaling                      .... not used

PASS-1: Formation of initial guess LMP2 amplitudes
Initial amplitudes guess done. Entering LMP2 iteration loop:
   Max. no of iterations          ...  50
   Energy convergence tolerance   ...    1.0e-07
   Residual convergence tolerance ...    5.0e-07
   Fock matrix cutoff             ...    1.0e-05 Eh
   DIIS convergence acceleration parameters:
        Max # vectors in DIIS     ... 7
        Start iteration of DIIS   ... 0
        Levelshift                ... 2.000e-01
        Damping factor 1          ... 5.000e-01
        Damping factor 2          ... 1.000e+00
   L-MP2 PNO cut-off              ...   1.0e-09
   L-MP2 PNO cut-off (core)       ...   1.0e-11
                           *** Turning on DIIS ***
LMP2-Iter=   0:  ELMP2= -1.138150868007  DE=   2.2e-02 RMAX=   3.4e-03
LMP2-Iter=   1:  ELMP2= -1.149244386456  DE=   1.1e-02 RMAX=   1.4e-03
LMP2-Iter=   2:  ELMP2= -1.150862291569  DE=   1.6e-03 RMAX=   1.6e-04
LMP2-Iter=   3:  ELMP2= -1.150976841943  DE=   1.1e-04 RMAX=   5.3e-05
LMP2-Iter=   4:  ELMP2= -1.150978622755  DE=   1.8e-06 RMAX=   6.0e-06
LMP2-Iter=   5:  ELMP2= -1.150977535453  DE=   1.1e-06 RMAX=   1.9e-06
LMP2-Iter=   6:  ELMP2= -1.150977457081  DE=   7.8e-08 RMAX=   2.1e-07
LMP2-Iter=   7:  ELMP2= -1.150977454047  DE=   3.0e-09 RMAX=   6.8e-08 => CONVERGED
PASS-2: Formation of Pair natural orbitals
   .... Finished loop over pairs

 PNO Occupation Number Statistics: 
  | Av. % of trace(Dij) retained        ...  99.535993068175
  | sigma^2 in % of trace(Dij) retained ...   3.21e-01
  | Av. % of trace(Di) retained         ...  99.999856858353
  | sigma^2 in % of trace(Di) retained  ...   1.98e-09
 Distributions of % trace(Dij) recovered:
  |       >= 99.9  ...   118 ( 39.3 % of all pairs)
  |   [90.0, 99.0) ...    53 ( 17.7 % of all pairs)
  |   [99.0, 99.9) ...   129 ( 43.0 % of all pairs)
 Distributions of % trace(Di) recovered :
  |       >= 99.9  ...    24 (100.0 % of all I-pairs )

Making pair pair interaction lists          ... done

                       ===========================
                        300 OF  300 PAIRS ARE KEPT
                       ===========================

Total time spent in the initial guess                 ...     9.832 sec
L-MP2 correlation energy (all non-screened pairs)     ...      -1.150977454047 Eh
L-MP2 PNO error correction                            ...      -0.000012060246 Eh
                                                          --------------------
Initial total L-MP2 energy (non-screened pairs)       ...      -1.150989514293 Eh

Initial PNO correlation energy                        ...      -1.150401285981 Eh
sum of pair energies estimated for screened out pairs ...       0.000000000000 Eh
sum of MP2 pair energies for pairs that were not kept ...       0.000000000000 Eh
sum of PNO error estimates for the kept pairs         ...      -0.000588228312 Eh
                                                          --------------------
sum of all corrections                                         -0.000588228312
Initial total correlation energy                               -1.150989514293
Thresholds for map construction and integral transformation for fine MP2 and CCSD(T) calculation:
   TCutMKN   ...     1.0e-03
   TCutDO    ...     5.0e-03
   TCutPairs ...     1.0e-05
   TCutCMO   ...     1.0e-03
   TCutCPAO  ...     1.0e-03

Time for aux screen maps:            0.005
Time for maps after fine MP2:            0.016
-----------------------------
LOCAL RI TRANSFORMATION (IJV)
-----------------------------

Orbital window:       8 to 31
Basis functions:    192 (96 shells)
Aux. functions:     672 (240 shells)

Processing maps (0.0 sec)
Average map sizes:
   Aux shells -> MOs(i)           24.0
   Aux shells -> MOs(j)           24.0
   MOs        -> AO shells        91.6

Calculating integrals (0.6 sec, 2.961 MB)
Sorting integrals (0.0 sec, 2.953 MB)
Total time for the integral transformation: 0.6 sec
--------------------------------
LOCAL RI TRANSFORMATION (VABPAO)
--------------------------------

Number of PAOs:     192
Basis functions:    192 (96 shells)
Aux. functions:     672 (240 shells)

Processing maps (0.0 sec)
Average map sizes:
   Aux shells -> PAOs            192.0
   PAOs       -> AO shells        95.5

Calculating integrals (0.9 sec, 336.389 MB)
Finished


-------------------------------------
Pair Pair Term precalculation with     
RI-(ij|mn) and (im|jn) transformation  
ON THE FLY                             
-------------------------------------

   IBatch   1 (of   2)              ... done (   42.165 sec)
   IBatch   2 (of   2)              ... done (    3.941 sec)
Total EXT                           ...          46.105 sec

---------------------
RI-PNO TRANSFORMATION
---------------------

Total Number of PNOs                   ...  8052
Average number of PNOs per pair        ...    26
Maximal number of PNOs per pair        ...    46
   #pairs with  1 -  5 PNOs   :    0
   #pairs with  6 - 10 PNOs   :   27
   #pairs with 11 - 15 PNOs   :   30
   #pairs with 16 - 20 PNOs   :   24
   #pairs with 21 - 25 PNOs   :   60
   #pairs with 26 - 30 PNOs   :   29
   #pairs with 31 - 35 PNOs   :   56
   #pairs with 36 - 40 PNOs   :   64
   #pairs with 41 - 45 PNOs   :    9
   #pairs with 46 - 50 PNOs   :    1

Generation of (ij|ab)[P] integrals            ... on
Generation of (ia|bc)[P],(ja|bc)[P] integrals ... on
Storage of 3 and 4 external integrals         ... on
Generation of ALL (ka|bc)[P] integrals        ... on
Keep RI integrals in memory                   ... off

Ibatch:  1 (of  1)
Starting 2-4 index PNO integral generation ... done

Timings:
Total PNO integral transformation time     ...         12.586 sec
Size of the 3-external file                ...        65 MB
Size of the 4-external file                ...       299 MB
Size of the IKJL file                      ...         0 MB
Size of the all 3-external file            ...       789 MB
Size of the 1-external file                ...         4 MB

Making pair/pair overlap matrices          ... done (    2.724 sec)
Size of the pair overlap file              ... 323 MB
Redoing the guess amplitudes               ... done (    0.002 sec)

-------------------------
FINAL STARTUP INFORMATION
-------------------------

E(0)                                       ...   -312.289823893
E(L-MP2)                                   ...     -1.150989514
E(L-MP2) including corrections             ...     -1.150989514
Initial E(tot)                             ...   -313.440813408
<T|T>                                      ...      0.366576019
Number of pairs included                   ... 300
Total number of pairs                      ... 300

------------------------------------------------
                  RHF COUPLED CLUSTER ITERATIONS
------------------------------------------------

Number of PNO amplitudes to be optimized   ...       249168
Number of non-PNO amplitudes               ...      7680000
Untruncated number of regular amplitudes   ...      7680000

Iter       E(tot)           E(Corr)          Delta-E          Residual     Time
  0   -313.405460107     -1.115047985      0.035941529      0.019918318    6.92
                           *** Turning on DIIS ***
  1   -313.495677856     -1.205265735     -0.090217749      0.007833221    6.83
  2   -313.535798669     -1.245386547     -0.040120812      0.001691457    6.96
  3   -313.540871077     -1.250458956     -0.005072409      0.000549729   10.09
  4   -313.541825758     -1.251413636     -0.000954680      0.000102652    6.54
  5   -313.541968520     -1.251556398     -0.000142762      0.000023281    6.52
  6   -313.541993074     -1.251580953     -0.000024554      0.000005715    6.49
               --- The Coupled-Cluster iterations have converged ---

----------------------
COUPLED CLUSTER ENERGY
----------------------

E(0)                                       ...   -312.289823893
E(CORR)(strong-pairs)                      ...     -1.251580953
E(CORR)(weak-pairs)                        ...     -0.000588228
E(CORR)(corrected)                         ...     -1.252169181
E(TOT)                                     ...   -313.541993074
Singles Norm <S|S>**1/2                    ...      0.048476558  
T1 diagnostic                              ...      0.006996989  

------------------
LARGEST AMPLITUDES
------------------
  22-> 40  22-> 40       0.044302
  18-> 40  18-> 40       0.044302
  19-> 41  19-> 41       0.042650
  26-> 41  26-> 41       0.042631
  29-> 41  29-> 41       0.042631
  25-> 41  25-> 41       0.042177
  30-> 41  30-> 41       0.042176
  23-> 41  23-> 41       0.041812
  17-> 41  17-> 41       0.041811
  24-> 41  24-> 41       0.039534
  16-> 41  16-> 41       0.039534
  28-> 40  28-> 40       0.039446
  21-> 41  21-> 41       0.038941
  17-> 32  17-> 32       0.037992
  23-> 32  23-> 32       0.037992
  19-> 32  19-> 32       0.037935


-------------------------------------------
DLPNO BASED TRIPLES CORRECTION
-------------------------------------------

Singles multiplier          ...  1.000000
TCutTNO                     ... 1.000e-09
TCutMP2Pairs                ... 1.000e-06
TCutDOStrong                ... 1.000e-02
TCutMKNStrong               ... 1.000e-02
TCutDOWeak                  ... 2.000e-02
TCutMKNWeak                 ... 1.000e-01

Fragment selection                          .... not used
Number of Triples that are to be computed   ...      2576

 . . . . . . . . .
10% done  
20% done  
30% done  
40% done  
50% done  
60% done  
70% done  
80% done  
90% done               (    114.685 sec)
Triples timings:
Total time for T0               ...   123.533 sec
Total time for Iterative (T)    ...     0.000 sec
Total time of overall (T)       ...   123.722 sec

Triples List generation         ...     0.000 sec
TNO generation                  ...     8.842 sec
Pair density generation         ...     0.003 sec
Look up tables                  ...     0.000 sec
Generating 3-index integrals    ...    66.746 sec
  Make 4-ind.int. from 3-ind.int...    16.143 sec
  Projecting amplitudes (D + S) ...    13.959 sec
  Downprojecting integrals      ...     0.004 sec
  Energy contr. (sum over a,b,c)...     4.977 sec
Fitting ET(->0)                 ...     0.000 sec

Everything after 3-index        ...    47.940 sec

Timing details:
 TNO integrals                  ...    80.768 sec
   Reading 3-index integrals    ...     0.068 sec
   Sorting integrals            ...    12.003 sec
       Sorting integrals 1      ...     0.003 sec
       Sorting integrals 2      ...     5.462 sec
       Sorting integrals 3      ...     0.532 sec
       Sorting integrals 4      ...     0.074 sec
       Sorting integrals 5      ...     0.196 sec
       Sorting integrals 6      ...     5.736 sec
   Calculating local VM**-1/2   ...     0.683 sec
   Orthogonal. integrals        ...     1.102 sec
   Multipl. 3-index integrals   ...    66.911 sec
   All concerning IRIab (w/TNO) ...     7.966 sec

 Calculate W0/W1                ...    12.838 sec
 W 3-ext contribution           ...     6.604 sec
 W 3-int contribution           ...     2.603 sec
 Sorting W                      ...     3.384 sec

 V exchange contribution        ...     1.891 sec

 Timings for Triples without generation
     of 3-index integrals       ...    47.932 sec
       0 weak pairs             ...    47.932 sec
       1 weak pair              ...     0.000 sec
       2 weak pairs             ...     0.000 sec
       3 weak pairs             ...     0.000 sec
  Extra time for extrapolation  ...     0.000 sec

Number of Triples   (0, 1, 2, 3 weak pairs; overall):   2576       0       0       0  (  2576)
Number of Atoms     (0, 1, 2, 3 weak pairs; overall):   22.2     0.0     0.0     0.0  (    24)
Number of PAOs      (0, 1, 2, 3 weak pairs; overall):  182.2     0.0     0.0     0.0  (   192)
Number of AuxFcns   (0, 1, 2, 3 weak pairs; overall):  285.0     0.0     0.0     0.0  (   672)
Number of TNOs      (0, 1, 2, 3 weak pairs         ):   65.3     0.0     0.0     0.0
Aver. Number of NTNO, Atoms, PAOs, AuxFcns / Triples:   2576    65.3    22.2   182.2   285.0

Triples Correction (T)                     ...     -0.038757526
Final correlation energy                   ...     -1.290926706
E(CCSD)                                    ...   -313.541993074
E(CCSD(T))                                 ...   -313.580750600


Maximum memory used throughout the entire calculation: 8022.8 MB


------------------------------------------------------------------------------- 
                                     TIMINGS                                   
------------------------------------------------------------------------------- 


Total execution time                   ...      253.756 sec

Localization of occupied MO's          ...        0.473 sec (  0.2%)
Fock Matrix Formation                  ...        2.359 sec (  0.9%)
Global overlap, Fock, MKN matrices     ...        0.143 sec (  0.1%)
Differential overlap integrals         ...        0.191 sec (  0.1%)
Organizing maps                        ...        0.050 sec (  0.0%)
RI 3-index integral generations        ...        2.707 sec (  1.1%)
RI-PNO integral transformation         ...       62.035 sec ( 24.4%)
Initial Guess                          ...       11.211 sec (  4.4%)
DIIS Solver                            ...        4.314 sec (  1.7%)
State Vector Update                    ...        0.015 sec (  0.0%)
Sigma-vector construction              ...       46.637 sec ( 18.4%)
  <D|H|D>(0-ext)                       ...        3.497 sec (  7.5% of sigma)
  <D|H|D>(2-ext Fock)                  ...        0.014 sec (  0.0% of sigma)
  <D|H|D>(2-ext)                       ...        8.452 sec ( 18.1% of sigma)
  <D|H|D>(4-ext)                       ...        2.900 sec (  6.2% of sigma)
  <D|H|D>(4-ext-corr)                  ...       17.122 sec ( 36.7% of sigma)
  CCSD doubles correction              ...        0.265 sec (  0.6% of sigma)
  <S|H|S>                              ...        0.380 sec (  0.8% of sigma)
  <S|H|D>(1-ext)                       ...        0.399 sec (  0.9% of sigma)
  <D|H|S>(1-ext)                       ...        0.014 sec (  0.0% of sigma)
  <S|H|D>(3-ext)                       ...        0.191 sec (  0.4% of sigma)
  Fock-dressing                        ...        8.143 sec ( 17.5% of sigma)
  Singles amplitudes                   ...        0.279 sec (  0.6% of sigma)
  (ik|jl)-dressing                     ...        2.571 sec (  5.5% of sigma)
  (ij|ab),(ia|jb)-dressing             ...        2.048 sec (  4.4% of sigma)
  Pair energies                        ...        0.005 sec (  0.0% of sigma)
Total Time for computing (T)           ...      123.846 sec ( 48.8% of ALL)


-------------------------   --------------------
FINAL SINGLE POINT ENERGY      -313.580750599900
-------------------------   --------------------


                            ***************************************
                            *     ORCA property calculations      *
                            ***************************************

                                    ---------------------
                                    Active property flags
                                    ---------------------
   (+) Dipole Moment


------------------------------------------------------------------------------
                       ORCA ELECTRIC PROPERTIES CALCULATION
------------------------------------------------------------------------------

Dipole Moment Calculation                       ... on
Quadrupole Moment Calculation                   ... off
Polarizability Calculation                      ... off
GBWName                                         ... cis_1_3_dimethylcyclohex_ax_ax.gbw
Electron density file                           ... cis_1_3_dimethylcyclohex_ax_ax.scfp.tmp
The origin for moment calculation is the CENTER OF MASS  = ( 0.000002,  0.021402  0.025546)

-------------
DIPOLE MOMENT
-------------
                                X             Y             Z
Electronic contribution:      0.00000       1.38915       1.67741
Nuclear contribution   :     -0.00001      -1.36973      -1.63496
                        -----------------------------------------
Total Dipole Moment    :     -0.00001       0.01942       0.04244
                        -----------------------------------------
Magnitude (a.u.)       :      0.04668
Magnitude (Debye)      :      0.11865



--------------------
Rotational spectrum 
--------------------
 
Rotational constants in cm-1:     0.081408     0.064838     0.049563 
Rotational constants in MHz :  2440.544542  1943.791319  1485.860976 

 Dipole components along the rotational axes: 
x,y,z [a.u.] :    -0.000006     0.018631     0.042799 
x,y,z [Debye]:    -0.000015     0.047356     0.108786 

 

Timings for individual modules:

Sum of individual times         ...      308.476 sec (=   5.141 min)
GTO integral calculation        ...       44.667 sec (=   0.744 min)  14.5 %
SCF iterations                  ...        7.777 sec (=   0.130 min)   2.5 %
MDCI module                     ...      256.032 sec (=   4.267 min)  83.0 %
                             ****ORCA TERMINATED NORMALLY****
TOTAL RUN TIME: 0 days 0 hours 5 minutes 9 seconds 195 msec
cis_1_3_dimethylcyclohex_ax_ax.gbw -> /home1/pantazis/klk/VDZ/Cyclohexanes/cis_1_3_dimethylcyclohex_ax_ax.gbw
cis_1_3_dimethylcyclohex_ax_ax.ges -> /home1/pantazis/klk/VDZ/Cyclohexanes/cis_1_3_dimethylcyclohex_ax_ax.ges
cis_1_3_dimethylcyclohex_ax_ax.job -> /home1/pantazis/klk/VDZ/Cyclohexanes/cis_1_3_dimethylcyclohex_ax_ax.job
cis_1_3_dimethylcyclohex_ax_ax.loc -> /home1/pantazis/klk/VDZ/Cyclohexanes/cis_1_3_dimethylcyclohex_ax_ax.loc
cis_1_3_dimethylcyclohex_ax_ax.nodes -> /home1/pantazis/klk/VDZ/Cyclohexanes/cis_1_3_dimethylcyclohex_ax_ax.nodes
cis_1_3_dimethylcyclohex_ax_ax.prop -> /home1/pantazis/klk/VDZ/Cyclohexanes/cis_1_3_dimethylcyclohex_ax_ax.prop
cis_1_3_dimethylcyclohex_ax_ax_property.txt -> /home1/pantazis/klk/VDZ/Cyclohexanes/cis_1_3_dimethylcyclohex_ax_ax_property.txt
cis_1_3_dimethylcyclohex_ax_ax.xyz -> /home1/pantazis/klk/VDZ/Cyclohexanes/cis_1_3_dimethylcyclohex_ax_ax.xyz
cp: cannot stat cis_1_3_dimethylcyclohex_ax_ax.asa.inp: No such file or directory
