! Job execution by suborca V 6.07 on ZEUS !
Job started from zeus1, running /scratch/pantazis/cyclooctane_BC__HH6l2U/orca/orca copied from /opt/orca on zeussn129 in /scratch/pantazis/cyclooctane_BC__HH6l2U
Job execution start: Sat Jun 29 11:11:31 CEST 2019
Shared library path: /scratch/pantazis/cyclooctane_BC__HH6l2U/orca:/opt/openmpi_1.10.2/lib:/opt/intel/mkl/lib/intel64:/opt/intel/lib/intel64:
PBS Job ID is: 158790.icqc
izeussn129
izeussn129
izeussn129
izeussn129

                                 *****************
                                 * O   R   C   A *
                                 *****************

           --- An Ab Initio, DFT and Semiempirical electronic structure package ---

                  #######################################################
                  #                        -***-                        #
                  #          Department of theory and spectroscopy      #
                  #               Directorship: Frank Neese             #
                  #        Max Planck Institute fuer Kohlenforschung    #
                  #                Kaiser Wilhelm Platz 1               #
                  #                 D-45470 Muelheim/Ruhr               #
                  #                      Germany                        #
                  #                                                     #
                  #                  All rights reserved                #
                  #                        -***-                        #
                  #######################################################


                         Program Version 4.1.x  -  STABLE  -
                                (SVN: $Rev: 14094$)
                ($Date: 2019-06-14 15:01:15 +0200 (Fri, 14 Jun 2019) $)

                         (BUILD: $Sun Jun 23 06:18:31 CEST 2019$)


 With contributions from (in alphabetic order):
   Daniel Aravena         : Magnetic Properties
   Michael Atanasov       : Ab Initio Ligand Field Theory
   Alexander A. Auer      : GIAO ZORA
   Ute Becker             : Parallelization
   Giovanni Bistoni       : ED, Open-shell LED
   Martin Brehm           : Molecular dynamics
   Dmytro Bykov           : SCF Hessian
   Vijay G. Chilkuri      : MRCI spin determinant printing
   Dipayan Datta          : RHF DLPNO-CCSD density
   Achintya Kumar Dutta   : EOM-CC, STEOM-CC
   Dmitry Ganyushin       : Spin-Orbit,Spin-Spin,Magnetic field MRCI
   Miquel Garcia          : C-PCM Hessian
   Yang Guo               : DLPNO-NEVPT2, CIM, IAO-localization
   Andreas Hansen         : Spin unrestricted coupled pair/coupled cluster methods
   Benjamin Helmich-Paris : CASSCF linear response (MC-RPA)
   Lee Huntington         : MR-EOM, pCC
   Robert Izsak           : Overlap fitted RIJCOSX, COSX-SCS-MP3, EOM
   Christian Kollmar      : KDIIS, OOCD, Brueckner-CCSD(T), CCSD density
   Simone Kossmann        : Meta GGA functionals, TD-DFT gradient, OOMP2, MP2 Hessian
   Martin Krupicka        : AUTO-CI
   Lucas Lang             : DCDCAS
   Dagmar Lenk            : GEPOL surface, SMD
   Dimitrios Liakos       : Extrapolation schemes; parallel MDCI
   Dimitrios Manganas     : ROCIS; embedding schemes
   Dimitrios Pantazis     : SARC Basis sets
   Taras Petrenko         : DFT Hessian,TD-DFT gradient, ASA, ECA, R-Raman, ABS, FL, XAS/XES, NRVS
   Peter Pinski           : DLPNO-MP2, DLPNO-MP2 Gradient
   Christoph Reimann      : Effective Core Potentials
   Marius Retegan         : Local ZFS, SOC
   Christoph Riplinger    : Optimizer, TS searches, QM/MM, DLPNO-CCSD(T), (RO)-DLPNO pert. Triples
   Tobias Risthaus        : Range-separated hybrids, TD-DFT gradient, RPA, STAB
   Michael Roemelt        : Restricted open shell CIS
   Masaaki Saitow         : Open-shell DLPNO
   Barbara Sandhoefer     : DKH picture change effects
   Avijit Sen             : IP-ROCIS
   Kantharuban Sivalingam : CASSCF convergence, NEVPT2, FIC-MRCI
   Bernardo de Souza      : ESD, SOC TD-DFT
   Georgi Stoychev        : AutoAux, RI-MP2 NMR
   Willem Van den Heuvel  : Paramagnetic NMR
   Boris Wezisla          : Elementary symmetry handling
   Frank Wennmohs         : Technical directorship


 We gratefully acknowledge several colleagues who have allowed us to
 interface, adapt or use parts of their codes:
   Stefan Grimme, W. Hujo, H. Kruse,             : VdW corrections, initial TS optimization,
                  C. Bannwarth                     DFT functionals, gCP, sTDA/sTD-DF
   Ed Valeev                                     : LibInt (2-el integral package), F12 methods
   Garnet Chan, S. Sharma, J. Yang, R. Olivares  : DMRG
   Ulf Ekstrom                                   : XCFun DFT Library
   Mihaly Kallay                                 : mrcc  (arbitrary order and MRCC methods)
   Andreas Klamt, Michael Diedenhofen            : otool_cosmo (COSMO solvation model)
   Jiri Pittner, Ondrej Demel                    : Mk-CCSD
   Frank Weinhold                                : gennbo (NPA and NBO analysis)
   Christopher J. Cramer and Donald G. Truhlar   : smd solvation model
   Lars Goerigk                                  : TD-DFT with DH, B97 family of functionals
   V. Asgeirsson, H. Jonsson                     : NEB implementation
   FAccTs GmbH                                   : IRC, NEB, NEB-TS, Multilevel


 Your calculation uses the libint2 library for the computation of 2-el integrals
 For citations please refer to: http://libint.valeyev.net

 This ORCA versions uses:
   CBLAS   interface :  Fast vector & matrix operations
   LAPACKE interface :  Fast linear algebra routines
   SCALAPACK package :  Parallel linear algebra routines




***************************************
The coordinates will be read from file: cyclooctane_BC.xyz
***************************************


----- Orbital basis set information -----
Your calculation utilizes the basis: cc-pVDZ 
       H, B-Ne : Obtained from the ccRepo (grant-hill.group.shef.ac.uk/ccrepo) Feb. 2017
                 T. H. Dunning, Jr., J. Chem. Phys. 90, 1007 (1989)
            He : Obtained from the ccRepo (grant-hill.group.shef.ac.uk/ccrepo) Feb. 2017
                 D. E. Woon, T. H. Dunning, Jr., J. Chem. Phys. 100, 2975 (1994)
  Li-Be, Na-Mg : Obtained from the ccRepo (grant-hill.group.shef.ac.uk/ccrepo) Feb. 2017
                 B. P. Prascher, D. E. Woon, K. A. Peterson, T. H. Dunning, Jr., A. K. Wilson, Theor. Chem. Acc. 128, 69 (2011)
         Al-Ar : Obtained from the ccRepo (grant-hill.group.shef.ac.uk/ccrepo) Feb. 2017
                 D. E. Woon, T. H. Dunning, Jr., J. Chem. Phys. 98, 1358 (1993)
            Ca : Obtained from the Peterson Research Group Website (tyr0.chem.wsu.edu/~kipeters) Feb. 2017
                 J. Koput, K. A. Peterson, J. Phys. Chem. 106, 9595 (2002)
         Sc-Zn : Obtained from the ccRepo (grant-hill.group.shef.ac.uk/ccrepo) Feb. 2017
                 N. B. Balabanov, K. A. Peterson, J. Chem. Phys. 123, 064107 (2005)
                 N. B. Balabanov, K. A. Peterson, J. Chem. Phys. 125, 074110 (2006)
         Ga-Kr : Obtained from the ccRepo (grant-hill.group.shef.ac.uk/ccrepo) Feb. 2017
                 A. K. Wilson, D. E. Woon, K. A. Peterson, T. H. Dunning, Jr., J. Chem. Phys. 110, 7667 (1999)

----- AuxC basis set information -----
Your calculation utilizes the auxiliary basis: cc-pVDZ/C 
  H-He, B, Ne, Al-Ar, Ga-Br : Obtained from the EMSL Basis Set Exchange (bse.pnl.gov) Feb. 2017
                              F. Weigend, A. Kohn, C. Hattig, J. Chem. Phys. 116, 3175 (2002)
               Li-Be, Na-Mg : Obtained from the EMSL Basis Set Exchange (bse.pnl.gov) Feb. 2017
                              C. Haettig, Phys. Chem. Chem. Phys. 7, 59 (2005)
                        C-F : Obtained from the EMSL Basis Set Exchange (bse.pnl.gov) Feb. 2017
                              C. Haettig, Phys. Chem. Chem. Phys. 7, 59 (2005)
                              F. Weigend, A. Kohn, C. Hattig, J. Chem. Phys. 116, 3175 (2002)
                         Kr : Obtained from the TURBOMOLE 7.0 basis set library
                              F. Weigend, A. Kohn, C. Hattig, J. Chem. Phys. 116, 3175 (2002)
                              S function revised in Sep. 2009

----- AuxJK basis set information -----
Your calculation utilizes the auxiliary basis: cc-pVTZ/JK 
  H, B-F, Al-Cl, Ga-Br : Obtained from the TURBOMOLE 7.0 basis set library

================================================================================
                                        WARNINGS
                       Please study these warnings very carefully!
================================================================================


WARNING: MDCI localization with Augmented Hessian Foster-Boys
  ===> : Switching off randomization!

WARNING: Post HF methods need fully converged wavefunctions
  ===> : Setting SCFConvForced true
         You can overwrite this default with %scf ConvForced false 


INFO   : the flag for use of LIBINT has been found!

================================================================================
                                       INPUT FILE
================================================================================
NAME = cyclooctane_BC.inp
|  1> ! RHF DLPNO-CCSD(T) cc-pVDZ RIJK cc-pVTZ/JK cc-pVDZ/C
|  2> ! KDIIS SOSCF TightSCF TightPNO
|  3> 
|  4> %pal nprocs 4 end
|  5> 
|  6> %maxcore 8000
|  7> 
|  8> %scf maxiter 300
|  9>      shift shift 0.2 erroff 0.1 end
| 10> end
| 11> 
| 12> * xyzfile 0 1 cyclooctane_BC.xyz 
| 13> 
| 14> 
| 15>                          ****END OF INPUT****
================================================================================

                       ****************************
                       * Single Point Calculation *
                       ****************************

---------------------------------
CARTESIAN COORDINATES (ANGSTROEM)
---------------------------------
  C     -1.197740   -1.329220   -0.318160
  C     -1.944400   -0.000090   -0.085850
  C     -1.197860    1.329130   -0.318120
  C     -0.013380    1.618220    0.635780
  C      1.394020    1.315850    0.075540
  C      1.586560    0.000060   -0.695020
  C      1.394160   -1.315720    0.075590
  C     -0.013240   -1.618240    0.635770
  H     -0.863380   -1.391530   -1.363150
  H     -1.940500   -2.128950   -0.202910
  H     -0.027140   -2.681070    0.908580
  H     -0.170910   -1.078010    1.576530
  H     -2.834100   -0.000100   -0.730710
  H     -2.325300   -0.000110    0.946670
  H      1.668320   -2.131710   -0.607940
  H      2.118490   -1.362000    0.901390
  H     -0.863540    1.391520   -1.363100
  H     -1.940690    2.128780   -0.202790
  H     -0.027380    2.681030    0.908670
  H     -0.170960    1.077910    1.576510
  H      0.933190    0.000010   -1.577040
  H      2.608740    0.000120   -1.097080
  H      1.668050    2.131870   -0.608040
  H      2.118400    1.362260    0.901290

----------------------------
CARTESIAN COORDINATES (A.U.)
----------------------------
  NO LB      ZA    FRAG     MASS         X           Y           Z
   0 C     6.0000    0    12.011   -2.263401   -2.511862   -0.601235
   1 C     6.0000    0    12.011   -3.674383   -0.000170   -0.162233
   2 C     6.0000    0    12.011   -2.263627    2.511692   -0.601160
   3 C     6.0000    0    12.011   -0.025285    3.057993    1.201450
   4 C     6.0000    0    12.011    2.634316    2.486596    0.142750
   5 C     6.0000    0    12.011    2.998164    0.000113   -1.313397
   6 C     6.0000    0    12.011    2.634581   -2.486350    0.142844
   7 C     6.0000    0    12.011   -0.025020   -3.058030    1.201431
   8 H     1.0000    0     1.008   -1.631552   -2.629611   -2.575980
   9 H     1.0000    0     1.008   -3.667014   -4.023132   -0.383444
  10 H     1.0000    0     1.008   -0.051287   -5.066488    1.716967
  11 H     1.0000    0     1.008   -0.322973   -2.037144    2.979210
  12 H     1.0000    0     1.008   -5.355673   -0.000189   -1.380842
  13 H     1.0000    0     1.008   -4.394180   -0.000208    1.788947
  14 H     1.0000    0     1.008    3.152668   -4.028348   -1.148840
  15 H     1.0000    0     1.008    4.003366   -2.573807    1.703380
  16 H     1.0000    0     1.008   -1.631854    2.629592   -2.575886
  17 H     1.0000    0     1.008   -3.667373    4.022811   -0.383218
  18 H     1.0000    0     1.008   -0.051741    5.066412    1.717137
  19 H     1.0000    0     1.008   -0.323068    2.036955    2.979172
  20 H     1.0000    0     1.008    1.763474    0.000019   -2.980174
  21 H     1.0000    0     1.008    4.929804    0.000227   -2.073181
  22 H     1.0000    0     1.008    3.152158    4.028650   -1.149029
  23 H     1.0000    0     1.008    4.003196    2.574298    1.703191

--------------------------------
INTERNAL COORDINATES (ANGSTROEM)
--------------------------------
 C      0   0   0     0.000000000000     0.00000000     0.00000000
 C      1   0   0     1.542094565388     0.00000000     0.00000000
 C      2   1   0     1.542108015964   119.06673171     0.00000000
 C      3   2   1     1.548060434382   116.01202926   294.82148631
 C      4   3   2     1.544691307187   115.91861075    99.63502060
 C      5   4   3     1.536924750695   117.61730904   316.23935155
 C      6   5   4     1.536923726312   117.76642847   296.04778170
 C      7   6   5     1.544698916553   117.61661163    63.95552239
 H      1   2   3     1.098946425355   109.84243639   299.63598142
 H      1   2   3     1.097516766615   106.53154806   186.03475722
 H      8   7   6     1.097372368433   106.94030196   165.42150453
 H      8   7   6     1.096237957471   110.22725822   279.26611873
 H      2   1   3     1.098822328541   107.67523910   122.79702302
 H      2   1   3     1.100537305501   107.99283380   236.49036710
 H      7   6   5     1.099189085917   107.00907790   185.47594747
 H      7   6   5     1.099427772662   109.27918758   299.54253237
 H      3   2   1     1.098929285669   109.84250082    60.36590537
 H      3   2   1     1.097514255169   106.53103396   173.96820543
 H      4   3   2     1.097374160530   108.92507722   220.24051675
 H      4   3   2     1.096238699098   109.07180070   334.55408250
 H      6   5   4     1.097657341706   109.16805786    61.20796773
 H      6   5   4     1.098409850466   107.46083927   174.64098473
 H      5   4   3     1.099210033479   107.90090644    77.29941995
 H      5   4   3     1.099428640249   108.64128690   191.50789481

---------------------------
INTERNAL COORDINATES (A.U.)
---------------------------
 C      0   0   0     0.000000000000     0.00000000     0.00000000
 C      1   0   0     2.914136401192     0.00000000     0.00000000
 C      2   1   0     2.914161819096   119.06673171     0.00000000
 C      3   2   1     2.925410259742   116.01202926   294.82148631
 C      4   3   2     2.919043532033   115.91861075    99.63502060
 C      5   4   3     2.904366867259   117.61730904   316.23935155
 C      6   5   4     2.904364931455   117.76642847   296.04778170
 C      7   6   5     2.919057911650   117.61661163    63.95552239
 H      1   2   3     2.076707779772   109.84243639   299.63598142
 H      1   2   3     2.074006116288   106.53154806   186.03475722
 H      8   7   6     2.073733243271   106.94030196   165.42150453
 H      8   7   6     2.071589517229   110.22725822   279.26611873
 H      2   1   3     2.076473270780   107.67523910   122.79702302
 H      2   1   3     2.079714107561   107.99283380   236.49036710
 H      7   6   5     2.077166341779   107.00907790   185.47594747
 H      7   6   5     2.077617394358   109.27918758   299.54253237
 H      3   2   1     2.076675390459   109.84250082    60.36590537
 H      3   2   1     2.074001370345   106.53103396   173.96820543
 H      4   3   2     2.073736629844   108.92507722   220.24051675
 H      4   3   2     2.071590918701   109.07180070   334.55408250
 H      6   5   4     2.074271764711   109.16805786    61.20796773
 H      6   5   4     2.075693800181   107.46083927   174.64098473
 H      5   4   3     2.077205926933   107.90090644    77.29941995
 H      5   4   3     2.077619033860   108.64128690   191.50789481

---------------------
BASIS SET INFORMATION
---------------------
There are 2 groups of distinct atoms

 Group   1 Type C   : 17s4p1d contracted to 3s2p1d pattern {881/31/1}
 Group   2 Type H   : 4s1p contracted to 2s1p pattern {31/1}

Atom   0C    basis set group =>   1
Atom   1C    basis set group =>   1
Atom   2C    basis set group =>   1
Atom   3C    basis set group =>   1
Atom   4C    basis set group =>   1
Atom   5C    basis set group =>   1
Atom   6C    basis set group =>   1
Atom   7C    basis set group =>   1
Atom   8H    basis set group =>   2
Atom   9H    basis set group =>   2
Atom  10H    basis set group =>   2
Atom  11H    basis set group =>   2
Atom  12H    basis set group =>   2
Atom  13H    basis set group =>   2
Atom  14H    basis set group =>   2
Atom  15H    basis set group =>   2
Atom  16H    basis set group =>   2
Atom  17H    basis set group =>   2
Atom  18H    basis set group =>   2
Atom  19H    basis set group =>   2
Atom  20H    basis set group =>   2
Atom  21H    basis set group =>   2
Atom  22H    basis set group =>   2
Atom  23H    basis set group =>   2
-------------------------------
AUXILIARY BASIS SET INFORMATION
-------------------------------
There are 2 groups of distinct atoms

 Group   1 Type C   : 7s5p4d2f contracted to 7s5p4d2f pattern {1111111/11111/1111/11}
 Group   2 Type H   : 3s2p1d contracted to 3s2p1d pattern {111/11/1}

Atom   0C    basis set group =>   1
Atom   1C    basis set group =>   1
Atom   2C    basis set group =>   1
Atom   3C    basis set group =>   1
Atom   4C    basis set group =>   1
Atom   5C    basis set group =>   1
Atom   6C    basis set group =>   1
Atom   7C    basis set group =>   1
Atom   8H    basis set group =>   2
Atom   9H    basis set group =>   2
Atom  10H    basis set group =>   2
Atom  11H    basis set group =>   2
Atom  12H    basis set group =>   2
Atom  13H    basis set group =>   2
Atom  14H    basis set group =>   2
Atom  15H    basis set group =>   2
Atom  16H    basis set group =>   2
Atom  17H    basis set group =>   2
Atom  18H    basis set group =>   2
Atom  19H    basis set group =>   2
Atom  20H    basis set group =>   2
Atom  21H    basis set group =>   2
Atom  22H    basis set group =>   2
Atom  23H    basis set group =>   2
-------------------------------
AUXILIARY BASIS SET INFORMATION
-------------------------------
There are 2 groups of distinct atoms

 Group   1 Type C   : 10s7p5d2f1g contracted to 10s7p5d2f1g pattern {1111111111/1111111/11111/11/1}
 Group   2 Type H   : 4s3p2d1f contracted to 4s3p2d1f pattern {1111/111/11/1}

Atom   0C    basis set group =>   1
Atom   1C    basis set group =>   1
Atom   2C    basis set group =>   1
Atom   3C    basis set group =>   1
Atom   4C    basis set group =>   1
Atom   5C    basis set group =>   1
Atom   6C    basis set group =>   1
Atom   7C    basis set group =>   1
Atom   8H    basis set group =>   2
Atom   9H    basis set group =>   2
Atom  10H    basis set group =>   2
Atom  11H    basis set group =>   2
Atom  12H    basis set group =>   2
Atom  13H    basis set group =>   2
Atom  14H    basis set group =>   2
Atom  15H    basis set group =>   2
Atom  16H    basis set group =>   2
Atom  17H    basis set group =>   2
Atom  18H    basis set group =>   2
Atom  19H    basis set group =>   2
Atom  20H    basis set group =>   2
Atom  21H    basis set group =>   2
Atom  22H    basis set group =>   2
Atom  23H    basis set group =>   2

Checking for AutoStart:
The File: cyclooctane_BC.gbw exists
Trying to determine its content:
     ... Fine, the file contains calculation information
     ... Fine, the calculation information was read
     ... Fine, the file contains a basis set
     ... Fine, the basis set was read
     ... Fine, the file contains a geometry
     ... Fine, the geometry was read
     ... Fine, the file contains a set of orbitals
     ... Fine, the orbitals can be read
     => possible old guess file was deleted
     => GBW file was renamed to GES file
     => GES file is set as startup file
     => Guess is set to MORead
     ... now leaving AutoStart



           ************************************************************
           *        Program running with 4 parallel MPI-processes     *
           *              working on a common directory               *
           ************************************************************
------------------------------------------------------------------------------
                           ORCA GTO INTEGRAL CALCULATION
                           -- RI-GTO INTEGRALS CHOSEN --
------------------------------------------------------------------------------

                         BASIS SET STATISTICS AND STARTUP INFO

Gaussian basis set:
 # of primitive gaussian shells          ...  256
 # of primitive gaussian functions       ...  384
 # of contracted shells                  ...   96
 # of contracted basis functions         ...  192
 Highest angular momentum                ...    2
 Maximum contraction depth               ...    8
Auxiliary gaussian basis set:
 # of primitive gaussian shells          ...  360
 # of primitive gaussian functions       ... 1112
 # of contracted shells                  ...  360
 # of contracted aux-basis functions     ... 1112
 Highest angular momentum                ...    4
 Maximum contraction depth               ...    1
Ratio of auxiliary to basis functions    ...  5.79
Integral package used                  ... LIBINT
 One Electron integrals                  ... done
 Ordering auxiliary basis shells         ... done
 Integral threshhold             Thresh  ...  2.500e-11
 Primitive cut-off               TCut    ...  2.500e-12
 Pre-screening matrix                    ... done
 Shell pair data                         ... 
 Ordering of the shell pairs             ... done (   0.001 sec) 4627 of 4656 pairs
 Determination of significant pairs      ... done (   0.000 sec)
 Creation of shell pair data             ... done (   0.002 sec)
 Storage of shell pair data              ... done (   0.009 sec)
 Shell pair data done in (   0.012 sec)
 Computing two index integrals           ... done
 Cholesky decomposition of the V-matrix  ... done


Timings:
 Total evaluation time                   ...   0.497 sec (  0.008 min)
 One electron matrix time                ...   0.050 sec (  0.001 min) = 10.1%
 Schwartz matrix evaluation time         ...   0.195 sec (  0.003 min) = 39.3%
 Two index repulsion integral time       ...   0.089 sec (  0.001 min) = 18.0%
 Cholesky decomposition of V             ...   0.124 sec (  0.002 min) = 25.0%
 Three index repulsion integral time     ...   0.000 sec (  0.000 min) =  0.0%



           ************************************************************
           *        Program running with 4 parallel MPI-processes     *
           *              working on a common directory               *
           ************************************************************
-------------------------------------------------------------------------------
                                 ORCA SCF
-------------------------------------------------------------------------------

------------
SCF SETTINGS
------------
Hamiltonian:
 Ab initio Hamiltonian  Method          .... Hartree-Fock(GTOs)
 RI-approximation to the Coulomb term is turned on
   Number of auxiliary basis functions  .... 1112
   RI-JK (J+K treated both via RI)      .... on


General Settings:
 Integral files         IntName         .... cyclooctane_BC
 Hartree-Fock type      HFTyp           .... RHF
 Total Charge           Charge          ....    0
 Multiplicity           Mult            ....    1
 Number of Electrons    NEL             ....   64
 Basis Dimension        Dim             ....  192
 Nuclear Repulsion      ENuc            ....    408.6214048670 Eh

Convergence Acceleration:
 DIIS                   CNVDIIS         .... off
 Newton-Raphson         CNVNR           .... off
 SOSCF                  CNVSOSCF        .... on
   Start iteration      SOSCFMaxIt      ....   150
   Startup grad/error   SOSCFStart      ....  0.003300
 Level Shifting         CNVShift        .... on
   Level shift para.    LevelShift      ....    0.2000
   Turn off err/grad.   ShiftErr        ....    0.1000
 Zerner damping         CNVZerner       .... off
 Static damping         CNVDamp         .... off
 Fernandez-Rico         CNVRico         .... off

SCF Procedure:
 Maximum # iterations   MaxIter         ....   300
 SCF integral mode      SCFMode         .... Direct
   Integral package                     .... LIBINT
 Reset frequency        DirectResetFreq ....    20
 Integral Threshold     Thresh          ....  2.500e-11 Eh
 Primitive CutOff       TCut            ....  2.500e-12 Eh

Convergence Tolerance:
 Convergence Check Mode ConvCheckMode   .... Total+1el-Energy
 Convergence forced     ConvForced      .... 1
 Energy Change          TolE            ....  1.000e-08 Eh
 1-El. energy change                    ....  1.000e-05 Eh
 Orbital Gradient       TolG            ....  1.000e-05
 Orbital Rotation angle TolX            ....  1.000e-05


Diagonalization of the overlap matrix:
Smallest eigenvalue                        ... 3.326e-03
Time for diagonalization                   ...    0.008 sec
Threshold for overlap eigenvalues          ... 1.000e-08
Number of eigenvalues below threshold      ... 0
Time for construction of square roots      ...    0.008 sec
Total time needed                          ...    0.017 sec

---------------------
INITIAL GUESS: MOREAD
---------------------
Guess MOs are being read from file: cyclooctane_BC.ges
Input Geometry matches current geometry (good)
Atom 0: N(Shells)= 6 and 10 - projection required
Input basis set needs projection
NBasis(read)= 464
NBasis(calc)= 192
Basis set overlap was calculated
Using GuessMode=FMatrix for the initial guess
C*T matrix was formed
Effective Fockian was calculated
Effective Fockian was diagonalized
Initial density was built
                      ------------------
                      INITIAL GUESS DONE (   0.1 sec)
                      ------------------
--------------
SCF ITERATIONS
--------------
ITER       Energy         Delta-E        Max-DP      RMS-DP      [F,P]   Gradient Norm
                             ****Turning on KDIIS(Cayley)****
  0   -312.2764415593   0.000000000000 0.00104272  0.00004915  0.0047092   0.005550551
  1   -312.2765821957  -0.000140636350 0.00201509  0.00009369  0.0042633   0.005041484
  2   -312.2768186575  -0.000236461833 0.00312459  0.00015097  0.0034144   0.004060093
                      *** Initiating the SOSCF procedure ***
                           *** Shutting down KDIIS ***
                      *** Re-Reading the Fockian *** 
                      *** Removing any level shift *** 
ITER      Energy       Delta-E        Grad      Rot      Max-DP    RMS-DP
  3   -312.27709928  -0.0002806204  0.002048  0.002048  0.004444  0.000225
  4   -312.27725864  -0.0001593627  0.000007  0.000007  0.000017  0.000001
                  ***Gradient check signals convergence***
              ***Rediagonalizing the Fockian in SOSCF/NRSCF***

               *****************************************************
               *                     SUCCESS                       *
               *           SCF CONVERGED AFTER   5 CYCLES          *
               *****************************************************


----------------
TOTAL SCF ENERGY
----------------

Total Energy       :         -312.27725864 Eh           -8497.49621 eV

Components:
Nuclear Repulsion  :          408.62140487 Eh           11119.15371 eV
Electronic Energy  :         -720.89866351 Eh          -19616.64993 eV
One Electron Energy:        -1231.10369127 Eh          -33500.03455 eV
Two Electron Energy:          510.20502776 Eh           13883.38462 eV

Virial components:
Potential Energy   :         -624.09533278 Eh          -16982.49738 eV
Kinetic Energy     :          311.81807413 Eh            8485.00117 eV
Virial Ratio       :            2.00147260


---------------
SCF CONVERGENCE
---------------

  Last Energy change         ...   -4.2176e-09  Tolerance :   1.0000e-08
  Last MAX-Density change    ...    5.1784e-06  Tolerance :   1.0000e-07
  Last RMS-Density change    ...    2.8348e-07  Tolerance :   5.0000e-09
  Last Orbital Gradient      ...    2.3632e-06  Tolerance :   1.0000e-05
  Last Orbital Rotation      ...    3.1015e-06  Tolerance :   1.0000e-05

             **** THE GBW FILE WAS UPDATED (cyclooctane_BC.gbw) ****
             **** DENSITY FILE WAS UPDATED (cyclooctane_BC.scfp.tmp) ****
             **** ENERGY FILE WAS UPDATED (cyclooctane_BC.en.tmp) ****
----------------
ORBITAL ENERGIES
----------------

  NO   OCC          E(Eh)            E(eV) 
   0   2.0000     -11.220660      -305.3297 
   1   2.0000     -11.219734      -305.3045 
   2   2.0000     -11.219732      -305.3044 
   3   2.0000     -11.219613      -305.3012 
   4   2.0000     -11.219518      -305.2986 
   5   2.0000     -11.218374      -305.2675 
   6   2.0000     -11.218367      -305.2673 
   7   2.0000     -11.217865      -305.2536 
   8   2.0000      -1.098113       -29.8812 
   9   2.0000      -1.036537       -28.2056 
  10   2.0000      -1.034596       -28.1528 
  11   2.0000      -0.917645       -24.9704 
  12   2.0000      -0.913983       -24.8707 
  13   2.0000      -0.792176       -21.5562 
  14   2.0000      -0.790274       -21.5044 
  15   2.0000      -0.734892       -19.9974 
  16   2.0000      -0.641316       -17.4511 
  17   2.0000      -0.627424       -17.0731 
  18   2.0000      -0.594772       -16.1846 
  19   2.0000      -0.588382       -16.0107 
  20   2.0000      -0.571511       -15.5516 
  21   2.0000      -0.565426       -15.3860 
  22   2.0000      -0.548870       -14.9355 
  23   2.0000      -0.506334       -13.7781 
  24   2.0000      -0.484159       -13.1746 
  25   2.0000      -0.480370       -13.0715 
  26   2.0000      -0.467677       -12.7261 
  27   2.0000      -0.464159       -12.6304 
  28   2.0000      -0.459150       -12.4941 
  29   2.0000      -0.432826       -11.7778 
  30   2.0000      -0.425294       -11.5728 
  31   2.0000      -0.417019       -11.3477 
  32   0.0000       0.175868         4.7856 
  33   0.0000       0.194698         5.2980 
  34   0.0000       0.203730         5.5438 
  35   0.0000       0.209580         5.7030 
  36   0.0000       0.229641         6.2489 
  37   0.0000       0.244189         6.6447 
  38   0.0000       0.251353         6.8397 
  39   0.0000       0.253902         6.9090 
  40   0.0000       0.261969         7.1285 
  41   0.0000       0.276840         7.5332 
  42   0.0000       0.281161         7.6508 
  43   0.0000       0.295310         8.0358 
  44   0.0000       0.298781         8.1303 
  45   0.0000       0.307985         8.3807 
  46   0.0000       0.334714         9.1080 
  47   0.0000       0.349162         9.5012 
  48   0.0000       0.373113        10.1529 
  49   0.0000       0.383557        10.4371 
  50   0.0000       0.389459        10.5977 
  51   0.0000       0.415895        11.3171 
  52   0.0000       0.429067        11.6755 
  53   0.0000       0.464369        12.6361 
  54   0.0000       0.480012        13.0618 
  55   0.0000       0.501649        13.6506 
  56   0.0000       0.563306        15.3283 
  57   0.0000       0.594236        16.1700 
  58   0.0000       0.612852        16.6765 
  59   0.0000       0.613329        16.6895 
  60   0.0000       0.640956        17.4413 
  61   0.0000       0.651832        17.7372 
  62   0.0000       0.660861        17.9829 
  63   0.0000       0.667650        18.1677 
  64   0.0000       0.693834        18.8802 
  65   0.0000       0.785297        21.3690 
  66   0.0000       0.819752        22.3066 
  67   0.0000       0.824619        22.4390 
  68   0.0000       0.835675        22.7399 
  69   0.0000       0.836309        22.7571 
  70   0.0000       0.845971        23.0200 
  71   0.0000       0.847730        23.0679 
  72   0.0000       0.857999        23.3473 
  73   0.0000       0.865365        23.5478 
  74   0.0000       0.875876        23.8338 
  75   0.0000       0.884941        24.0805 
  76   0.0000       0.891571        24.2609 
  77   0.0000       0.894014        24.3274 
  78   0.0000       0.900660        24.5082 
  79   0.0000       0.907637        24.6981 
  80   0.0000       0.909776        24.7563 
  81   0.0000       0.910720        24.7820 
  82   0.0000       0.921396        25.0725 
  83   0.0000       0.928139        25.2559 
  84   0.0000       0.935332        25.4517 
  85   0.0000       0.943690        25.6791 
  86   0.0000       0.944264        25.6947 
  87   0.0000       0.952220        25.9112 
  88   0.0000       0.970409        26.4062 
  89   0.0000       0.973873        26.5004 
  90   0.0000       0.983493        26.7622 
  91   0.0000       0.985593        26.8194 
  92   0.0000       1.035221        28.1698 
  93   0.0000       1.051367        28.6092 
  94   0.0000       1.077886        29.3308 
  95   0.0000       1.104826        30.0638 
  96   0.0000       1.170257        31.8443 
  97   0.0000       1.216694        33.1079 
  98   0.0000       1.249244        33.9937 
  99   0.0000       1.313288        35.7364 
 100   0.0000       1.317623        35.8543 
 101   0.0000       1.365195        37.1489 
 102   0.0000       1.385742        37.7079 
 103   0.0000       1.407471        38.2992 
 104   0.0000       1.422787        38.7160 
 105   0.0000       1.440415        39.1957 
 106   0.0000       1.485126        40.4123 
 107   0.0000       1.529086        41.6085 
 108   0.0000       1.570690        42.7406 
 109   0.0000       1.576004        42.8852 
 110   0.0000       1.598059        43.4854 
 111   0.0000       1.673332        45.5337 
 112   0.0000       1.677646        45.6511 
 113   0.0000       1.692165        46.0461 
 114   0.0000       1.700388        46.2699 
 115   0.0000       1.727946        47.0198 
 116   0.0000       1.744112        47.4597 
 117   0.0000       1.768057        48.1113 
 118   0.0000       1.804125        49.0927 
 119   0.0000       1.836077        49.9622 
 120   0.0000       1.848587        50.3026 
 121   0.0000       1.859697        50.6049 
 122   0.0000       1.864623        50.7390 
 123   0.0000       1.875852        51.0445 
 124   0.0000       1.904721        51.8301 
 125   0.0000       1.913374        52.0656 
 126   0.0000       1.920794        52.2675 
 127   0.0000       1.924593        52.3708 
 128   0.0000       1.942388        52.8551 
 129   0.0000       1.949958        53.0611 
 130   0.0000       1.953636        53.1612 
 131   0.0000       1.958244        53.2865 
 132   0.0000       1.959361        53.3169 
 133   0.0000       1.977850        53.8200 
 134   0.0000       1.986209        54.0475 
 135   0.0000       1.987008        54.0692 
 136   0.0000       1.990562        54.1659 
 137   0.0000       1.997536        54.3557 
 138   0.0000       2.028305        55.1930 
 139   0.0000       2.036546        55.4172 
 140   0.0000       2.039488        55.4973 
 141   0.0000       2.039665        55.5021 
 142   0.0000       2.070531        56.3420 
 143   0.0000       2.084005        56.7087 
 144   0.0000       2.088065        56.8191 
 145   0.0000       2.111801        57.4650 
 146   0.0000       2.118614        57.6504 
 147   0.0000       2.138586        58.1939 
 148   0.0000       2.156691        58.6866 
 149   0.0000       2.193219        59.6805 
 150   0.0000       2.207426        60.0671 
 151   0.0000       2.227231        60.6060 
 152   0.0000       2.244873        61.0861 
 153   0.0000       2.276168        61.9377 
 154   0.0000       2.309525        62.8454 
 155   0.0000       2.326504        63.3074 
 156   0.0000       2.327578        63.3366 
 157   0.0000       2.358658        64.1823 
 158   0.0000       2.373474        64.5855 
 159   0.0000       2.411783        65.6280 
 160   0.0000       2.414326        65.6972 
 161   0.0000       2.424195        65.9657 
 162   0.0000       2.452540        66.7370 
 163   0.0000       2.463106        67.0245 
 164   0.0000       2.493544        67.8528 
 165   0.0000       2.522005        68.6272 
 166   0.0000       2.525025        68.7094 
 167   0.0000       2.547083        69.3097 
 168   0.0000       2.551848        69.4393 
 169   0.0000       2.576732        70.1164 
 170   0.0000       2.584209        70.3199 
 171   0.0000       2.643243        71.9263 
 172   0.0000       2.644728        71.9667 
 173   0.0000       2.657770        72.3216 
 174   0.0000       2.681750        72.9741 
 175   0.0000       2.694084        73.3098 
 176   0.0000       2.803390        76.2841 
 177   0.0000       2.812574        76.5340 
 178   0.0000       2.838944        77.2516 
 179   0.0000       2.843821        77.3843 
 180   0.0000       2.862400        77.8899 
 181   0.0000       2.878256        78.3213 
 182   0.0000       2.909453        79.1702 
 183   0.0000       2.943492        80.0965 
 184   0.0000       2.966314        80.7175 
 185   0.0000       2.986303        81.2614 
 186   0.0000       2.989631        81.3520 
 187   0.0000       3.014001        82.0151 
 188   0.0000       3.065665        83.4210 
 189   0.0000       3.070848        83.5620 
 190   0.0000       3.100204        84.3608 
 191   0.0000       3.174043        86.3701 

                    ********************************
                    * MULLIKEN POPULATION ANALYSIS *
                    ********************************

-----------------------
MULLIKEN ATOMIC CHARGES
-----------------------
   0 C :   -0.047266
   1 C :   -0.036876
   2 C :   -0.047255
   3 C :   -0.054916
   4 C :   -0.024366
   5 C :   -0.068308
   6 C :   -0.024349
   7 C :   -0.054922
   8 H :    0.021469
   9 H :    0.024660
  10 H :    0.023113
  11 H :    0.022776
  12 H :    0.019816
  13 H :    0.022114
  14 H :    0.023781
  15 H :    0.019118
  16 H :    0.021466
  17 H :    0.024658
  18 H :    0.023113
  19 H :    0.022773
  20 H :    0.023484
  21 H :    0.023022
  22 H :    0.023781
  23 H :    0.019116
Sum of atomic charges:   -0.0000000

--------------------------------
MULLIKEN REDUCED ORBITAL CHARGES
--------------------------------
  0 C s       :     3.078984  s :     3.078984
      pz      :     0.982889  p :     2.886734
      px      :     0.941968
      py      :     0.961878
      dz2     :     0.020430  d :     0.081547
      dxz     :     0.016892
      dyz     :     0.007638
      dx2y2   :     0.012465
      dxy     :     0.024123
  1 C s       :     3.068927  s :     3.068927
      pz      :     0.982049  p :     2.883840
      px      :     0.974368
      py      :     0.927424
      dz2     :     0.017668  d :     0.084109
      dxz     :     0.016600
      dyz     :     0.009000
      dx2y2   :     0.020296
      dxy     :     0.020545
  2 C s       :     3.078974  s :     3.078974
      pz      :     0.982888  p :     2.886733
      px      :     0.941973
      py      :     0.961873
      dz2     :     0.020430  d :     0.081548
      dxz     :     0.016891
      dyz     :     0.007639
      dx2y2   :     0.012466
      dxy     :     0.024122
  3 C s       :     3.076019  s :     3.076019
      pz      :     0.989176  p :     2.897721
      px      :     0.922569
      py      :     0.985976
      dz2     :     0.014645  d :     0.081176
      dxz     :     0.020494
      dyz     :     0.012267
      dx2y2   :     0.023943
      dxy     :     0.009827
  4 C s       :     3.059642  s :     3.059642
      pz      :     0.968683  p :     2.881509
      px      :     0.956723
      py      :     0.956103
      dz2     :     0.008156  d :     0.083215
      dxz     :     0.021786
      dyz     :     0.020684
      dx2y2   :     0.020411
      dxy     :     0.012178
  5 C s       :     3.072471  s :     3.072471
      pz      :     0.999287  p :     2.911552
      px      :     0.978717
      py      :     0.933548
      dz2     :     0.011204  d :     0.084285
      dxz     :     0.017057
      dyz     :     0.021703
      dx2y2   :     0.026052
      dxy     :     0.008270
  6 C s       :     3.059631  s :     3.059631
      pz      :     0.968678  p :     2.881505
      px      :     0.956726
      py      :     0.956101
      dz2     :     0.008157  d :     0.083214
      dxz     :     0.021785
      dyz     :     0.020683
      dx2y2   :     0.020409
      dxy     :     0.012179
  7 C s       :     3.076024  s :     3.076024
      pz      :     0.989175  p :     2.897724
      px      :     0.922567
      py      :     0.985982
      dz2     :     0.014646  d :     0.081174
      dxz     :     0.020495
      dyz     :     0.012263
      dx2y2   :     0.023943
      dxy     :     0.009827
  8 H s       :     0.949530  s :     0.949530
      pz      :     0.018799  p :     0.029002
      px      :     0.005744
      py      :     0.004458
  9 H s       :     0.946139  s :     0.946139
      pz      :     0.004997  p :     0.029201
      px      :     0.011409
      py      :     0.012795
 10 H s       :     0.947693  s :     0.947693
      pz      :     0.005670  p :     0.029193
      px      :     0.003887
      py      :     0.019637
 11 H s       :     0.948048  s :     0.948048
      pz      :     0.016066  p :     0.029177
      px      :     0.004088
      py      :     0.009023
 12 H s       :     0.951225  s :     0.951225
      pz      :     0.010312  p :     0.028958
      px      :     0.014939
      py      :     0.003707
 13 H s       :     0.949431  s :     0.949431
      pz      :     0.018589  p :     0.028455
      px      :     0.006326
      py      :     0.003539
 14 H s       :     0.947404  s :     0.947404
      pz      :     0.010635  p :     0.028816
      px      :     0.005206
      py      :     0.012975
 15 H s       :     0.951978  s :     0.951978
      pz      :     0.013478  p :     0.028904
      px      :     0.011086
      py      :     0.004339
 16 H s       :     0.949532  s :     0.949532
      pz      :     0.018799  p :     0.029002
      px      :     0.005744
      py      :     0.004459
 17 H s       :     0.946141  s :     0.946141
      pz      :     0.004997  p :     0.029201
      px      :     0.011411
      py      :     0.012794
 18 H s       :     0.947694  s :     0.947694
      pz      :     0.005671  p :     0.029193
      px      :     0.003887
      py      :     0.019636
 19 H s       :     0.948050  s :     0.948050
      pz      :     0.016065  p :     0.029177
      px      :     0.004088
      py      :     0.009024
 20 H s       :     0.947456  s :     0.947456
      pz      :     0.014580  p :     0.029060
      px      :     0.010763
      py      :     0.003717
 21 H s       :     0.947972  s :     0.947972
      pz      :     0.006809  p :     0.029006
      px      :     0.018445
      py      :     0.003752
 22 H s       :     0.947404  s :     0.947404
      pz      :     0.010635  p :     0.028815
      px      :     0.005205
      py      :     0.012975
 23 H s       :     0.951980  s :     0.951980
      pz      :     0.013477  p :     0.028904
      px      :     0.011087
      py      :     0.004340


                     *******************************
                     * LOEWDIN POPULATION ANALYSIS *
                     *******************************

----------------------
LOEWDIN ATOMIC CHARGES
----------------------
   0 C :   -0.035804
   1 C :   -0.034781
   2 C :   -0.035801
   3 C :   -0.038442
   4 C :   -0.034379
   5 C :   -0.042589
   6 C :   -0.034376
   7 C :   -0.038439
   8 H :    0.014789
   9 H :    0.022302
  10 H :    0.021228
  11 H :    0.013793
  12 H :    0.020999
  13 H :    0.016016
  14 H :    0.020073
  15 H :    0.017980
  16 H :    0.014787
  17 H :    0.022302
  18 H :    0.021228
  19 H :    0.013794
  20 H :    0.013936
  21 H :    0.023332
  22 H :    0.020074
  23 H :    0.017979

-------------------------------
LOEWDIN REDUCED ORBITAL CHARGES
-------------------------------
  0 C s       :     2.796697  s :     2.796697
      pz      :     1.022288  p :     3.038762
      px      :     1.006528
      py      :     1.009946
      dz2     :     0.053964  d :     0.200345
      dxz     :     0.039902
      dyz     :     0.016624
      dx2y2   :     0.029966
      dxy     :     0.059889
  1 C s       :     2.796824  s :     2.796824
      pz      :     1.029622  p :     3.031851
      px      :     1.010820
      py      :     0.991409
      dz2     :     0.044089  d :     0.206106
      dxz     :     0.044033
      dyz     :     0.020671
      dx2y2   :     0.048510
      dxy     :     0.048803
  2 C s       :     2.796691  s :     2.796691
      pz      :     1.022293  p :     3.038762
      px      :     1.006531
      py      :     1.009939
      dz2     :     0.053966  d :     0.200348
      dxz     :     0.039900
      dyz     :     0.016627
      dx2y2   :     0.029967
      dxy     :     0.059888
  3 C s       :     2.796476  s :     2.796476
      pz      :     1.018736  p :     3.042158
      px      :     0.990002
      py      :     1.033420
      dz2     :     0.036580  d :     0.199807
      dxz     :     0.047718
      dyz     :     0.033823
      dx2y2   :     0.058594
      dxy     :     0.023093
  4 C s       :     2.794889  s :     2.794889
      pz      :     1.024422  p :     3.034591
      px      :     1.002671
      py      :     1.007498
      dz2     :     0.019632  d :     0.204900
      dxz     :     0.054719
      dyz     :     0.051226
      dx2y2   :     0.051214
      dxy     :     0.028107
  5 C s       :     2.792735  s :     2.792735
      pz      :     1.021095  p :     3.043712
      px      :     1.029357
      py      :     0.993260
      dz2     :     0.026923  d :     0.206142
      dxz     :     0.046380
      dyz     :     0.050504
      dx2y2   :     0.062261
      dxy     :     0.020072
  6 C s       :     2.794884  s :     2.794884
      pz      :     1.024422  p :     3.034593
      px      :     1.002670
      py      :     1.007501
      dz2     :     0.019635  d :     0.204899
      dxz     :     0.054719
      dyz     :     0.051224
      dx2y2   :     0.051210
      dxy     :     0.028111
  7 C s       :     2.796481  s :     2.796481
      pz      :     1.018736  p :     3.042156
      px      :     0.989998
      py      :     1.033422
      dz2     :     0.036583  d :     0.199801
      dxz     :     0.047718
      dyz     :     0.033813
      dx2y2   :     0.058593
      dxy     :     0.023094
  8 H s       :     0.906582  s :     0.906582
      pz      :     0.043778  p :     0.078628
      px      :     0.018366
      py      :     0.016484
  9 H s       :     0.899331  s :     0.899331
      pz      :     0.016299  p :     0.078367
      px      :     0.029709
      py      :     0.032360
 10 H s       :     0.900329  s :     0.900329
      pz      :     0.018088  p :     0.078443
      px      :     0.016127
      py      :     0.044227
 11 H s       :     0.906464  s :     0.906464
      pz      :     0.039202  p :     0.079743
      px      :     0.016599
      py      :     0.023942
 12 H s       :     0.901453  s :     0.901453
      pz      :     0.025708  p :     0.077549
      px      :     0.036066
      py      :     0.015775
 13 H s       :     0.906753  s :     0.906753
      pz      :     0.042327  p :     0.077231
      px      :     0.019309
      py      :     0.015596
 14 H s       :     0.902277  s :     0.902277
      pz      :     0.027263  p :     0.077650
      px      :     0.017700
      py      :     0.032687
 15 H s       :     0.904276  s :     0.904276
      pz      :     0.032681  p :     0.077744
      px      :     0.029216
      py      :     0.015847
 16 H s       :     0.906581  s :     0.906581
      pz      :     0.043780  p :     0.078632
      px      :     0.018366
      py      :     0.016486
 17 H s       :     0.899330  s :     0.899330
      pz      :     0.016299  p :     0.078367
      px      :     0.029712
      py      :     0.032357
 18 H s       :     0.900330  s :     0.900330
      pz      :     0.018089  p :     0.078442
      px      :     0.016127
      py      :     0.044226
 19 H s       :     0.906464  s :     0.906464
      pz      :     0.039200  p :     0.079743
      px      :     0.016599
      py      :     0.023944
 20 H s       :     0.906386  s :     0.906386
      pz      :     0.036156  p :     0.079679
      px      :     0.027288
      py      :     0.016235
 21 H s       :     0.898751  s :     0.898751
      pz      :     0.020465  p :     0.077917
      px      :     0.041599
      py      :     0.015853
 22 H s       :     0.902280  s :     0.902280
      pz      :     0.027263  p :     0.077645
      px      :     0.017697
      py      :     0.032686
 23 H s       :     0.904277  s :     0.904277
      pz      :     0.032679  p :     0.077744
      px      :     0.029217
      py      :     0.015848


                      *****************************
                      * MAYER POPULATION ANALYSIS *
                      *****************************

  NA   - Mulliken gross atomic population
  ZA   - Total nuclear charge
  QA   - Mulliken gross atomic charge
  VA   - Mayer's total valence
  BVA  - Mayer's bonded valence
  FA   - Mayer's free valence

  ATOM       NA         ZA         QA         VA         BVA        FA
  0 C      6.0473     6.0000    -0.0473     3.9742     3.9742    -0.0000
  1 C      6.0369     6.0000    -0.0369     4.0066     4.0066    -0.0000
  2 C      6.0473     6.0000    -0.0473     3.9742     3.9742     0.0000
  3 C      6.0549     6.0000    -0.0549     3.9733     3.9733    -0.0000
  4 C      6.0244     6.0000    -0.0244     3.9999     3.9999    -0.0000
  5 C      6.0683     6.0000    -0.0683     3.9996     3.9996    -0.0000
  6 C      6.0243     6.0000    -0.0243     3.9999     3.9999    -0.0000
  7 C      6.0549     6.0000    -0.0549     3.9733     3.9733    -0.0000
  8 H      0.9785     1.0000     0.0215     0.9706     0.9706     0.0000
  9 H      0.9753     1.0000     0.0247     0.9664     0.9664     0.0000
 10 H      0.9769     1.0000     0.0231     0.9677     0.9677     0.0000
 11 H      0.9772     1.0000     0.0228     0.9697     0.9697    -0.0000
 12 H      0.9802     1.0000     0.0198     0.9674     0.9674     0.0000
 13 H      0.9779     1.0000     0.0221     0.9632     0.9632     0.0000
 14 H      0.9762     1.0000     0.0238     0.9616     0.9616     0.0000
 15 H      0.9809     1.0000     0.0191     0.9673     0.9673     0.0000
 16 H      0.9785     1.0000     0.0215     0.9706     0.9706     0.0000
 17 H      0.9753     1.0000     0.0247     0.9664     0.9664     0.0000
 18 H      0.9769     1.0000     0.0231     0.9677     0.9677    -0.0000
 19 H      0.9772     1.0000     0.0228     0.9697     0.9697    -0.0000
 20 H      0.9765     1.0000     0.0235     0.9681     0.9681    -0.0000
 21 H      0.9770     1.0000     0.0230     0.9690     0.9690    -0.0000
 22 H      0.9762     1.0000     0.0238     0.9616     0.9616     0.0000
 23 H      0.9809     1.0000     0.0191     0.9673     0.9673    -0.0000

  Mayer bond orders larger than 0.1
B(  0-C ,  1-C ) :   1.0502 B(  0-C ,  7-C ) :   1.0196 B(  0-C ,  8-H ) :   0.9682 
B(  0-C ,  9-H ) :   0.9725 B(  1-C ,  2-C ) :   1.0502 B(  1-C , 12-H ) :   0.9708 
B(  1-C , 13-H ) :   0.9629 B(  2-C ,  3-C ) :   1.0196 B(  2-C , 16-H ) :   0.9682 
B(  2-C , 17-H ) :   0.9725 B(  3-C ,  4-C ) :   1.0490 B(  3-C , 18-H ) :   0.9745 
B(  3-C , 19-H ) :   0.9702 B(  4-C ,  5-C ) :   1.0487 B(  4-C , 22-H ) :   0.9664 
B(  4-C , 23-H ) :   0.9668 B(  5-C ,  6-C ) :   1.0487 B(  5-C , 20-H ) :   0.9624 
B(  5-C , 21-H ) :   0.9694 B(  6-C ,  7-C ) :   1.0490 B(  6-C , 14-H ) :   0.9664 
B(  6-C , 15-H ) :   0.9668 B(  7-C , 10-H ) :   0.9745 B(  7-C , 11-H ) :   0.9702 


-------
TIMINGS
-------

Total SCF time: 0 days 0 hours 0 min 7 sec 

Total time                  ....       7.132 sec
Sum of individual times     ....       6.957 sec  ( 97.5%)

Fock matrix formation       ....       6.850 sec  ( 96.0%)
Diagonalization             ....       0.017 sec  (  0.2%)
Density matrix formation    ....       0.002 sec  (  0.0%)
Population analysis         ....       0.008 sec  (  0.1%)
Initial guess               ....       0.073 sec  (  1.0%)
Orbital Transformation      ....       0.000 sec  (  0.0%)
Orbital Orthonormalization  ....       0.000 sec  (  0.0%)
DIIS solution               ....       0.000 sec  (  0.0%)
SOSCF solution              ....       0.006 sec  (  0.1%)


           ************************************************************
           *        Program running with 4 parallel MPI-processes     *
           *              working on a common directory               *
           ************************************************************


------------------------------------------------------------------------------- 
                              ORCA-MATRIX DRIVEN CI                            
------------------------------------------------------------------------------- 


Wavefunction type
-----------------
Correlation treatment                      ...      CCSD     
Single excitations                         ... ON
Orbital optimization                       ... OFF
Calculation of Z vector                    ... OFF
Calculation of Brueckner orbitals          ... OFF
Perturbative triple excitations            ... ON
Calculation of F12 correction              ... OFF
Frozen core treatment                      ... chemical core (16 el)
Reference Wavefunction                     ... RHF
  Internal Orbitals:     8 ...   31 ( 24 MO's/ 48 electrons)
  Virtual  Orbitals:    32 ...  191 (160 MO's              )
Number of AO's                             ...    192
Number of electrons                        ...     64
Number of correlated electrons             ...     48

Algorithmic settings
--------------------
Integral transformation                    ... All integrals via the RI transformation
K(C) Formation                             ... RI-DLPNO
   PNO-Integral Storage                    ... ON DISK
   PNO occupation number cut-off           ... 1.000e-07
   Singles PNO occupation number cut-off   ... 3.000e-09
   PNO Mulliken prescreening cut-off       ... 1.000e-03
   Domain cut-off (Mulliken population)    ... 1.000e-03
   PNO Normalization                       ...    1
Maximum number of iterations               ...        50
Convergence tolerance (max. residuum)      ... 1.000e-05
Level shift for amplitude update           ... 2.000e-01
Maximum number of DIIS vectors             ...         7
DIIS turned on at iteration                ...         0
Damping before turning on DIIS             ...     0.500
Damping after turning on DIIS              ...     0.000
Pair specific amplitude update             ... OFF
Natural orbital iterations                 ... OFF
Perturbative natural orbital generation    ... OFF
Printlevel                                 ... 2

Singles Fock matrix elements calculated using PNOs.

Memory handling:
----------------
Maximum memory for working arrays          ...   8000 MB
Data storage in matrix containers          ... UNCOMPRESSED
Data type for integral storage             ... DOUBLE
In-Core Storage of quantities:
   Amplitudes+Sigma Vector      ... NO
   J+K operators                ... NO
   DIIS vectors                 ... NO
   3-external integrals         ... NO
   4-external integrals         ... NO

Localization treatment:
-----------------------
Localization option                        ...    6
Localization threshhold                    ... -1.0e+00
Using relative localization threshhold     ... 1.0e-08
Neglect threshold for strong pairs         ... 1.000e-05 Eh
Prescreening threshold for very weak pairs ... 1.000e-07 Eh

Initializing the integral package          ... done
Localizing the valence orbitals
------------------------------------------------------------------------------
                           ORCA ORBITAL LOCALIZATION
------------------------------------------------------------------------------

Input orbitals are from                  ... cyclooctane_BC.proc0.gbw
Output orbitals are to                   ... cyclooctane_BC.proc0.loc
Max. number of iterations                ... 128
Localizations seeded randomly            ... off
Convergence tolerance                    ... 1.000e-06
Using relative localization threshhold   ... 1.000e-08
Treshold for strong local MOs            ... 9.500e-01
Treshold for bond MOs                    ... 8.500e-01
Operator                                 ... 0
Orbital range for localization           ... 8 to 31
Localization criterion                   ... FOSTER-BOYS (AUGMENTED HESSIAN)
Doing the dipole integrals     ... o.k.
Initial value of the localization sum :   360.276550
ITERATION   0 : L=  377.4900413957 DL=  1.72e+01 (AVERGE_DL)=    0.2497353031 
ITERATION   1 : L=  378.1418020757 DL=  6.52e-01 (AVERGE_DL)=    0.0485947707 
ITERATION   2 : L=  378.1465503191 DL=  4.75e-03 (AVERGE_DL)=    0.0041477440 
ITERATION   3 : L=  378.1465753407 DL=  2.50e-05 (AVERGE_DL)=    0.0003010947 
ITERATION   4 : L=  378.1465754095 DL=  6.88e-08 (AVERGE_DL)=    0.0000157941 
LOCALIZATION SUM CONVERGED

------------------------------------------------------
AUGMENTED HESSIAN OPTIMIZATION OF FOSTER-BOYS ORBITALS
------------------------------------------------------

Spin operator:           0
Orbital window:          8 to 31
Number of iterations:    128
Gradient tolerance:      1.000e-06
Number of pairs:         276
Davidson threshold:      2000
Diagonalization method:  LAPACK
Iter:    0   L: 378.1465754095   Grad. norm: 1.359193e-03
   *** Likely close to a maximum now. ***
       Augmented Hessian eigenvalues:  1.06e-08 -1.76e+01 -1.77e+01 -1.77e+01 ... 
Iter:    1   L: 378.1465754148   Grad. norm: 2.367575e-10
LOCALIZATION HAS CONVERGED.

Eigenvalues of the Hessian:
  0 -1.764e+01
  1 -1.769e+01
  2 -1.770e+01
  3 -1.773e+01
  4 -1.775e+01
  5 -1.791e+01
  6 -1.796e+01
  7 -1.802e+01
  8 -1.840e+01
  9 -1.845e+01
    ...


------------------------------------------------------------------------------- 
                    LOCALIZED MOLECULAR ORBITAL COMPOSITIONS                   
------------------------------------------------------------------------------- 

The Mulliken populations for each LMO on each atom are computed
The LMO`s will be ordered according to atom index and type
  (A) Strongly localized MO`s have populations of >=0.950 on one atom
  (B) Two center bond orbitals have populations of >=0.850 on two atoms
  (C) Other MO`s are considered to be `delocalized`

FOUND  -   0 strongly local MO`s
       -  24 two center bond MO`s
       -   0 significantly delocalized MO`s

Bond-like localized orbitals:
MO  31:  23H  -   0.511035  and   4C  -   0.500304
MO  30:  22H  -   0.511042  and   4C  -   0.500219
MO  29:  21H  -   0.508171  and   5C  -   0.501502
MO  28:  20H  -   0.508988  and   5C  -   0.503332
MO  27:  19H  -   0.508989  and   3C  -   0.506094
MO  26:  18H  -   0.509016  and   3C  -   0.503726
MO  25:  17H  -   0.508780  and   2C  -   0.503048
MO  24:  16H  -   0.508974  and   2C  -   0.504545
MO  23:  15H  -   0.511034  and   6C  -   0.500305
MO  22:  14H  -   0.511043  and   6C  -   0.500217
MO  21:  13H  -   0.511453  and   1C  -   0.500343
MO  20:  12H  -   0.510579  and   1C  -   0.501237
MO  19:  11H  -   0.508987  and   7C  -   0.506096
MO  18:  10H  -   0.509016  and   7C  -   0.503726
MO  17:   9H  -   0.508779  and   0C  -   0.503051
MO  16:   8H  -   0.508973  and   0C  -   0.504547
MO  15:   7C  -   0.528621  and   6C  -   0.518447
MO  14:   7C  -   0.523927  and   0C  -   0.522866
MO  13:   6C  -   0.519185  and   5C  -   0.527459
MO  12:   5C  -   0.527457  and   4C  -   0.519188
MO  11:   4C  -   0.518449  and   3C  -   0.528619
MO  10:   3C  -   0.523928  and   2C  -   0.522864
MO   9:   2C  -   0.527381  and   1C  -   0.520583
MO   8:   1C  -   0.520583  and   0C  -   0.527379
Localized MO's were stored in: cyclooctane_BC.proc0.loc

Localizing the core orbitals
------------------------------------------------------------------------------
                           ORCA ORBITAL LOCALIZATION
------------------------------------------------------------------------------

Input orbitals are from                  ... cyclooctane_BC.proc0.loc
Output orbitals are to                   ... cyclooctane_BC.proc0.loc
Max. number of iterations                ... 128
Localizations seeded randomly            ... off
Convergence tolerance                    ... 1.000e-06
Using relative localization threshhold   ... 1.000e-08
Treshold for strong local MOs            ... 9.500e-01
Treshold for bond MOs                    ... 8.500e-01
Operator                                 ... 0
Orbital range for localization           ... 0 to 7
Localization criterion                   ... FOSTER-BOYS (AUGMENTED HESSIAN)
Doing the dipole integrals     ... o.k.
Initial value of the localization sum :    95.707980
ITERATION   0 : L=   95.7079992522 DL=  1.89e-05 (AVERGE_DL)=    0.0008222703 
ITERATION   1 : L=   95.7079992522 DL=  0.00e+00 (AVERGE_DL)=    0.0000000000 
LOCALIZATION SUM CONVERGED

------------------------------------------------------
AUGMENTED HESSIAN OPTIMIZATION OF FOSTER-BOYS ORBITALS
------------------------------------------------------

Spin operator:           0
Orbital window:          0 to 7
Number of iterations:    128
Gradient tolerance:      1.000e-06
Number of pairs:         28
Davidson threshold:      2000
Diagonalization method:  LAPACK
Iter:    0   L: 95.7079992522   Grad. norm: 2.652161e-04
   *** Likely close to a maximum now. ***
       Augmented Hessian eigenvalues:  4.00e-10 -3.37e+01 -3.37e+01 -3.40e+01 ... 
Iter:    1   L: 95.7079992524   Grad. norm: 1.748360e-15
LOCALIZATION HAS CONVERGED.

Eigenvalues of the Hessian:
  0 -3.374e+01
  1 -3.374e+01
  2 -3.397e+01
  3 -3.397e+01
  4 -3.408e+01
  5 -3.408e+01
  6 -3.423e+01
  7 -3.423e+01
  8 -9.811e+01
  9 -9.811e+01
    ...


------------------------------------------------------------------------------- 
                    LOCALIZED MOLECULAR ORBITAL COMPOSITIONS                   
------------------------------------------------------------------------------- 

The Mulliken populations for each LMO on each atom are computed
The LMO`s will be ordered according to atom index and type
  (A) Strongly localized MO`s have populations of >=0.950 on one atom
  (B) Two center bond orbitals have populations of >=0.850 on two atoms
  (C) Other MO`s are considered to be `delocalized`

FOUND  -   8 strongly local MO`s
       -   0 two center bond MO`s
       -   0 significantly delocalized MO`s

Rather strongly localized orbitals:
MO   7:   7C  -   0.999195
MO   6:   6C  -   0.999289
MO   5:   5C  -   0.999219
MO   4:   4C  -   0.999289
MO   3:   3C  -   0.999195
MO   2:   2C  -   0.999200
MO   1:   1C  -   0.999277
MO   0:   0C  -   0.999200
Localized MO's were stored in: cyclooctane_BC.proc0.loc

Warning: internal orbitals are localized - no re-canonicalization of internal orbitals

--------------------------
CLOSED-SHELL FOCK OPERATOR
--------------------------

RI-JK section for the Fock operator:
  RHF full Fock operator         ... done
  RHF frozen core Fock operator  ... done
Time needed for Fock operator              ...            2.278 sec
Reference energy                           ...   -312.277258645

--------------
DLPNO SETTINGS (2015 fully linear scaling implementation)
--------------

TCutMKN:           1.000e-03
TCutPAO:           1.000e-03
TCutPNO:           1.000e-07
TCutPNOSingles:    3.000e-09
TCutEN:            9.700e-01
TCutPAOExt:        1.000e-01
TCutPairs:         1.000e-05
TCutPre:           1.000e-07
TCutOSV:           1.000e-06
TCutDOij:          1.000e-05
TCutDO:            5.000e-03
TCutC:             1.000e-04
TCutCPAO:          1.000e-03
TCutCMO:           1.000e-03
TScaleDOMP2PreScr: 2.000e+00
TScaleMKNMP2PreScr:1.000e+01
TScalePNOMP2PreScr:1.000e+00
PAO overlap thresh 1.000e-08
Using PNOs for Singles Fock computation
Use new domains
Use fully linear algorithm
TCutTNO:           1.000e-09
TCutMP2Pairs:      1.000e-06
TCutDOStrong:      2.000e-03
TCutMKNStrong:     1.000e-02
TCutMKNWeak:       1.000e-01
TCutDOWeak:        4.000e-03
NTCutTNO:          1

--------------------------
Calculating differential overlap integrals ... ok
--------------------------
ELECTRON PAIR PRESCREENING
--------------------------

Dipole-based pair screening          .... used

   TCutDOij = 1.000000e-05
   TCutPre  = 1.000000e-07
   .... Finished loop over pairs
Total time spent in the prescreening                  ...     0.000 sec
sum of pair energies estimated for screened out pairs ...       0.000000000000 Eh
Thresholds for map construction and integral transformation for crude MP2:
   TCutMKN                    ...     1.0e-02
   TCutDO                     ...     1.0e-02
   TCutPairs                  ...     1.0e-05
   TCutPNO_CrudeMP2           ...     1.0e-07
   TCutPNOSingles_CrudeMP2    ...     3.0e-09
--------------------------------
LOCAL RI TRANSFORMATION (IAVPAO)
--------------------------------

Orbital window:       8 to 31
Number of PAOs:     192
Basis functions:    192 (96 shells)
Aux. functions:     672 (240 shells)

Processing maps (0.0 sec)
Average map sizes:
   Aux shells -> MOs              24.0
   Aux shells -> PAOs            192.0
   MOs        -> AO shells        92.1
   PAOs       -> AO shells        96.0

Calculating integrals (0.6 sec, 23.633 MB)
Sorting integrals (0.0 sec, 23.625 MB)
Total time for the integral transformation: 0.6 sec
--------------------------------
INITIAL GUESS AND PNO GENERATION
--------------------------------

PNO truncation parameters                   .... 
    PAOOverlapThresh   =        1.000e-08

    TCutPairs          =        1.000e-05
    TCutPNO            =        1.000e-07
    TCutPNOSingles     =        3.000e-09
    TCutMP2Pairs       =        1.000e-06
    TCutMKN            =        1.000e-02
    TCutDO             =        1.000e-02

Pair selection                          .... not used
Type of local MP2 treatment                 .... semi-local MP2
Strategy for PNO selection                  .... occupation number selection
Pair density normalization                  .... MP2 norm
Spin component scaling                      .... not used

   .... Finished loop over pairs
Making pair pair interaction lists          ... done

                       ===========================
                        300 OF  300 PAIRS ARE KEPT CCSD PAIRS
                          0 OF  300 PAIRS ARE KEPT MP2 PAIRS FOR (T)
                          0 OF  300 PAIRS ARE SKIPPED
                       ===========================

Total time spent in the initial guess                 ...     1.239 sec
SL-MP2 correlation energy (all non-screened pairs)    ...      -1.113656834782 Eh

Initial PNO correlation energy                        ...      -1.113037061734 Eh
sum of pair energies prescreened and skipped MP2 pairs...       0.000000000000 Eh
sum of pair energies of crude MP2 skipped pairs only  ...       0.000000000000 Eh
sum of MP2 pair energies for pairs that were not kept ...       0.000000000000 Eh
sum of PNO error estimates for the kept pairs         ...      -0.000619773047 Eh
                                                          --------------------
sum of all corrections                                         -0.000619773047
Initial total correlation energy                               -1.113656834782
Thresholds for map construction and integral transformation for fine MP2 and CCSD(T) calculation:
   TCutMKN   ...     1.0e-03
   TCutDO    ...     5.0e-03
   TCutPairs ...     1.0e-05
   TCutCMO   ...     1.0e-03
   TCutCPAO  ...     1.0e-03

Thresholds for map construction and integral transformation for strong Triples:
   TCutMKN   ...     1.0e-02
   TCutDO    ...     1.0e-02
   TCutCMO   ...     1.0e-03
   TCutCPAO  ...     1.0e-03

Thresholds for map construction and integral transformation for weak Triples:
   TCutMKN   ...     1.0e-01
   TCutDO    ...     2.0e-02
   TCutCMO   ...     1.0e-03
   TCutCPAO  ...     1.0e-03

--------------------------------
LOCAL RI TRANSFORMATION (IAVPAO)
--------------------------------

Orbital window:       8 to 31
Number of PAOs:     192
Basis functions:    192 (96 shells)
Aux. functions:     672 (240 shells)

Processing maps (0.0 sec)
Average map sizes:
   Aux shells -> MOs              24.0
   Aux shells -> PAOs            192.0
   MOs        -> AO shells        92.1
   PAOs       -> AO shells        96.0

Calculating integrals (0.5 sec, 23.633 MB)
Sorting integrals (0.0 sec, 23.625 MB)
Total time for the integral transformation: 0.6 sec
--------------------------------
INITIAL GUESS AND PNO GENERATION
--------------------------------

PNO truncation parameters                   .... 
    ScaleTCutPNO       =        1.000e-02
    PAOOverlapThresh   =        1.000e-08

    TCutPairs          =        1.000e-05
    TCutPNO            =        1.000e-07
    TCutPNOSingles     =        3.000e-09
    TCutMP2Pairs       =        1.000e-06
    TCutMKN            =        1.000e-03
    TCutDO             =        5.000e-03

Pair selection                          .... not used
Type of local MP2 treatment                 .... full local PMP2
Strategy for PNO selection                  .... occupation number selection
Pair density normalization                  .... MP2 norm
Spin component scaling                      .... not used

PASS-1: Formation of initial guess LMP2 amplitudes
Initial amplitudes guess done. Entering LMP2 iteration loop:
   Max. no of iterations          ...  50
   Energy convergence tolerance   ...    1.0e-07
   Residual convergence tolerance ...    5.0e-07
   Fock matrix cutoff             ...    1.0e-05 Eh
   DIIS convergence acceleration parameters:
        Max # vectors in DIIS     ... 7
        Start iteration of DIIS   ... 0
        Levelshift                ... 2.000e-01
        Damping factor 1          ... 5.000e-01
        Damping factor 2          ... 1.000e+00
   L-MP2 PNO cut-off              ...   1.0e-09
   L-MP2 PNO cut-off (core)       ...   1.0e-11
                           *** Turning on DIIS ***
LMP2-Iter=   0:  ELMP2= -1.136042798556  DE=   2.2e-02 RMAX=   3.2e-03
LMP2-Iter=   1:  ELMP2= -1.147091407765  DE=   1.1e-02 RMAX=   1.2e-03
LMP2-Iter=   2:  ELMP2= -1.148694263720  DE=   1.6e-03 RMAX=   1.5e-04
LMP2-Iter=   3:  ELMP2= -1.148807254667  DE=   1.1e-04 RMAX=   4.7e-05
LMP2-Iter=   4:  ELMP2= -1.148809324923  DE=   2.1e-06 RMAX=   5.1e-06
LMP2-Iter=   5:  ELMP2= -1.148808409168  DE=   9.2e-07 RMAX=   1.7e-06
LMP2-Iter=   6:  ELMP2= -1.148808338565  DE=   7.1e-08 RMAX=   1.6e-07
LMP2-Iter=   7:  ELMP2= -1.148808334796  DE=   3.8e-09 RMAX=   5.4e-08 => CONVERGED
PASS-2: Formation of Pair natural orbitals
   .... Finished loop over pairs

 PNO Occupation Number Statistics: 
  | Av. % of trace(Dij) retained        ...  99.481292749300
  | sigma^2 in % of trace(Dij) retained ...   3.59e-01
  | Av. % of trace(Di) retained         ...  99.999845614738
  | sigma^2 in % of trace(Di) retained  ...   6.67e-10
 Distributions of % trace(Dij) recovered:
  |       >= 99.9  ...   116 ( 38.7 % of all pairs)
  |   [90.0, 99.0) ...    65 ( 21.7 % of all pairs)
  |   [99.0, 99.9) ...   119 ( 39.7 % of all pairs)
 Distributions of % trace(Di) recovered :
  |       >= 99.9  ...    24 (100.0 % of all I-pairs )

Making pair pair interaction lists          ... done

                       ===========================
                        300 OF  300 PAIRS ARE KEPT
                       ===========================

Total time spent in the initial guess                 ...     8.734 sec
L-MP2 correlation energy (all non-screened pairs)     ...      -1.148808334796 Eh
L-MP2 PNO error correction                            ...      -0.000011819211 Eh
                                                          --------------------
Initial total L-MP2 energy (non-screened pairs)       ...      -1.148820154007 Eh

Initial PNO correlation energy                        ...      -1.148253306303 Eh
sum of pair energies estimated for screened out pairs ...       0.000000000000 Eh
sum of MP2 pair energies for pairs that were not kept ...       0.000000000000 Eh
sum of PNO error estimates for the kept pairs         ...      -0.000566847704 Eh
                                                          --------------------
sum of all corrections                                         -0.000566847704
Initial total correlation energy                               -1.148820154007
Thresholds for map construction and integral transformation for fine MP2 and CCSD(T) calculation:
   TCutMKN   ...     1.0e-03
   TCutDO    ...     5.0e-03
   TCutPairs ...     1.0e-05
   TCutCMO   ...     1.0e-03
   TCutCPAO  ...     1.0e-03

Time for aux screen maps:            0.005
Time for maps after fine MP2:            0.016
-----------------------------
LOCAL RI TRANSFORMATION (IJV)
-----------------------------

Orbital window:       8 to 31
Basis functions:    192 (96 shells)
Aux. functions:     672 (240 shells)

Processing maps (0.0 sec)
Average map sizes:
   Aux shells -> MOs(i)           24.0
   Aux shells -> MOs(j)           24.0
   MOs        -> AO shells        92.1

Calculating integrals (0.5 sec, 2.961 MB)
Sorting integrals (0.0 sec, 2.953 MB)
Total time for the integral transformation: 0.6 sec
--------------------------------
LOCAL RI TRANSFORMATION (VABPAO)
--------------------------------

Number of PAOs:     192
Basis functions:    192 (96 shells)
Aux. functions:     672 (240 shells)

Processing maps (0.0 sec)
Average map sizes:
   Aux shells -> PAOs            192.0
   PAOs       -> AO shells        96.0

Calculating integrals (0.9 sec, 336.389 MB)
Finished


-------------------------------------
Pair Pair Term precalculation with     
RI-(ij|mn) and (im|jn) transformation  
ON THE FLY                             
-------------------------------------

   IBatch   1 (of   1)              ... done (   36.414 sec)
Total EXT                           ...          36.414 sec

---------------------
RI-PNO TRANSFORMATION
---------------------

Total Number of PNOs                   ...  7771
Average number of PNOs per pair        ...    25
Maximal number of PNOs per pair        ...    45
   #pairs with  1 -  5 PNOs   :    0
   #pairs with  6 - 10 PNOs   :   32
   #pairs with 11 - 15 PNOs   :   37
   #pairs with 16 - 20 PNOs   :   34
   #pairs with 21 - 25 PNOs   :   39
   #pairs with 26 - 30 PNOs   :   30
   #pairs with 31 - 35 PNOs   :   56
   #pairs with 36 - 40 PNOs   :   62
   #pairs with 41 - 45 PNOs   :   10
   #pairs with 46 - 50 PNOs   :    0

Generation of (ij|ab)[P] integrals            ... on
Generation of (ia|bc)[P],(ja|bc)[P] integrals ... on
Storage of 3 and 4 external integrals         ... on
Generation of ALL (ka|bc)[P] integrals        ... on
Keep RI integrals in memory                   ... off

Ibatch:  1 (of  1)
Starting 2-4 index PNO integral generation ... done

Timings:
Total PNO integral transformation time     ...         11.314 sec
Size of the 3-external file                ...        62 MB
Size of the 4-external file                ...       282 MB
Size of the IKJL file                      ...         0 MB
Size of the all 3-external file            ...       746 MB
Size of the 1-external file                ...         4 MB

Making pair/pair overlap matrices          ... done (    2.476 sec)
Size of the pair overlap file              ... 304 MB
Redoing the guess amplitudes               ... done (    0.002 sec)

-------------------------
FINAL STARTUP INFORMATION
-------------------------

E(0)                                       ...   -312.277258645
E(L-MP2)                                   ...     -1.148820154
E(L-MP2) including corrections             ...     -1.148820154
Initial E(tot)                             ...   -313.426078799
<T|T>                                      ...      0.366397749
Number of pairs included                   ... 300
Total number of pairs                      ... 300

------------------------------------------------
                  RHF COUPLED CLUSTER ITERATIONS
------------------------------------------------

Number of PNO amplitudes to be optimized   ...       236847
Number of non-PNO amplitudes               ...      7680000
Untruncated number of regular amplitudes   ...      7680000

Iter       E(tot)           E(Corr)          Delta-E          Residual     Time
  0   -313.391146984     -1.113321491      0.035498663      0.018613781    5.56
                           *** Turning on DIIS ***
  1   -313.482240388     -1.204414895     -0.091093404      0.007203118    5.49
  2   -313.522512470     -1.244686977     -0.040272082      0.001595286    5.54
  3   -313.527642168     -1.249816676     -0.005129699      0.000510771    8.10
  4   -313.528607336     -1.250781843     -0.000965168      0.000086743    5.57
  5   -313.528752960     -1.250927467     -0.000145624      0.000023784    5.58
  6   -313.528777530     -1.250952038     -0.000024571      0.000005388    5.58
               --- The Coupled-Cluster iterations have converged ---

----------------------
COUPLED CLUSTER ENERGY
----------------------

E(0)                                       ...   -312.277258645
E(CORR)(strong-pairs)                      ...     -1.250952038
E(CORR)(weak-pairs)                        ...     -0.000566848
E(CORR)(corrected)                         ...     -1.251518885
E(TOT)                                     ...   -313.528777530
Singles Norm <S|S>**1/2                    ...      0.047857300  
T1 diagnostic                              ...      0.006907606  

------------------
LARGEST AMPLITUDES
------------------
  20-> 41  20-> 41       0.041520
  23-> 41  23-> 41       0.040492
  31-> 41  31-> 41       0.040490
  16-> 41  16-> 41       0.040219
  24-> 41  24-> 41       0.040219
  19-> 41  19-> 41       0.039330
  27-> 41  27-> 41       0.039330
  28-> 32  28-> 32       0.038757
  28-> 41  28-> 41       0.038604
  29-> 41  29-> 41       0.038368
  27-> 32  27-> 32       0.038209
  19-> 32  19-> 32       0.038208
  20-> 32  20-> 32       0.037907
  30-> 32  30-> 32       0.037874
  22-> 32  22-> 32       0.037872
  17-> 32  17-> 32       0.037641


-------------------------------------------
DLPNO BASED TRIPLES CORRECTION
-------------------------------------------

Singles multiplier          ...  1.000000
TCutTNO                     ... 1.000e-09
TCutMP2Pairs                ... 1.000e-06
TCutDOStrong                ... 1.000e-02
TCutMKNStrong               ... 1.000e-02
TCutDOWeak                  ... 2.000e-02
TCutMKNWeak                 ... 1.000e-01

Fragment selection                          .... not used
Number of Triples that are to be computed   ...      2576

 . . . . . . . . .
10% done  
20% done  
30% done  
40% done  
50% done  
60% done  
70% done  
80% done  
90% done               (     97.114 sec)
Triples timings:
Total time for T0               ...   105.649 sec
Total time for Iterative (T)    ...     0.000 sec
Total time of overall (T)       ...   105.651 sec

Triples List generation         ...     0.000 sec
TNO generation                  ...     8.530 sec
Pair density generation         ...     0.003 sec
Look up tables                  ...     0.000 sec
Generating 3-index integrals    ...    56.156 sec
  Make 4-ind.int. from 3-ind.int...    13.410 sec
  Projecting amplitudes (D + S) ...    12.741 sec
  Downprojecting integrals      ...     0.004 sec
  Energy contr. (sum over a,b,c)...     4.270 sec
Fitting ET(->0)                 ...     0.000 sec

Everything after 3-index        ...    40.958 sec

Timing details:
 TNO integrals                  ...    67.800 sec
   Reading 3-index integrals    ...     0.066 sec
   Sorting integrals            ...    10.838 sec
       Sorting integrals 1      ...     0.003 sec
       Sorting integrals 2      ...     4.829 sec
       Sorting integrals 3      ...     0.462 sec
       Sorting integrals 4      ...     0.069 sec
       Sorting integrals 5      ...     0.168 sec
       Sorting integrals 6      ...     5.307 sec
   Calculating local VM**-1/2   ...     0.493 sec
   Orthogonal. integrals        ...     0.850 sec
   Multipl. 3-index integrals   ...    55.553 sec
   All concerning IRIab (w/TNO) ...     6.186 sec

 Calculate W0/W1                ...    10.516 sec
 W 3-ext contribution           ...     5.609 sec
 W 3-int contribution           ...     2.205 sec
 Sorting W                      ...     2.482 sec

 V exchange contribution        ...     1.715 sec

 Timings for Triples without generation
     of 3-index integrals       ...    40.951 sec
       0 weak pairs             ...    40.951 sec
       1 weak pair              ...     0.000 sec
       2 weak pairs             ...     0.000 sec
       3 weak pairs             ...     0.000 sec
  Extra time for extrapolation  ...     0.000 sec

Number of Triples   (0, 1, 2, 3 weak pairs; overall):   2576       0       0       0  (  2576)
Number of Atoms     (0, 1, 2, 3 weak pairs; overall):   22.1     0.0     0.0     0.0  (    24)
Number of PAOs      (0, 1, 2, 3 weak pairs; overall):  181.4     0.0     0.0     0.0  (   192)
Number of AuxFcns   (0, 1, 2, 3 weak pairs; overall):  253.8     0.0     0.0     0.0  (   672)
Number of TNOs      (0, 1, 2, 3 weak pairs         ):   63.4     0.0     0.0     0.0
Aver. Number of NTNO, Atoms, PAOs, AuxFcns / Triples:   2576    63.4    22.1   181.4   253.8

Triples Correction (T)                     ...     -0.038472335
Final correlation energy                   ...     -1.289991220
E(CCSD)                                    ...   -313.528777530
E(CCSD(T))                                 ...   -313.567249865


Maximum memory used throughout the entire calculation: 7812.0 MB


------------------------------------------------------------------------------- 
                                     TIMINGS                                   
------------------------------------------------------------------------------- 


Total execution time                   ...      216.153 sec

Localization of occupied MO's          ...        0.471 sec (  0.2%)
Fock Matrix Formation                  ...        2.278 sec (  1.1%)
Global overlap, Fock, MKN matrices     ...        0.228 sec (  0.1%)
Differential overlap integrals         ...        0.193 sec (  0.1%)
Organizing maps                        ...        0.050 sec (  0.0%)
RI 3-index integral generations        ...        2.625 sec (  1.2%)
RI-PNO integral transformation         ...       52.775 sec ( 24.4%)
Initial Guess                          ...        9.994 sec (  4.6%)
DIIS Solver                            ...        0.661 sec (  0.3%)
State Vector Update                    ...        0.013 sec (  0.0%)
Sigma-vector construction              ...       41.311 sec ( 19.1%)
  <D|H|D>(0-ext)                       ...        3.176 sec (  7.7% of sigma)
  <D|H|D>(2-ext Fock)                  ...        0.012 sec (  0.0% of sigma)
  <D|H|D>(2-ext)                       ...        7.749 sec ( 18.8% of sigma)
  <D|H|D>(4-ext)                       ...        2.350 sec (  5.7% of sigma)
  <D|H|D>(4-ext-corr)                  ...       12.888 sec ( 31.2% of sigma)
  CCSD doubles correction              ...        0.242 sec (  0.6% of sigma)
  <S|H|S>                              ...        0.353 sec (  0.9% of sigma)
  <S|H|D>(1-ext)                       ...        0.377 sec (  0.9% of sigma)
  <D|H|S>(1-ext)                       ...        0.013 sec (  0.0% of sigma)
  <S|H|D>(3-ext)                       ...        0.177 sec (  0.4% of sigma)
  Fock-dressing                        ...        7.108 sec ( 17.2% of sigma)
  Singles amplitudes                   ...        0.273 sec (  0.7% of sigma)
  (ik|jl)-dressing                     ...        2.263 sec (  5.5% of sigma)
  (ij|ab),(ia|jb)-dressing             ...        4.213 sec ( 10.2% of sigma)
  Pair energies                        ...        0.004 sec (  0.0% of sigma)
Total Time for computing (T)           ...      105.764 sec ( 48.9% of ALL)


-------------------------   --------------------
FINAL SINGLE POINT ENERGY      -313.567249865273
-------------------------   --------------------


                            ***************************************
                            *     ORCA property calculations      *
                            ***************************************

                                    ---------------------
                                    Active property flags
                                    ---------------------
   (+) Dipole Moment


------------------------------------------------------------------------------
                       ORCA ELECTRIC PROPERTIES CALCULATION
------------------------------------------------------------------------------

Dipole Moment Calculation                       ... on
Quadrupole Moment Calculation                   ... off
Polarizability Calculation                      ... off
GBWName                                         ... cyclooctane_BC.gbw
Electron density file                           ... cyclooctane_BC.scfp.tmp
The origin for moment calculation is the CENTER OF MASS  = ( 0.000816, -0.000002  0.000556)

-------------
DIPOLE MOMENT
-------------
                                X             Y             Z
Electronic contribution:      0.04024      -0.00005       0.02745
Nuclear contribution   :     -0.05218       0.00003      -0.03549
                        -----------------------------------------
Total Dipole Moment    :     -0.01194      -0.00001      -0.00805
                        -----------------------------------------
Magnitude (a.u.)       :      0.01440
Magnitude (Debye)      :      0.03659



--------------------
Rotational spectrum 
--------------------
 
Rotational constants in cm-1:     0.074615     0.070796     0.043047 
Rotational constants in MHz :  2236.902774  2122.422482  1290.524869 

 Dipole components along the rotational axes: 
x,y,z [a.u.] :     0.011945    -0.000014    -0.008037 
x,y,z [Debye]:     0.030361    -0.000036    -0.020428 

 

Timings for individual modules:

Sum of individual times         ...      224.178 sec (=   3.736 min)
GTO integral calculation        ...        0.593 sec (=   0.010 min)   0.3 %
SCF iterations                  ...        7.226 sec (=   0.120 min)   3.2 %
MDCI module                     ...      216.360 sec (=   3.606 min)  96.5 %
                             ****ORCA TERMINATED NORMALLY****
TOTAL RUN TIME: 0 days 0 hours 3 minutes 44 seconds 430 msec
cyclooctane_BC.gbw -> /home1/pantazis/klk/VDZ/Hydrocarbons/cyclooctane_BC.gbw
cyclooctane_BC.ges -> /home1/pantazis/klk/VDZ/Hydrocarbons/cyclooctane_BC.ges
cyclooctane_BC.job -> /home1/pantazis/klk/VDZ/Hydrocarbons/cyclooctane_BC.job
cyclooctane_BC.loc -> /home1/pantazis/klk/VDZ/Hydrocarbons/cyclooctane_BC.loc
cyclooctane_BC.nodes -> /home1/pantazis/klk/VDZ/Hydrocarbons/cyclooctane_BC.nodes
cyclooctane_BC.prop -> /home1/pantazis/klk/VDZ/Hydrocarbons/cyclooctane_BC.prop
cyclooctane_BC_property.txt -> /home1/pantazis/klk/VDZ/Hydrocarbons/cyclooctane_BC_property.txt
cyclooctane_BC.xyz -> /home1/pantazis/klk/VDZ/Hydrocarbons/cyclooctane_BC.xyz
cp: cannot stat cyclooctane_BC.asa.inp: No such file or directory
