! Job execution by suborca V 6.07 on ZEUS !
Job started from zeus1, running /scratch/pantazis/cyclohexane_chair__wPADAN/orca/orca copied from /opt/orca on zeussn127 in /scratch/pantazis/cyclohexane_chair__wPADAN
Job execution start: Sat Jun 29 10:49:14 CEST 2019
Shared library path: /scratch/pantazis/cyclohexane_chair__wPADAN/orca:/opt/openmpi_1.10.2/lib:/opt/intel/mkl/lib/intel64:/opt/intel/lib/intel64:
PBS Job ID is: 158725.icqc
izeussn127
izeussn127
izeussn127
izeussn127

                                 *****************
                                 * O   R   C   A *
                                 *****************

           --- An Ab Initio, DFT and Semiempirical electronic structure package ---

                  #######################################################
                  #                        -***-                        #
                  #          Department of theory and spectroscopy      #
                  #               Directorship: Frank Neese             #
                  #        Max Planck Institute fuer Kohlenforschung    #
                  #                Kaiser Wilhelm Platz 1               #
                  #                 D-45470 Muelheim/Ruhr               #
                  #                      Germany                        #
                  #                                                     #
                  #                  All rights reserved                #
                  #                        -***-                        #
                  #######################################################


                         Program Version 4.1.x  -  STABLE  -
                                (SVN: $Rev: 14094$)
                ($Date: 2019-06-14 15:01:15 +0200 (Fri, 14 Jun 2019) $)

                         (BUILD: $Sun Jun 23 06:18:31 CEST 2019$)


 With contributions from (in alphabetic order):
   Daniel Aravena         : Magnetic Properties
   Michael Atanasov       : Ab Initio Ligand Field Theory
   Alexander A. Auer      : GIAO ZORA
   Ute Becker             : Parallelization
   Giovanni Bistoni       : ED, Open-shell LED
   Martin Brehm           : Molecular dynamics
   Dmytro Bykov           : SCF Hessian
   Vijay G. Chilkuri      : MRCI spin determinant printing
   Dipayan Datta          : RHF DLPNO-CCSD density
   Achintya Kumar Dutta   : EOM-CC, STEOM-CC
   Dmitry Ganyushin       : Spin-Orbit,Spin-Spin,Magnetic field MRCI
   Miquel Garcia          : C-PCM Hessian
   Yang Guo               : DLPNO-NEVPT2, CIM, IAO-localization
   Andreas Hansen         : Spin unrestricted coupled pair/coupled cluster methods
   Benjamin Helmich-Paris : CASSCF linear response (MC-RPA)
   Lee Huntington         : MR-EOM, pCC
   Robert Izsak           : Overlap fitted RIJCOSX, COSX-SCS-MP3, EOM
   Christian Kollmar      : KDIIS, OOCD, Brueckner-CCSD(T), CCSD density
   Simone Kossmann        : Meta GGA functionals, TD-DFT gradient, OOMP2, MP2 Hessian
   Martin Krupicka        : AUTO-CI
   Lucas Lang             : DCDCAS
   Dagmar Lenk            : GEPOL surface, SMD
   Dimitrios Liakos       : Extrapolation schemes; parallel MDCI
   Dimitrios Manganas     : ROCIS; embedding schemes
   Dimitrios Pantazis     : SARC Basis sets
   Taras Petrenko         : DFT Hessian,TD-DFT gradient, ASA, ECA, R-Raman, ABS, FL, XAS/XES, NRVS
   Peter Pinski           : DLPNO-MP2, DLPNO-MP2 Gradient
   Christoph Reimann      : Effective Core Potentials
   Marius Retegan         : Local ZFS, SOC
   Christoph Riplinger    : Optimizer, TS searches, QM/MM, DLPNO-CCSD(T), (RO)-DLPNO pert. Triples
   Tobias Risthaus        : Range-separated hybrids, TD-DFT gradient, RPA, STAB
   Michael Roemelt        : Restricted open shell CIS
   Masaaki Saitow         : Open-shell DLPNO
   Barbara Sandhoefer     : DKH picture change effects
   Avijit Sen             : IP-ROCIS
   Kantharuban Sivalingam : CASSCF convergence, NEVPT2, FIC-MRCI
   Bernardo de Souza      : ESD, SOC TD-DFT
   Georgi Stoychev        : AutoAux, RI-MP2 NMR
   Willem Van den Heuvel  : Paramagnetic NMR
   Boris Wezisla          : Elementary symmetry handling
   Frank Wennmohs         : Technical directorship


 We gratefully acknowledge several colleagues who have allowed us to
 interface, adapt or use parts of their codes:
   Stefan Grimme, W. Hujo, H. Kruse,             : VdW corrections, initial TS optimization,
                  C. Bannwarth                     DFT functionals, gCP, sTDA/sTD-DF
   Ed Valeev                                     : LibInt (2-el integral package), F12 methods
   Garnet Chan, S. Sharma, J. Yang, R. Olivares  : DMRG
   Ulf Ekstrom                                   : XCFun DFT Library
   Mihaly Kallay                                 : mrcc  (arbitrary order and MRCC methods)
   Andreas Klamt, Michael Diedenhofen            : otool_cosmo (COSMO solvation model)
   Jiri Pittner, Ondrej Demel                    : Mk-CCSD
   Frank Weinhold                                : gennbo (NPA and NBO analysis)
   Christopher J. Cramer and Donald G. Truhlar   : smd solvation model
   Lars Goerigk                                  : TD-DFT with DH, B97 family of functionals
   V. Asgeirsson, H. Jonsson                     : NEB implementation
   FAccTs GmbH                                   : IRC, NEB, NEB-TS, Multilevel


 Your calculation uses the libint2 library for the computation of 2-el integrals
 For citations please refer to: http://libint.valeyev.net

 This ORCA versions uses:
   CBLAS   interface :  Fast vector & matrix operations
   LAPACKE interface :  Fast linear algebra routines
   SCALAPACK package :  Parallel linear algebra routines




***************************************
The coordinates will be read from file: cyclohexane_chair.xyz
***************************************


----- Orbital basis set information -----
Your calculation utilizes the basis: cc-pVDZ 
       H, B-Ne : Obtained from the ccRepo (grant-hill.group.shef.ac.uk/ccrepo) Feb. 2017
                 T. H. Dunning, Jr., J. Chem. Phys. 90, 1007 (1989)
            He : Obtained from the ccRepo (grant-hill.group.shef.ac.uk/ccrepo) Feb. 2017
                 D. E. Woon, T. H. Dunning, Jr., J. Chem. Phys. 100, 2975 (1994)
  Li-Be, Na-Mg : Obtained from the ccRepo (grant-hill.group.shef.ac.uk/ccrepo) Feb. 2017
                 B. P. Prascher, D. E. Woon, K. A. Peterson, T. H. Dunning, Jr., A. K. Wilson, Theor. Chem. Acc. 128, 69 (2011)
         Al-Ar : Obtained from the ccRepo (grant-hill.group.shef.ac.uk/ccrepo) Feb. 2017
                 D. E. Woon, T. H. Dunning, Jr., J. Chem. Phys. 98, 1358 (1993)
            Ca : Obtained from the Peterson Research Group Website (tyr0.chem.wsu.edu/~kipeters) Feb. 2017
                 J. Koput, K. A. Peterson, J. Phys. Chem. 106, 9595 (2002)
         Sc-Zn : Obtained from the ccRepo (grant-hill.group.shef.ac.uk/ccrepo) Feb. 2017
                 N. B. Balabanov, K. A. Peterson, J. Chem. Phys. 123, 064107 (2005)
                 N. B. Balabanov, K. A. Peterson, J. Chem. Phys. 125, 074110 (2006)
         Ga-Kr : Obtained from the ccRepo (grant-hill.group.shef.ac.uk/ccrepo) Feb. 2017
                 A. K. Wilson, D. E. Woon, K. A. Peterson, T. H. Dunning, Jr., J. Chem. Phys. 110, 7667 (1999)

----- AuxC basis set information -----
Your calculation utilizes the auxiliary basis: cc-pVDZ/C 
  H-He, B, Ne, Al-Ar, Ga-Br : Obtained from the EMSL Basis Set Exchange (bse.pnl.gov) Feb. 2017
                              F. Weigend, A. Kohn, C. Hattig, J. Chem. Phys. 116, 3175 (2002)
               Li-Be, Na-Mg : Obtained from the EMSL Basis Set Exchange (bse.pnl.gov) Feb. 2017
                              C. Haettig, Phys. Chem. Chem. Phys. 7, 59 (2005)
                        C-F : Obtained from the EMSL Basis Set Exchange (bse.pnl.gov) Feb. 2017
                              C. Haettig, Phys. Chem. Chem. Phys. 7, 59 (2005)
                              F. Weigend, A. Kohn, C. Hattig, J. Chem. Phys. 116, 3175 (2002)
                         Kr : Obtained from the TURBOMOLE 7.0 basis set library
                              F. Weigend, A. Kohn, C. Hattig, J. Chem. Phys. 116, 3175 (2002)
                              S function revised in Sep. 2009

----- AuxJK basis set information -----
Your calculation utilizes the auxiliary basis: cc-pVTZ/JK 
  H, B-F, Al-Cl, Ga-Br : Obtained from the TURBOMOLE 7.0 basis set library

================================================================================
                                        WARNINGS
                       Please study these warnings very carefully!
================================================================================


WARNING: MDCI localization with Augmented Hessian Foster-Boys
  ===> : Switching off randomization!

WARNING: Post HF methods need fully converged wavefunctions
  ===> : Setting SCFConvForced true
         You can overwrite this default with %scf ConvForced false 


INFO   : the flag for use of LIBINT has been found!

================================================================================
                                       INPUT FILE
================================================================================
NAME = cyclohexane_chair.inp
|  1> ! RHF DLPNO-CCSD(T) cc-pVDZ RIJK cc-pVTZ/JK cc-pVDZ/C
|  2> ! KDIIS SOSCF TightSCF TightPNO
|  3> 
|  4> %pal nprocs 4 end
|  5> 
|  6> %maxcore 8000
|  7> 
|  8> %scf maxiter 300
|  9>      shift shift 0.2 erroff 0.1 end
| 10> end
| 11> 
| 12> * xyzfile 0 1 cyclohexane_chair.xyz 
| 13> 
| 14> 
| 15>                          ****END OF INPUT****
================================================================================

                       ****************************
                       * Single Point Calculation *
                       ****************************

---------------------------------
CARTESIAN COORDINATES (ANGSTROEM)
---------------------------------
  C      0.434800    1.394100   -0.237500
  C      1.424300    0.320200    0.237400
  C      0.990200   -1.072900   -0.237400
  C     -0.990100    1.073200    0.237200
  C     -1.424900   -0.320400   -0.237200
  C     -0.434700   -1.393900    0.237200
  H      0.747000    2.395500    0.145300
  H      0.451900    1.448300   -1.351600
  H      2.448200    0.551100   -0.144700
  H      1.480900    0.332900    1.352200
  H      1.029500   -1.115400   -1.352100
  H      1.701100   -1.845000    0.145100
  H     -1.028700    1.115000    1.352300
  H     -1.701100    1.844100   -0.144500
  H     -2.448000   -0.550800    0.144500
  H     -1.480100   -0.333300   -1.352100
  H     -0.451900   -1.449200    1.352200
  H     -0.746900   -2.395300   -0.145500

----------------------------
CARTESIAN COORDINATES (A.U.)
----------------------------
  NO LB      ZA    FRAG     MASS         X           Y           Z
   0 C     6.0000    0    12.011    0.821653    2.634467   -0.448810
   1 C     6.0000    0    12.011    2.691537    0.605090    0.448621
   2 C     6.0000    0    12.011    1.871207   -2.027487   -0.448621
   3 C     6.0000    0    12.011   -1.871018    2.028054    0.448243
   4 C     6.0000    0    12.011   -2.692671   -0.605468   -0.448243
   5 C     6.0000    0    12.011   -0.821464   -2.634089    0.448243
   6 H     1.0000    0     1.008    1.411625    4.526839    0.274577
   7 H     1.0000    0     1.008    0.853967    2.736890   -2.554154
   8 H     1.0000    0     1.008    4.626428    1.041428   -0.273443
   9 H     1.0000    0     1.008    2.798495    0.629090    2.555288
  10 H     1.0000    0     1.008    1.945473   -2.107801   -2.555099
  11 H     1.0000    0     1.008    3.214613   -3.486545    0.274199
  12 H     1.0000    0     1.008   -1.943961    2.107045    2.555477
  13 H     1.0000    0     1.008   -3.214613    3.484844   -0.273065
  14 H     1.0000    0     1.008   -4.626050   -1.040861    0.273065
  15 H     1.0000    0     1.008   -2.796984   -0.629846   -2.555099
  16 H     1.0000    0     1.008   -0.853967   -2.738591    2.555288
  17 H     1.0000    0     1.008   -1.411436   -4.526461   -0.274955

--------------------------------
INTERNAL COORDINATES (ANGSTROEM)
--------------------------------
 C      0   0   0     0.000000000000     0.00000000     0.00000000
 C      1   0   0     1.535545984333     0.00000000     0.00000000
 C      2   1   0     1.534472371859   110.91199152     0.00000000
 C      1   2   3     1.535791948800   110.86362675    56.35231223
 C      4   1   2     1.535000768729   110.91472577   303.67298410
 C      5   4   1     1.535562974938   110.88885314    56.31740097
 H      1   2   3     1.116604961479   109.93823176   178.10573601
 H      1   2   3     1.115548681143   109.44918807   295.51567657
 H      2   1   3     1.116998849597   109.89666738   121.78116221
 H      2   1   3     1.116308151901   109.48557462   239.06207838
 H      3   2   1     1.116201966492   109.48822242    64.53590410
 H      3   2   1     1.117060190858   109.96954585   181.89344757
 H      4   1   2     1.116550585509   109.44744328    64.52489641
 H      4   1   2     1.116020922743   109.94006220   181.87441872
 H      5   4   1     1.116025385016   109.96214137   178.12889001
 H      5   4   1     1.116340208001   109.46031925   295.51135082
 H      6   5   4     1.116502991487   109.46421039    64.57990615
 H      6   5   4     1.116570682940   109.92512299   181.92085292

---------------------------
INTERNAL COORDINATES (A.U.)
---------------------------
 C      0   0   0     0.000000000000     0.00000000     0.00000000
 C      1   0   0     2.901761376431     0.00000000     0.00000000
 C      2   1   0     2.899732542883   110.91199152     0.00000000
 C      1   2   3     2.902226181914   110.86362675    56.35231223
 C      4   1   2     2.900731068257   110.91472577   303.67298410
 C      5   4   1     2.901793484022   110.88885314    56.31740097
 H      1   2   3     2.110077576973   109.93823176   178.10573601
 H      1   2   3     2.108081496417   109.44918807   295.51567657
 H      2   1   3     2.110821917643   109.89666738   121.78116221
 H      2   1   3     2.109516688156   109.48557462   239.06207838
 H      3   2   1     2.109316026814   109.48822242    64.53590410
 H      3   2   1     2.110937835828   109.96954585   181.89344757
 H      4   1   2     2.109974821281   109.44744328    64.52489641
 H      4   1   2     2.108973903710   109.94006220   181.87441872
 H      5   4   1     2.108982336184   109.96214137   178.12889001
 H      5   4   1     2.109577265407   109.46031925   295.51135082
 H      6   5   4     2.109884881615   109.46421039    64.57990615
 H      6   5   4     2.110012799921   109.92512299   181.92085292

---------------------
BASIS SET INFORMATION
---------------------
There are 2 groups of distinct atoms

 Group   1 Type C   : 17s4p1d contracted to 3s2p1d pattern {881/31/1}
 Group   2 Type H   : 4s1p contracted to 2s1p pattern {31/1}

Atom   0C    basis set group =>   1
Atom   1C    basis set group =>   1
Atom   2C    basis set group =>   1
Atom   3C    basis set group =>   1
Atom   4C    basis set group =>   1
Atom   5C    basis set group =>   1
Atom   6H    basis set group =>   2
Atom   7H    basis set group =>   2
Atom   8H    basis set group =>   2
Atom   9H    basis set group =>   2
Atom  10H    basis set group =>   2
Atom  11H    basis set group =>   2
Atom  12H    basis set group =>   2
Atom  13H    basis set group =>   2
Atom  14H    basis set group =>   2
Atom  15H    basis set group =>   2
Atom  16H    basis set group =>   2
Atom  17H    basis set group =>   2
-------------------------------
AUXILIARY BASIS SET INFORMATION
-------------------------------
There are 2 groups of distinct atoms

 Group   1 Type C   : 7s5p4d2f contracted to 7s5p4d2f pattern {1111111/11111/1111/11}
 Group   2 Type H   : 3s2p1d contracted to 3s2p1d pattern {111/11/1}

Atom   0C    basis set group =>   1
Atom   1C    basis set group =>   1
Atom   2C    basis set group =>   1
Atom   3C    basis set group =>   1
Atom   4C    basis set group =>   1
Atom   5C    basis set group =>   1
Atom   6H    basis set group =>   2
Atom   7H    basis set group =>   2
Atom   8H    basis set group =>   2
Atom   9H    basis set group =>   2
Atom  10H    basis set group =>   2
Atom  11H    basis set group =>   2
Atom  12H    basis set group =>   2
Atom  13H    basis set group =>   2
Atom  14H    basis set group =>   2
Atom  15H    basis set group =>   2
Atom  16H    basis set group =>   2
Atom  17H    basis set group =>   2
-------------------------------
AUXILIARY BASIS SET INFORMATION
-------------------------------
There are 2 groups of distinct atoms

 Group   1 Type C   : 10s7p5d2f1g contracted to 10s7p5d2f1g pattern {1111111111/1111111/11111/11/1}
 Group   2 Type H   : 4s3p2d1f contracted to 4s3p2d1f pattern {1111/111/11/1}

Atom   0C    basis set group =>   1
Atom   1C    basis set group =>   1
Atom   2C    basis set group =>   1
Atom   3C    basis set group =>   1
Atom   4C    basis set group =>   1
Atom   5C    basis set group =>   1
Atom   6H    basis set group =>   2
Atom   7H    basis set group =>   2
Atom   8H    basis set group =>   2
Atom   9H    basis set group =>   2
Atom  10H    basis set group =>   2
Atom  11H    basis set group =>   2
Atom  12H    basis set group =>   2
Atom  13H    basis set group =>   2
Atom  14H    basis set group =>   2
Atom  15H    basis set group =>   2
Atom  16H    basis set group =>   2
Atom  17H    basis set group =>   2

Checking for AutoStart:
The File: cyclohexane_chair.gbw exists
Trying to determine its content:
     ... Fine, the file contains calculation information
     ... Fine, the calculation information was read
     ... Fine, the file contains a basis set
     ... Fine, the basis set was read
     ... Fine, the file contains a geometry
     ... Fine, the geometry was read
     ... Fine, the file contains a set of orbitals
     ... Fine, the orbitals can be read
     => possible old guess file was deleted
     => GBW file was renamed to GES file
     => GES file is set as startup file
     => Guess is set to MORead
     ... now leaving AutoStart



           ************************************************************
           *        Program running with 4 parallel MPI-processes     *
           *              working on a common directory               *
           ************************************************************
------------------------------------------------------------------------------
                           ORCA GTO INTEGRAL CALCULATION
                           -- RI-GTO INTEGRALS CHOSEN --
------------------------------------------------------------------------------

                         BASIS SET STATISTICS AND STARTUP INFO

Gaussian basis set:
 # of primitive gaussian shells          ...  192
 # of primitive gaussian functions       ...  288
 # of contracted shells                  ...   72
 # of contracted basis functions         ...  144
 Highest angular momentum                ...    2
 Maximum contraction depth               ...    8
Auxiliary gaussian basis set:
 # of primitive gaussian shells          ...  270
 # of primitive gaussian functions       ...  834
 # of contracted shells                  ...  270
 # of contracted aux-basis functions     ...  834
 Highest angular momentum                ...    4
 Maximum contraction depth               ...    1
Ratio of auxiliary to basis functions    ...  5.79
Integral package used                  ... LIBINT
 One Electron integrals                  ... done
 Ordering auxiliary basis shells         ... done
 Integral threshhold             Thresh  ...  2.500e-11
 Primitive cut-off               TCut    ...  2.500e-12
 Pre-screening matrix                    ... done
 Shell pair data                         ... 
 Ordering of the shell pairs             ... done (   0.000 sec) 2625 of 2628 pairs
 Determination of significant pairs      ... done (   0.000 sec)
 Creation of shell pair data             ... done (   0.001 sec)
 Storage of shell pair data              ... done (   0.001 sec)
 Shell pair data done in (   0.003 sec)
 Computing two index integrals           ... done
 Cholesky decomposition of the V-matrix  ... done


Timings:
 Total evaluation time                   ...  59.742 sec (  0.996 min)
 One electron matrix time                ...  59.357 sec (  0.989 min) = 99.4%
 Schwartz matrix evaluation time         ...   0.163 sec (  0.003 min) =  0.3%
 Two index repulsion integral time       ...   0.131 sec (  0.002 min) =  0.2%
 Cholesky decomposition of V             ...   0.062 sec (  0.001 min) =  0.1%
 Three index repulsion integral time     ...   0.000 sec (  0.000 min) =  0.0%



           ************************************************************
           *        Program running with 4 parallel MPI-processes     *
           *              working on a common directory               *
           ************************************************************
-------------------------------------------------------------------------------
                                 ORCA SCF
-------------------------------------------------------------------------------

------------
SCF SETTINGS
------------
Hamiltonian:
 Ab initio Hamiltonian  Method          .... Hartree-Fock(GTOs)
 RI-approximation to the Coulomb term is turned on
   Number of auxiliary basis functions  .... 834
   RI-JK (J+K treated both via RI)      .... on


General Settings:
 Integral files         IntName         .... cyclohexane_chair
 Hartree-Fock type      HFTyp           .... RHF
 Total Charge           Charge          ....    0
 Multiplicity           Mult            ....    1
 Number of Electrons    NEL             ....   48
 Basis Dimension        Dim             ....  144
 Nuclear Repulsion      ENuc            ....    254.5607172722 Eh

Convergence Acceleration:
 DIIS                   CNVDIIS         .... off
 Newton-Raphson         CNVNR           .... off
 SOSCF                  CNVSOSCF        .... on
   Start iteration      SOSCFMaxIt      ....   150
   Startup grad/error   SOSCFStart      ....  0.003300
 Level Shifting         CNVShift        .... on
   Level shift para.    LevelShift      ....    0.2000
   Turn off err/grad.   ShiftErr        ....    0.1000
 Zerner damping         CNVZerner       .... off
 Static damping         CNVDamp         .... off
 Fernandez-Rico         CNVRico         .... off

SCF Procedure:
 Maximum # iterations   MaxIter         ....   300
 SCF integral mode      SCFMode         .... Direct
   Integral package                     .... LIBINT
 Reset frequency        DirectResetFreq ....    20
 Integral Threshold     Thresh          ....  2.500e-11 Eh
 Primitive CutOff       TCut            ....  2.500e-12 Eh

Convergence Tolerance:
 Convergence Check Mode ConvCheckMode   .... Total+1el-Energy
 Convergence forced     ConvForced      .... 1
 Energy Change          TolE            ....  1.000e-08 Eh
 1-El. energy change                    ....  1.000e-05 Eh
 Orbital Gradient       TolG            ....  1.000e-05
 Orbital Rotation angle TolX            ....  1.000e-05


Diagonalization of the overlap matrix:
Smallest eigenvalue                        ... 4.053e-03
Time for diagonalization                   ...    0.006 sec
Threshold for overlap eigenvalues          ... 1.000e-08
Number of eigenvalues below threshold      ... 0
Time for construction of square roots      ...    0.014 sec
Total time needed                          ...    0.021 sec

---------------------
INITIAL GUESS: MOREAD
---------------------
Guess MOs are being read from file: cyclohexane_chair.ges
Input Geometry matches current geometry (good)
Atom 0: N(Shells)= 6 and 10 - projection required
Input basis set needs projection
NBasis(read)= 348
NBasis(calc)= 144
Basis set overlap was calculated
Using GuessMode=FMatrix for the initial guess
C*T matrix was formed
Effective Fockian was calculated
Effective Fockian was diagonalized
Initial density was built
                      ------------------
                      INITIAL GUESS DONE (   0.0 sec)
                      ------------------
--------------
SCF ITERATIONS
--------------
ITER       Energy         Delta-E        Max-DP      RMS-DP      [F,P]   Gradient Norm
                             ****Turning on KDIIS(Cayley)****
  0   -234.2193751401   0.000000000000 0.00082372  0.00004733  0.0054065   0.005283576
  1   -234.2194713768  -0.000096236754 0.00157021  0.00009142  0.0048989   0.004799227
  2   -234.2196325380  -0.000161161138 0.00244286  0.00014814  0.0039275   0.003869085
                      *** Initiating the SOSCF procedure ***
                           *** Shutting down KDIIS ***
                      *** Re-Reading the Fockian *** 
                      *** Removing any level shift *** 
ITER      Energy       Delta-E        Grad      Rot      Max-DP    RMS-DP
  3   -234.21982503  -0.0001924901  0.002354  0.002354  0.003484  0.000221
  4   -234.21993441  -0.0001093774  0.000010  0.000009  0.000017  0.000001
                 **** Energy Check signals convergence ****
              ***Rediagonalizing the Fockian in SOSCF/NRSCF***

               *****************************************************
               *                     SUCCESS                       *
               *           SCF CONVERGED AFTER   5 CYCLES          *
               *****************************************************


----------------
TOTAL SCF ENERGY
----------------

Total Energy       :         -234.21993441 Eh           -6373.44844 eV

Components:
Nuclear Repulsion  :          254.56071727 Eh            6926.94928 eV
Electronic Energy  :         -488.78065168 Eh          -13300.39771 eV
One Electron Energy:         -819.49498188 Eh          -22299.59215 eV
Two Electron Energy:          330.71433020 Eh            8999.19443 eV

Virial components:
Potential Energy   :         -467.85448052 Eh          -12730.96764 eV
Kinetic Energy     :          233.63454611 Eh            6357.51921 eV
Virial Ratio       :            2.00250557


---------------
SCF CONVERGENCE
---------------

  Last Energy change         ...   -2.8280e-09  Tolerance :   1.0000e-08
  Last MAX-Density change    ...    4.8677e-06  Tolerance :   1.0000e-07
  Last RMS-Density change    ...    3.2639e-07  Tolerance :   5.0000e-09
  Last Orbital Gradient      ...    3.6815e-06  Tolerance :   1.0000e-05
  Last Orbital Rotation      ...    4.5873e-06  Tolerance :   1.0000e-05

             **** THE GBW FILE WAS UPDATED (cyclohexane_chair.gbw) ****
             **** DENSITY FILE WAS UPDATED (cyclohexane_chair.scfp.tmp) ****
             **** ENERGY FILE WAS UPDATED (cyclohexane_chair.en.tmp) ****
----------------
ORBITAL ENERGIES
----------------

  NO   OCC          E(Eh)            E(eV) 
   0   2.0000     -11.224490      -305.4339 
   1   2.0000     -11.224226      -305.4267 
   2   2.0000     -11.224204      -305.4261 
   3   2.0000     -11.223640      -305.4108 
   4   2.0000     -11.223614      -305.4101 
   5   2.0000     -11.223313      -305.4019 
   6   2.0000      -1.109609       -30.1940 
   7   2.0000      -0.995442       -27.0873 
   8   2.0000      -0.995207       -27.0810 
   9   2.0000      -0.819427       -22.2977 
  10   2.0000      -0.819255       -22.2931 
  11   2.0000      -0.742430       -20.2025 
  12   2.0000      -0.640858       -17.4386 
  13   2.0000      -0.597458       -16.2577 
  14   2.0000      -0.589977       -16.0541 
  15   2.0000      -0.589934       -16.0529 
  16   2.0000      -0.519208       -14.1284 
  17   2.0000      -0.518982       -14.1222 
  18   2.0000      -0.509008       -13.8508 
  19   2.0000      -0.476372       -12.9627 
  20   2.0000      -0.476240       -12.9591 
  21   2.0000      -0.448297       -12.1988 
  22   2.0000      -0.421133       -11.4596 
  23   2.0000      -0.420838       -11.4516 
  24   0.0000       0.177619         4.8333 
  25   0.0000       0.194440         5.2910 
  26   0.0000       0.216140         5.8815 
  27   0.0000       0.216163         5.8821 
  28   0.0000       0.257345         7.0027 
  29   0.0000       0.260256         7.0819 
  30   0.0000       0.260271         7.0823 
  31   0.0000       0.268359         7.3024 
  32   0.0000       0.278131         7.5683 
  33   0.0000       0.278188         7.5699 
  34   0.0000       0.296553         8.0696 
  35   0.0000       0.296607         8.0711 
  36   0.0000       0.379230        10.3194 
  37   0.0000       0.388363        10.5679 
  38   0.0000       0.388590        10.5741 
  39   0.0000       0.430857        11.7242 
  40   0.0000       0.431135        11.7318 
  41   0.0000       0.450509        12.2590 
  42   0.0000       0.586634        15.9631 
  43   0.0000       0.610923        16.6241 
  44   0.0000       0.626051        17.0357 
  45   0.0000       0.626195        17.0396 
  46   0.0000       0.633607        17.2413 
  47   0.0000       0.642815        17.4919 
  48   0.0000       0.642870        17.4934 
  49   0.0000       0.814967        22.1764 
  50   0.0000       0.815367        22.1873 
  51   0.0000       0.845929        23.0189 
  52   0.0000       0.845972        23.0201 
  53   0.0000       0.849594        23.1186 
  54   0.0000       0.849625        23.1195 
  55   0.0000       0.851920        23.1819 
  56   0.0000       0.875096        23.8126 
  57   0.0000       0.881599        23.9895 
  58   0.0000       0.881772        23.9942 
  59   0.0000       0.889613        24.2076 
  60   0.0000       0.908071        24.7099 
  61   0.0000       0.909340        24.7444 
  62   0.0000       0.909435        24.7470 
  63   0.0000       0.916779        24.9468 
  64   0.0000       0.920669        25.0527 
  65   0.0000       0.920734        25.0544 
  66   0.0000       0.929355        25.2890 
  67   0.0000       0.929459        25.2919 
  68   0.0000       0.946652        25.7597 
  69   0.0000       0.954677        25.9781 
  70   0.0000       1.121567        30.5194 
  71   0.0000       1.121639        30.5213 
  72   0.0000       1.151085        31.3226 
  73   0.0000       1.240256        33.7491 
  74   0.0000       1.240344        33.7515 
  75   0.0000       1.277333        34.7580 
  76   0.0000       1.392563        37.8936 
  77   0.0000       1.421538        38.6820 
  78   0.0000       1.454540        39.5800 
  79   0.0000       1.454639        39.5827 
  80   0.0000       1.492886        40.6235 
  81   0.0000       1.493051        40.6280 
  82   0.0000       1.595001        43.4022 
  83   0.0000       1.640838        44.6495 
  84   0.0000       1.641013        44.6542 
  85   0.0000       1.688387        45.9433 
  86   0.0000       1.694855        46.1194 
  87   0.0000       1.694897        46.1205 
  88   0.0000       1.850400        50.3519 
  89   0.0000       1.863684        50.7134 
  90   0.0000       1.863742        50.7150 
  91   0.0000       1.868611        50.8475 
  92   0.0000       1.890017        51.4300 
  93   0.0000       1.890413        51.4408 
  94   0.0000       1.893315        51.5197 
  95   0.0000       1.893353        51.5207 
  96   0.0000       1.903013        51.7836 
  97   0.0000       1.942250        52.8513 
  98   0.0000       1.947278        52.9881 
  99   0.0000       1.947481        52.9937 
 100   0.0000       1.951169        53.0940 
 101   0.0000       1.951439        53.1014 
 102   0.0000       1.988884        54.1203 
 103   0.0000       1.992586        54.2210 
 104   0.0000       2.009930        54.6930 
 105   0.0000       2.009947        54.6934 
 106   0.0000       2.025825        55.1255 
 107   0.0000       2.030933        55.2645 
 108   0.0000       2.031003        55.2664 
 109   0.0000       2.050547        55.7982 
 110   0.0000       2.127599        57.8949 
 111   0.0000       2.127751        57.8990 
 112   0.0000       2.191829        59.6427 
 113   0.0000       2.194650        59.7195 
 114   0.0000       2.231501        60.7222 
 115   0.0000       2.231572        60.7241 
 116   0.0000       2.297614        62.5213 
 117   0.0000       2.297733        62.5245 
 118   0.0000       2.304020        62.6956 
 119   0.0000       2.304128        62.6985 
 120   0.0000       2.412821        65.6562 
 121   0.0000       2.412943        65.6595 
 122   0.0000       2.495075        67.8944 
 123   0.0000       2.518982        68.5450 
 124   0.0000       2.519370        68.5555 
 125   0.0000       2.521686        68.6186 
 126   0.0000       2.551815        69.4384 
 127   0.0000       2.552016        69.4439 
 128   0.0000       2.556322        69.5611 
 129   0.0000       2.563087        69.7451 
 130   0.0000       2.640911        71.8628 
 131   0.0000       2.641177        71.8701 
 132   0.0000       2.713108        73.8274 
 133   0.0000       2.781424        75.6864 
 134   0.0000       2.848660        77.5160 
 135   0.0000       2.848778        77.5192 
 136   0.0000       2.852974        77.6334 
 137   0.0000       2.853539        77.6487 
 138   0.0000       2.931073        79.7585 
 139   0.0000       2.931241        79.7631 
 140   0.0000       3.001619        81.6782 
 141   0.0000       3.031898        82.5022 
 142   0.0000       3.032227        82.5111 
 143   0.0000       3.134577        85.2962 

                    ********************************
                    * MULLIKEN POPULATION ANALYSIS *
                    ********************************

-----------------------
MULLIKEN ATOMIC CHARGES
-----------------------
   0 C :   -0.053678
   1 C :   -0.054098
   2 C :   -0.053951
   3 C :   -0.053953
   4 C :   -0.053579
   5 C :   -0.054277
   6 H :    0.027199
   7 H :    0.026792
   8 H :    0.027097
   9 H :    0.026821
  10 H :    0.026823
  11 H :    0.027199
  12 H :    0.026790
  13 H :    0.027022
  14 H :    0.027085
  15 H :    0.026739
  16 H :    0.026846
  17 H :    0.027123
Sum of atomic charges:    0.0000000

--------------------------------
MULLIKEN REDUCED ORBITAL CHARGES
--------------------------------
  0 C s       :     3.087390  s :     3.087390
      pz      :     0.977322  p :     2.883526
      px      :     0.938588
      py      :     0.967616
      dz2     :     0.023052  d :     0.082761
      dxz     :     0.012049
      dyz     :     0.008110
      dx2y2   :     0.020355
      dxy     :     0.019195
  1 C s       :     3.087599  s :     3.087599
      pz      :     0.977451  p :     2.883655
      px      :     0.969022
      py      :     0.937182
      dz2     :     0.023061  d :     0.082844
      dxz     :     0.007911
      dyz     :     0.012278
      dx2y2   :     0.020830
      dxy     :     0.018764
  2 C s       :     3.087584  s :     3.087584
      pz      :     0.977365  p :     2.883545
      px      :     0.951709
      py      :     0.954471
      dz2     :     0.023057  d :     0.082822
      dxz     :     0.010271
      dyz     :     0.009909
      dx2y2   :     0.018183
      dxy     :     0.021402
  3 C s       :     3.087464  s :     3.087464
      pz      :     0.977336  p :     2.883687
      px      :     0.951744
      py      :     0.954607
      dz2     :     0.023056  d :     0.082803
      dxz     :     0.010273
      dyz     :     0.009890
      dx2y2   :     0.018168
      dxy     :     0.021415
  4 C s       :     3.087236  s :     3.087236
      pz      :     0.977276  p :     2.883529
      px      :     0.969005
      py      :     0.937248
      dz2     :     0.023064  d :     0.082814
      dxz     :     0.007903
      dyz     :     0.012256
      dx2y2   :     0.020827
      dxy     :     0.018764
  5 C s       :     3.087842  s :     3.087842
      pz      :     0.977345  p :     2.883669
      px      :     0.938637
      py      :     0.967687
      dz2     :     0.023045  d :     0.082767
      dxz     :     0.012052
      dyz     :     0.008111
      dx2y2   :     0.020353
      dxy     :     0.019206
  6 H s       :     0.944482  s :     0.944482
      pz      :     0.006321  p :     0.028319
      px      :     0.004935
      py      :     0.017063
  7 H s       :     0.945253  s :     0.945253
      pz      :     0.020301  p :     0.027955
      px      :     0.003550
      py      :     0.004104
  8 H s       :     0.944602  s :     0.944602
      pz      :     0.006309  p :     0.028301
      px      :     0.017655
      py      :     0.004337
  9 H s       :     0.945253  s :     0.945253
      pz      :     0.020288  p :     0.027926
      px      :     0.004129
      py      :     0.003509
 10 H s       :     0.945247  s :     0.945247
      pz      :     0.020289  p :     0.027930
      px      :     0.003792
      py      :     0.003848
 11 H s       :     0.944502  s :     0.944502
      pz      :     0.006311  p :     0.028299
      px      :     0.010385
      py      :     0.011602
 12 H s       :     0.945296  s :     0.945296
      pz      :     0.020285  p :     0.027914
      px      :     0.003786
      py      :     0.003843
 13 H s       :     0.944635  s :     0.944635
      pz      :     0.006320  p :     0.028342
      px      :     0.010415
      py      :     0.011608
 14 H s       :     0.944571  s :     0.944571
      pz      :     0.006320  p :     0.028344
      px      :     0.017676
      py      :     0.004348
 15 H s       :     0.945338  s :     0.945338
      pz      :     0.020287  p :     0.027923
      px      :     0.004123
      py      :     0.003512
 16 H s       :     0.945239  s :     0.945239
      pz      :     0.020284  p :     0.027915
      px      :     0.003534
      py      :     0.004096
 17 H s       :     0.944560  s :     0.944560
      pz      :     0.006320  p :     0.028317
      px      :     0.004934
      py      :     0.017063


                     *******************************
                     * LOEWDIN POPULATION ANALYSIS *
                     *******************************

----------------------
LOEWDIN ATOMIC CHARGES
----------------------
   0 C :   -0.038661
   1 C :   -0.038959
   2 C :   -0.038920
   3 C :   -0.038818
   4 C :   -0.038844
   5 C :   -0.038777
   6 H :    0.020908
   7 H :    0.017888
   8 H :    0.020909
   9 H :    0.017983
  10 H :    0.017969
  11 H :    0.020960
  12 H :    0.017995
  13 H :    0.020772
  14 H :    0.020820
  15 H :    0.017967
  16 H :    0.017964
  17 H :    0.020844

-------------------------------
LOEWDIN REDUCED ORBITAL CHARGES
-------------------------------
  0 C s       :     2.802347  s :     2.802347
      pz      :     1.023241  p :     3.032302
      px      :     0.999990
      py      :     1.009071
      dz2     :     0.058806  d :     0.204013
      dxz     :     0.027565
      dyz     :     0.019735
      dx2y2   :     0.050946
      dxy     :     0.046960
  1 C s       :     2.802354  s :     2.802354
      pz      :     1.023058  p :     3.032336
      px      :     1.009442
      py      :     0.999836
      dz2     :     0.058835  d :     0.204269
      dxz     :     0.019315
      dyz     :     0.028042
      dx2y2   :     0.052585
      dxy     :     0.045492
  2 C s       :     2.802389  s :     2.802389
      pz      :     1.023079  p :     3.032321
      px      :     1.004076
      py      :     1.005166
      dz2     :     0.058822  d :     0.204210
      dxz     :     0.024018
      dyz     :     0.023330
      dx2y2   :     0.043483
      dxy     :     0.054558
  3 C s       :     2.802341  s :     2.802341
      pz      :     1.022972  p :     3.032342
      px      :     1.004151
      py      :     1.005218
      dz2     :     0.058819  d :     0.204135
      dxz     :     0.024013
      dyz     :     0.023271
      dx2y2   :     0.043443
      dxy     :     0.054588
  4 C s       :     2.802244  s :     2.802244
      pz      :     1.023009  p :     3.032402
      px      :     1.009665
      py      :     0.999728
      dz2     :     0.058844  d :     0.204199
      dxz     :     0.019307
      dyz     :     0.027985
      dx2y2   :     0.052578
      dxy     :     0.045485
  5 C s       :     2.802576  s :     2.802576
      pz      :     1.023037  p :     3.032218
      px      :     1.000041
      py      :     1.009140
      dz2     :     0.058767  d :     0.203983
      dxz     :     0.027561
      dyz     :     0.019729
      dx2y2   :     0.050949
      dxy     :     0.046977
  6 H s       :     0.905008  s :     0.905008
      pz      :     0.017635  p :     0.074084
      px      :     0.017362
      py      :     0.039087
  7 H s       :     0.907611  s :     0.907611
      pz      :     0.045202  p :     0.074501
      px      :     0.014851
      py      :     0.014448
  8 H s       :     0.905094  s :     0.905094
      pz      :     0.017602  p :     0.073997
      px      :     0.040122
      py      :     0.016273
  9 H s       :     0.907692  s :     0.907692
      pz      :     0.045120  p :     0.074325
      px      :     0.014396
      py      :     0.014809
 10 H s       :     0.907680  s :     0.907680
      pz      :     0.045133  p :     0.074351
      px      :     0.014632
      py      :     0.014586
 11 H s       :     0.905058  s :     0.905058
      pz      :     0.017602  p :     0.073983
      px      :     0.027108
      py      :     0.029273
 12 H s       :     0.907734  s :     0.907734
      pz      :     0.045095  p :     0.074271
      px      :     0.014607
      py      :     0.014569
 13 H s       :     0.905009  s :     0.905009
      pz      :     0.017661  p :     0.074218
      px      :     0.027214
      py      :     0.029344
 14 H s       :     0.904969  s :     0.904969
      pz      :     0.017659  p :     0.074211
      px      :     0.040220
      py      :     0.016333
 15 H s       :     0.907719  s :     0.907719
      pz      :     0.045112  p :     0.074314
      px      :     0.014382
      py      :     0.014820
 16 H s       :     0.907741  s :     0.907741
      pz      :     0.045109  p :     0.074295
      px      :     0.014786
      py      :     0.014400
 17 H s       :     0.905055  s :     0.905055
      pz      :     0.017640  p :     0.074101
      px      :     0.017365
      py      :     0.039096


                      *****************************
                      * MAYER POPULATION ANALYSIS *
                      *****************************

  NA   - Mulliken gross atomic population
  ZA   - Total nuclear charge
  QA   - Mulliken gross atomic charge
  VA   - Mayer's total valence
  BVA  - Mayer's bonded valence
  FA   - Mayer's free valence

  ATOM       NA         ZA         QA         VA         BVA        FA
  0 C      6.0537     6.0000    -0.0537     3.9846     3.9846    -0.0000
  1 C      6.0541     6.0000    -0.0541     3.9846     3.9846    -0.0000
  2 C      6.0540     6.0000    -0.0540     3.9846     3.9846    -0.0000
  3 C      6.0540     6.0000    -0.0540     3.9847     3.9847     0.0000
  4 C      6.0536     6.0000    -0.0536     3.9846     3.9846     0.0000
  5 C      6.0543     6.0000    -0.0543     3.9845     3.9845     0.0000
  6 H      0.9728     1.0000     0.0272     0.9693     0.9693     0.0000
  7 H      0.9732     1.0000     0.0268     0.9659     0.9659    -0.0000
  8 H      0.9729     1.0000     0.0271     0.9692     0.9692    -0.0000
  9 H      0.9732     1.0000     0.0268     0.9659     0.9659    -0.0000
 10 H      0.9732     1.0000     0.0268     0.9659     0.9659     0.0000
 11 H      0.9728     1.0000     0.0272     0.9692     0.9692    -0.0000
 12 H      0.9732     1.0000     0.0268     0.9659     0.9659     0.0000
 13 H      0.9730     1.0000     0.0270     0.9693     0.9693     0.0000
 14 H      0.9729     1.0000     0.0271     0.9693     0.9693     0.0000
 15 H      0.9733     1.0000     0.0267     0.9658     0.9658     0.0000
 16 H      0.9732     1.0000     0.0268     0.9659     0.9659     0.0000
 17 H      0.9729     1.0000     0.0271     0.9693     0.9693     0.0000

  Mayer bond orders larger than 0.1
B(  0-C ,  1-C ) :   1.0398 B(  0-C ,  3-C ) :   1.0398 B(  0-C ,  6-H ) :   0.9737 
B(  0-C ,  7-H ) :   0.9644 B(  1-C ,  2-C ) :   1.0399 B(  1-C ,  8-H ) :   0.9737 
B(  1-C ,  9-H ) :   0.9644 B(  2-C ,  5-C ) :   1.0398 B(  2-C , 10-H ) :   0.9644 
B(  2-C , 11-H ) :   0.9737 B(  3-C ,  4-C ) :   1.0399 B(  3-C , 12-H ) :   0.9644 
B(  3-C , 13-H ) :   0.9737 B(  4-C ,  5-C ) :   1.0398 B(  4-C , 14-H ) :   0.9737 
B(  4-C , 15-H ) :   0.9644 B(  5-C , 16-H ) :   0.9644 B(  5-C , 17-H ) :   0.9737 


-------
TIMINGS
-------

Total SCF time: 0 days 0 hours 0 min 3 sec 

Total time                  ....       3.667 sec
Sum of individual times     ....       3.485 sec  ( 95.0%)

Fock matrix formation       ....       3.424 sec  ( 93.4%)
Diagonalization             ....       0.009 sec  (  0.3%)
Density matrix formation    ....       0.001 sec  (  0.0%)
Population analysis         ....       0.006 sec  (  0.2%)
Initial guess               ....       0.041 sec  (  1.1%)
Orbital Transformation      ....       0.000 sec  (  0.0%)
Orbital Orthonormalization  ....       0.000 sec  (  0.0%)
DIIS solution               ....       0.000 sec  (  0.0%)
SOSCF solution              ....       0.003 sec  (  0.1%)


           ************************************************************
           *        Program running with 4 parallel MPI-processes     *
           *              working on a common directory               *
           ************************************************************


------------------------------------------------------------------------------- 
                              ORCA-MATRIX DRIVEN CI                            
------------------------------------------------------------------------------- 


Wavefunction type
-----------------
Correlation treatment                      ...      CCSD     
Single excitations                         ... ON
Orbital optimization                       ... OFF
Calculation of Z vector                    ... OFF
Calculation of Brueckner orbitals          ... OFF
Perturbative triple excitations            ... ON
Calculation of F12 correction              ... OFF
Frozen core treatment                      ... chemical core (12 el)
Reference Wavefunction                     ... RHF
  Internal Orbitals:     6 ...   23 ( 18 MO's/ 36 electrons)
  Virtual  Orbitals:    24 ...  143 (120 MO's              )
Number of AO's                             ...    144
Number of electrons                        ...     48
Number of correlated electrons             ...     36

Algorithmic settings
--------------------
Integral transformation                    ... All integrals via the RI transformation
K(C) Formation                             ... RI-DLPNO
   PNO-Integral Storage                    ... ON DISK
   PNO occupation number cut-off           ... 1.000e-07
   Singles PNO occupation number cut-off   ... 3.000e-09
   PNO Mulliken prescreening cut-off       ... 1.000e-03
   Domain cut-off (Mulliken population)    ... 1.000e-03
   PNO Normalization                       ...    1
Maximum number of iterations               ...        50
Convergence tolerance (max. residuum)      ... 1.000e-05
Level shift for amplitude update           ... 2.000e-01
Maximum number of DIIS vectors             ...         7
DIIS turned on at iteration                ...         0
Damping before turning on DIIS             ...     0.500
Damping after turning on DIIS              ...     0.000
Pair specific amplitude update             ... OFF
Natural orbital iterations                 ... OFF
Perturbative natural orbital generation    ... OFF
Printlevel                                 ... 2

Singles Fock matrix elements calculated using PNOs.

Memory handling:
----------------
Maximum memory for working arrays          ...   8000 MB
Data storage in matrix containers          ... UNCOMPRESSED
Data type for integral storage             ... DOUBLE
In-Core Storage of quantities:
   Amplitudes+Sigma Vector      ... NO
   J+K operators                ... NO
   DIIS vectors                 ... NO
   3-external integrals         ... NO
   4-external integrals         ... NO

Localization treatment:
-----------------------
Localization option                        ...    6
Localization threshhold                    ... -1.0e+00
Using relative localization threshhold     ... 1.0e-08
Neglect threshold for strong pairs         ... 1.000e-05 Eh
Prescreening threshold for very weak pairs ... 1.000e-07 Eh

Initializing the integral package          ... done
Localizing the valence orbitals
------------------------------------------------------------------------------
                           ORCA ORBITAL LOCALIZATION
------------------------------------------------------------------------------

Input orbitals are from                  ... cyclohexane_chair.proc0.gbw
Output orbitals are to                   ... cyclohexane_chair.proc0.loc
Max. number of iterations                ... 128
Localizations seeded randomly            ... off
Convergence tolerance                    ... 1.000e-06
Using relative localization threshhold   ... 1.000e-08
Treshold for strong local MOs            ... 9.500e-01
Treshold for bond MOs                    ... 8.500e-01
Operator                                 ... 0
Orbital range for localization           ... 6 to 23
Localization criterion                   ... FOSTER-BOYS (AUGMENTED HESSIAN)
Doing the dipole integrals     ... o.k.
Initial value of the localization sum :   189.330258
ITERATION   0 : L=  203.6072329068 DL=  1.43e+01 (AVERGE_DL)=    0.3054726842 
ITERATION   1 : L=  204.9370836671 DL=  1.33e+00 (AVERGE_DL)=    0.0932300114 
ITERATION   2 : L=  204.9492587208 DL=  1.22e-02 (AVERGE_DL)=    0.0089205109 
ITERATION   3 : L=  204.9493498266 DL=  9.11e-05 (AVERGE_DL)=    0.0007716622 
ITERATION   4 : L=  204.9493500937 DL=  2.67e-07 (AVERGE_DL)=    0.0000417839 
LOCALIZATION SUM CONVERGED

------------------------------------------------------
AUGMENTED HESSIAN OPTIMIZATION OF FOSTER-BOYS ORBITALS
------------------------------------------------------

Spin operator:           0
Orbital window:          6 to 23
Number of iterations:    128
Gradient tolerance:      1.000e-06
Number of pairs:         153
Davidson threshold:      2000
Diagonalization method:  LAPACK
Iter:    0   L: 204.9493500937   Grad. norm: 9.331940e-04
   *** Likely close to a maximum now. ***
       Augmented Hessian eigenvalues:  6.36e-09 -1.85e+01 -1.85e+01 -1.85e+01 ... 
Iter:    1   L: 204.9493500969   Grad. norm: 2.055076e-10
LOCALIZATION HAS CONVERGED.

Eigenvalues of the Hessian:
  0 -1.845e+01
  1 -1.845e+01
  2 -1.848e+01
  3 -1.848e+01
  4 -1.849e+01
  5 -1.859e+01
  6 -1.865e+01
  7 -1.869e+01
  8 -1.887e+01
  9 -1.887e+01
    ...


------------------------------------------------------------------------------- 
                    LOCALIZED MOLECULAR ORBITAL COMPOSITIONS                   
------------------------------------------------------------------------------- 

The Mulliken populations for each LMO on each atom are computed
The LMO`s will be ordered according to atom index and type
  (A) Strongly localized MO`s have populations of >=0.950 on one atom
  (B) Two center bond orbitals have populations of >=0.850 on two atoms
  (C) Other MO`s are considered to be `delocalized`

FOUND  -   0 strongly local MO`s
       -  18 two center bond MO`s
       -   0 significantly delocalized MO`s

Bond-like localized orbitals:
MO  23:  17H  -   0.505418  and   5C  -   0.507659
MO  22:  16H  -   0.507502  and   5C  -   0.505885
MO  21:  15H  -   0.507579  and   4C  -   0.505792
MO  20:  14H  -   0.505422  and   4C  -   0.507603
MO  19:  13H  -   0.505466  and   3C  -   0.507579
MO  18:  12H  -   0.507541  and   3C  -   0.505847
MO  17:  11H  -   0.505381  and   2C  -   0.507726
MO  16:  10H  -   0.507513  and   2C  -   0.505848
MO  15:   9H  -   0.507509  and   1C  -   0.505870
MO  14:   8H  -   0.505443  and   1C  -   0.507680
MO  13:   7H  -   0.507539  and   0C  -   0.505780
MO  12:   6H  -   0.505368  and   0C  -   0.507685
MO  11:   5C  -   0.523513  and   4C  -   0.523405
MO  10:   5C  -   0.523507  and   2C  -   0.523427
MO   9:   4C  -   0.523438  and   3C  -   0.523436
MO   8:   3C  -   0.523529  and   0C  -   0.523401
MO   7:   2C  -   0.523421  and   1C  -   0.523418
MO   6:   1C  -   0.523525  and   0C  -   0.523399
Localized MO's were stored in: cyclohexane_chair.proc0.loc

Localizing the core orbitals
------------------------------------------------------------------------------
                           ORCA ORBITAL LOCALIZATION
------------------------------------------------------------------------------

Input orbitals are from                  ... cyclohexane_chair.proc0.loc
Output orbitals are to                   ... cyclohexane_chair.proc0.loc
Max. number of iterations                ... 128
Localizations seeded randomly            ... off
Convergence tolerance                    ... 1.000e-06
Using relative localization threshhold   ... 1.000e-08
Treshold for strong local MOs            ... 9.500e-01
Treshold for bond MOs                    ... 8.500e-01
Operator                                 ... 0
Orbital range for localization           ... 0 to 5
Localization criterion                   ... FOSTER-BOYS (AUGMENTED HESSIAN)
Doing the dipole integrals     ... o.k.
Initial value of the localization sum :    46.889038
ITERATION   0 : L=   46.8890517888 DL=  1.36e-05 (AVERGE_DL)=    0.0009521471 
ITERATION   1 : L=   46.8890517888 DL=  0.00e+00 (AVERGE_DL)=    0.0000000000 
LOCALIZATION SUM CONVERGED

------------------------------------------------------
AUGMENTED HESSIAN OPTIMIZATION OF FOSTER-BOYS ORBITALS
------------------------------------------------------

Spin operator:           0
Orbital window:          0 to 5
Number of iterations:    128
Gradient tolerance:      1.000e-06
Number of pairs:         15
Davidson threshold:      2000
Diagonalization method:  LAPACK
Iter:    0   L: 46.8890517888   Grad. norm: 3.944829e-06
   *** Likely close to a maximum now. ***
       Augmented Hessian eigenvalues:  1.57e-13 -3.36e+01 -3.37e+01 -3.37e+01 ... 
Iter:    1   L: 46.8890517888   Grad. norm: 2.115547e-19
LOCALIZATION HAS CONVERGED.

Eigenvalues of the Hessian:
  0 -3.363e+01
  1 -3.366e+01
  2 -3.368e+01
  3 -3.368e+01
  4 -3.369e+01
  5 -3.369e+01
  6 -9.133e+01
  7 -9.134e+01
  8 -9.135e+01
  9 -9.137e+01
    ...


------------------------------------------------------------------------------- 
                    LOCALIZED MOLECULAR ORBITAL COMPOSITIONS                   
------------------------------------------------------------------------------- 

The Mulliken populations for each LMO on each atom are computed
The LMO`s will be ordered according to atom index and type
  (A) Strongly localized MO`s have populations of >=0.950 on one atom
  (B) Two center bond orbitals have populations of >=0.850 on two atoms
  (C) Other MO`s are considered to be `delocalized`

FOUND  -   6 strongly local MO`s
       -   0 two center bond MO`s
       -   0 significantly delocalized MO`s

Rather strongly localized orbitals:
MO   5:   5C  -   0.999224
MO   4:   4C  -   0.999223
MO   3:   3C  -   0.999223
MO   2:   2C  -   0.999223
MO   1:   1C  -   0.999223
MO   0:   0C  -   0.999223
Localized MO's were stored in: cyclohexane_chair.proc0.loc

Warning: internal orbitals are localized - no re-canonicalization of internal orbitals

--------------------------
CLOSED-SHELL FOCK OPERATOR
--------------------------

RI-JK section for the Fock operator:
  RHF full Fock operator         ... done
  RHF frozen core Fock operator  ... done
Time needed for Fock operator              ...            1.227 sec
Reference energy                           ...   -234.219934409

--------------
DLPNO SETTINGS (2015 fully linear scaling implementation)
--------------

TCutMKN:           1.000e-03
TCutPAO:           1.000e-03
TCutPNO:           1.000e-07
TCutPNOSingles:    3.000e-09
TCutEN:            9.700e-01
TCutPAOExt:        1.000e-01
TCutPairs:         1.000e-05
TCutPre:           1.000e-07
TCutOSV:           1.000e-06
TCutDOij:          1.000e-05
TCutDO:            5.000e-03
TCutC:             1.000e-04
TCutCPAO:          1.000e-03
TCutCMO:           1.000e-03
TScaleDOMP2PreScr: 2.000e+00
TScaleMKNMP2PreScr:1.000e+01
TScalePNOMP2PreScr:1.000e+00
PAO overlap thresh 1.000e-08
Using PNOs for Singles Fock computation
Use new domains
Use fully linear algorithm
TCutTNO:           1.000e-09
TCutMP2Pairs:      1.000e-06
TCutDOStrong:      2.000e-03
TCutMKNStrong:     1.000e-02
TCutMKNWeak:       1.000e-01
TCutDOWeak:        4.000e-03
NTCutTNO:          1

--------------------------
Calculating differential overlap integrals ... ok
--------------------------
ELECTRON PAIR PRESCREENING
--------------------------

Dipole-based pair screening          .... used

   TCutDOij = 1.000000e-05
   TCutPre  = 1.000000e-07
   .... Finished loop over pairs
Total time spent in the prescreening                  ...     0.000 sec
sum of pair energies estimated for screened out pairs ...       0.000000000000 Eh
Thresholds for map construction and integral transformation for crude MP2:
   TCutMKN                    ...     1.0e-02
   TCutDO                     ...     1.0e-02
   TCutPairs                  ...     1.0e-05
   TCutPNO_CrudeMP2           ...     1.0e-07
   TCutPNOSingles_CrudeMP2    ...     3.0e-09
--------------------------------
LOCAL RI TRANSFORMATION (IAVPAO)
--------------------------------

Orbital window:       6 to 23
Number of PAOs:     144
Basis functions:    144 (72 shells)
Aux. functions:     504 (180 shells)

Processing maps (0.0 sec)
Average map sizes:
   Aux shells -> MOs              18.0
   Aux shells -> PAOs            144.0
   MOs        -> AO shells        71.0
   PAOs       -> AO shells        72.0

Calculating integrals (0.4 sec, 9.973 MB)
Sorting integrals (0.0 sec, 9.967 MB)
Total time for the integral transformation: 0.4 sec
--------------------------------
INITIAL GUESS AND PNO GENERATION
--------------------------------

PNO truncation parameters                   .... 
    PAOOverlapThresh   =        1.000e-08

    TCutPairs          =        1.000e-05
    TCutPNO            =        1.000e-07
    TCutPNOSingles     =        3.000e-09
    TCutMP2Pairs       =        1.000e-06
    TCutMKN            =        1.000e-02
    TCutDO             =        1.000e-02

Pair selection                          .... not used
Type of local MP2 treatment                 .... semi-local MP2
Strategy for PNO selection                  .... occupation number selection
Pair density normalization                  .... MP2 norm
Spin component scaling                      .... not used

   .... Finished loop over pairs
Making pair pair interaction lists          ... done

                       ===========================
                        171 OF  171 PAIRS ARE KEPT CCSD PAIRS
                          0 OF  171 PAIRS ARE KEPT MP2 PAIRS FOR (T)
                          0 OF  171 PAIRS ARE SKIPPED
                       ===========================

Total time spent in the initial guess                 ...     0.455 sec
SL-MP2 correlation energy (all non-screened pairs)    ...      -0.834798262248 Eh

Initial PNO correlation energy                        ...      -0.834387495996 Eh
sum of pair energies prescreened and skipped MP2 pairs...       0.000000000000 Eh
sum of pair energies of crude MP2 skipped pairs only  ...       0.000000000000 Eh
sum of MP2 pair energies for pairs that were not kept ...       0.000000000000 Eh
sum of PNO error estimates for the kept pairs         ...      -0.000410766251 Eh
                                                          --------------------
sum of all corrections                                         -0.000410766251
Initial total correlation energy                               -0.834798262248
Thresholds for map construction and integral transformation for fine MP2 and CCSD(T) calculation:
   TCutMKN   ...     1.0e-03
   TCutDO    ...     5.0e-03
   TCutPairs ...     1.0e-05
   TCutCMO   ...     1.0e-03
   TCutCPAO  ...     1.0e-03

Thresholds for map construction and integral transformation for strong Triples:
   TCutMKN   ...     1.0e-02
   TCutDO    ...     1.0e-02
   TCutCMO   ...     1.0e-03
   TCutCPAO  ...     1.0e-03

Thresholds for map construction and integral transformation for weak Triples:
   TCutMKN   ...     1.0e-01
   TCutDO    ...     2.0e-02
   TCutCMO   ...     1.0e-03
   TCutCPAO  ...     1.0e-03

--------------------------------
LOCAL RI TRANSFORMATION (IAVPAO)
--------------------------------

Orbital window:       6 to 23
Number of PAOs:     144
Basis functions:    144 (72 shells)
Aux. functions:     504 (180 shells)

Processing maps (0.0 sec)
Average map sizes:
   Aux shells -> MOs              18.0
   Aux shells -> PAOs            144.0
   MOs        -> AO shells        71.0
   PAOs       -> AO shells        72.0

Calculating integrals (0.4 sec, 9.973 MB)
Sorting integrals (0.0 sec, 9.967 MB)
Total time for the integral transformation: 0.4 sec
--------------------------------
INITIAL GUESS AND PNO GENERATION
--------------------------------

PNO truncation parameters                   .... 
    ScaleTCutPNO       =        1.000e-02
    PAOOverlapThresh   =        1.000e-08

    TCutPairs          =        1.000e-05
    TCutPNO            =        1.000e-07
    TCutPNOSingles     =        3.000e-09
    TCutMP2Pairs       =        1.000e-06
    TCutMKN            =        1.000e-03
    TCutDO             =        5.000e-03

Pair selection                          .... not used
Type of local MP2 treatment                 .... full local PMP2
Strategy for PNO selection                  .... occupation number selection
Pair density normalization                  .... MP2 norm
Spin component scaling                      .... not used

PASS-1: Formation of initial guess LMP2 amplitudes
Initial amplitudes guess done. Entering LMP2 iteration loop:
   Max. no of iterations          ...  50
   Energy convergence tolerance   ...    1.0e-07
   Residual convergence tolerance ...    5.0e-07
   Fock matrix cutoff             ...    1.0e-05 Eh
   DIIS convergence acceleration parameters:
        Max # vectors in DIIS     ... 7
        Start iteration of DIIS   ... 0
        Levelshift                ... 2.000e-01
        Damping factor 1          ... 5.000e-01
        Damping factor 2          ... 1.000e+00
   L-MP2 PNO cut-off              ...   1.0e-09
   L-MP2 PNO cut-off (core)       ...   1.0e-11
                           *** Turning on DIIS ***
LMP2-Iter=   0:  ELMP2= -0.851277786244  DE=   1.6e-02 RMAX=   3.2e-03
LMP2-Iter=   1:  ELMP2= -0.859537371636  DE=   8.3e-03 RMAX=   1.4e-03
LMP2-Iter=   2:  ELMP2= -0.860742278050  DE=   1.2e-03 RMAX=   1.5e-04
LMP2-Iter=   3:  ELMP2= -0.860827645982  DE=   8.5e-05 RMAX=   5.0e-05
LMP2-Iter=   4:  ELMP2= -0.860828988510  DE=   1.3e-06 RMAX=   4.8e-06
LMP2-Iter=   5:  ELMP2= -0.860828203241  DE=   7.9e-07 RMAX=   1.8e-06
LMP2-Iter=   6:  ELMP2= -0.860828147582  DE=   5.6e-08 RMAX=   1.5e-07
LMP2-Iter=   7:  ELMP2= -0.860828145692  DE=   1.9e-09 RMAX=   5.2e-08 => CONVERGED
PASS-2: Formation of Pair natural orbitals
   .... Finished loop over pairs

 PNO Occupation Number Statistics: 
  | Av. % of trace(Dij) retained        ...  99.770382758703
  | sigma^2 in % of trace(Dij) retained ...   8.29e-02
  | Av. % of trace(Di) retained         ...  99.999834701678
  | sigma^2 in % of trace(Di) retained  ...   5.52e-10
 Distributions of % trace(Dij) recovered:
  |       >= 99.9  ...    91 ( 53.2 % of all pairs)
  |   [90.0, 99.0) ...     9 (  5.3 % of all pairs)
  |   [99.0, 99.9) ...    71 ( 41.5 % of all pairs)
 Distributions of % trace(Di) recovered :
  |       >= 99.9  ...    18 (100.0 % of all I-pairs )

Making pair pair interaction lists          ... done

                       ===========================
                        171 OF  171 PAIRS ARE KEPT
                       ===========================

Total time spent in the initial guess                 ...     3.825 sec
L-MP2 correlation energy (all non-screened pairs)     ...      -0.860828145692 Eh
L-MP2 PNO error correction                            ...      -0.000005936959 Eh
                                                          --------------------
Initial total L-MP2 energy (non-screened pairs)       ...      -0.860834082651 Eh

Initial PNO correlation energy                        ...      -0.860480695387 Eh
sum of pair energies estimated for screened out pairs ...       0.000000000000 Eh
sum of MP2 pair energies for pairs that were not kept ...       0.000000000000 Eh
sum of PNO error estimates for the kept pairs         ...      -0.000353387264 Eh
                                                          --------------------
sum of all corrections                                         -0.000353387264
Initial total correlation energy                               -0.860834082651
Thresholds for map construction and integral transformation for fine MP2 and CCSD(T) calculation:
   TCutMKN   ...     1.0e-03
   TCutDO    ...     5.0e-03
   TCutPairs ...     1.0e-05
   TCutCMO   ...     1.0e-03
   TCutCPAO  ...     1.0e-03

Time for aux screen maps:            0.002
Time for maps after fine MP2:            0.007
-----------------------------
LOCAL RI TRANSFORMATION (IJV)
-----------------------------

Orbital window:       6 to 23
Basis functions:    144 (72 shells)
Aux. functions:     504 (180 shells)

Processing maps (0.0 sec)
Average map sizes:
   Aux shells -> MOs(i)           18.0
   Aux shells -> MOs(j)           18.0
   MOs        -> AO shells        71.0

Calculating integrals (0.4 sec, 1.252 MB)
Sorting integrals (0.0 sec, 1.246 MB)
Total time for the integral transformation: 0.4 sec
--------------------------------
LOCAL RI TRANSFORMATION (VABPAO)
--------------------------------

Number of PAOs:     144
Basis functions:    144 (72 shells)
Aux. functions:     504 (180 shells)

Processing maps (0.0 sec)
Average map sizes:
   Aux shells -> PAOs            144.0
   PAOs       -> AO shells        72.0

Calculating integrals (0.5 sec, 141.918 MB)
Finished


-------------------------------------
Pair Pair Term precalculation with     
RI-(ij|mn) and (im|jn) transformation  
ON THE FLY                             
-------------------------------------

   IBatch   1 (of   1)              ... done (   16.230 sec)
Total EXT                           ...          16.230 sec

---------------------
RI-PNO TRANSFORMATION
---------------------

Total Number of PNOs                   ...  5309
Average number of PNOs per pair        ...    31
Maximal number of PNOs per pair        ...    43
   #pairs with  1 -  5 PNOs   :    0
   #pairs with  6 - 10 PNOs   :    0
   #pairs with 11 - 15 PNOs   :    9
   #pairs with 16 - 20 PNOs   :    3
   #pairs with 21 - 25 PNOs   :   42
   #pairs with 26 - 30 PNOs   :   21
   #pairs with 31 - 35 PNOs   :   47
   #pairs with 36 - 40 PNOs   :   43
   #pairs with 41 - 45 PNOs   :    6
   #pairs with 46 - 50 PNOs   :    0

Generation of (ij|ab)[P] integrals            ... on
Generation of (ia|bc)[P],(ja|bc)[P] integrals ... on
Storage of 3 and 4 external integrals         ... on
Generation of ALL (ka|bc)[P] integrals        ... on
Keep RI integrals in memory                   ... off

Ibatch:  1 (of  1)
Starting 2-4 index PNO integral generation ... done

Timings:
Total PNO integral transformation time     ...          4.494 sec
Size of the 3-external file                ...        47 MB
Size of the 4-external file                ...       214 MB
Size of the IKJL file                      ...         0 MB
Size of the all 3-external file            ...       423 MB
Size of the 1-external file                ...         2 MB

Making pair/pair overlap matrices          ... done (    0.769 sec)
Size of the pair overlap file              ... 146 MB
Redoing the guess amplitudes               ... done (    0.002 sec)

-------------------------
FINAL STARTUP INFORMATION
-------------------------

E(0)                                       ...   -234.219934409
E(L-MP2)                                   ...     -0.860834083
E(L-MP2) including corrections             ...     -0.860834083
Initial E(tot)                             ...   -235.080768491
<T|T>                                      ...      0.276227432
Number of pairs included                   ... 171
Total number of pairs                      ... 171

------------------------------------------------
                  RHF COUPLED CLUSTER ITERATIONS
------------------------------------------------

Number of PNO amplitudes to be optimized   ...       174675
Number of non-PNO amplitudes               ...      2462400
Untruncated number of regular amplitudes   ...      2462400

Iter       E(tot)           E(Corr)          Delta-E          Residual     Time
  0   -235.054885102     -0.834597306      0.026236776      0.018584542    3.54
                           *** Turning on DIIS ***
  1   -235.122765412     -0.902477616     -0.067880310      0.007222526    3.63
  2   -235.153393967     -0.933106171     -0.030628555      0.001626166    3.62
  3   -235.157364084     -0.937076288     -0.003970118      0.000517068    3.63
  4   -235.158110844     -0.937823048     -0.000746760      0.000088368    3.63
  5   -235.158222997     -0.937935202     -0.000112154      0.000024731    3.65
  6   -235.158242625     -0.937954829     -0.000019627      0.000006027    3.59
               --- The Coupled-Cluster iterations have converged ---

----------------------
COUPLED CLUSTER ENERGY
----------------------

E(0)                                       ...   -234.219934409
E(CORR)(strong-pairs)                      ...     -0.937954829
E(CORR)(weak-pairs)                        ...     -0.000353387
E(CORR)(corrected)                         ...     -0.938308216
E(TOT)                                     ...   -235.158242625
Singles Norm <S|S>**1/2                    ...      0.041488611  
T1 diagnostic                              ...      0.006914769  

------------------
LARGEST AMPLITUDES
------------------
  12-> 33  12-> 33       0.041065
  23-> 33  23-> 33       0.041035
  19-> 33  19-> 33       0.040990
  20-> 33  20-> 33       0.040986
  17-> 33  17-> 33       0.040946
  14-> 33  14-> 33       0.040904
  16-> 33  16-> 33       0.039777
  16-> 24  16-> 24       0.039382
  17-> 24  17-> 24       0.039234
  14-> 24  14-> 24       0.039230
  12-> 24  12-> 24       0.039182
  23-> 24  23-> 24       0.039178
  19-> 24  19-> 24       0.039120
  20-> 24  20-> 24       0.039117
  18-> 24  18-> 24       0.038818
  22-> 24  22-> 24       0.038805


-------------------------------------------
DLPNO BASED TRIPLES CORRECTION
-------------------------------------------

Singles multiplier          ...  1.000000
TCutTNO                     ... 1.000e-09
TCutMP2Pairs                ... 1.000e-06
TCutDOStrong                ... 1.000e-02
TCutMKNStrong               ... 1.000e-02
TCutDOWeak                  ... 2.000e-02
TCutMKNWeak                 ... 1.000e-01

Fragment selection                          .... not used
Number of Triples that are to be computed   ...      1122

 . . . . . . . . .
10% done  
20% done  
30% done  
40% done  
50% done  
60% done  
70% done  
80% done  
90% done               (     37.952 sec)
Triples timings:
Total time for T0               ...    40.160 sec
Total time for Iterative (T)    ...     0.000 sec
Total time of overall (T)       ...    40.161 sec

Triples List generation         ...     0.000 sec
TNO generation                  ...     2.205 sec
Pair density generation         ...     0.002 sec
Look up tables                  ...     0.000 sec
Generating 3-index integrals    ...    16.879 sec
  Make 4-ind.int. from 3-ind.int...     8.116 sec
  Projecting amplitudes (D + S) ...     3.445 sec
  Downprojecting integrals      ...     0.002 sec
  Energy contr. (sum over a,b,c)...     2.715 sec
Fitting ET(->0)                 ...     0.000 sec

Everything after 3-index        ...    21.072 sec

Timing details:
 TNO integrals                  ...    24.134 sec
   Reading 3-index integrals    ...     0.031 sec
   Sorting integrals            ...     5.285 sec
       Sorting integrals 1      ...     0.001 sec
       Sorting integrals 2      ...     1.277 sec
       Sorting integrals 3      ...     0.228 sec
       Sorting integrals 4      ...     0.021 sec
       Sorting integrals 5      ...     0.056 sec
       Sorting integrals 6      ...     3.703 sec
   Calculating local VM**-1/2   ...     0.196 sec
   Orthogonal. integrals        ...     0.408 sec
   Multipl. 3-index integrals   ...    18.214 sec
   All concerning IRIab (w/TNO) ...     3.539 sec

 Calculate W0/W1                ...     6.784 sec
 W 3-ext contribution           ...     3.496 sec
 W 3-int contribution           ...     1.168 sec
 Sorting W                      ...     1.997 sec

 V exchange contribution        ...     0.996 sec

 Timings for Triples without generation
     of 3-index integrals       ...    21.069 sec
       0 weak pairs             ...    21.069 sec
       1 weak pair              ...     0.000 sec
       2 weak pairs             ...     0.000 sec
       3 weak pairs             ...     0.000 sec
  Extra time for extrapolation  ...     0.000 sec

Number of Triples   (0, 1, 2, 3 weak pairs; overall):   1122       0       0       0  (  1122)
Number of Atoms     (0, 1, 2, 3 weak pairs; overall):   17.5     0.0     0.0     0.0  (    18)
Number of PAOs      (0, 1, 2, 3 weak pairs; overall):  141.2     0.0     0.0     0.0  (   144)
Number of AuxFcns   (0, 1, 2, 3 weak pairs; overall):  256.0     0.0     0.0     0.0  (   504)
Number of TNOs      (0, 1, 2, 3 weak pairs         ):   69.8     0.0     0.0     0.0
Aver. Number of NTNO, Atoms, PAOs, AuxFcns / Triples:   1122    69.8    17.5   141.2   256.0

Triples Correction (T)                     ...     -0.028730082
Final correlation energy                   ...     -0.967038298
E(CCSD)                                    ...   -235.158242625
E(CCSD(T))                                 ...   -235.186972707


Maximum memory used throughout the entire calculation: 4483.6 MB


------------------------------------------------------------------------------- 
                                     TIMINGS                                   
------------------------------------------------------------------------------- 


Total execution time                   ...       95.508 sec

Localization of occupied MO's          ...        0.413 sec (  0.4%)
Fock Matrix Formation                  ...        1.227 sec (  1.3%)
Global overlap, Fock, MKN matrices     ...        0.147 sec (  0.2%)
Differential overlap integrals         ...        0.112 sec (  0.1%)
Organizing maps                        ...        0.021 sec (  0.0%)
RI 3-index integral generations        ...        1.655 sec (  1.7%)
RI-PNO integral transformation         ...       21.868 sec ( 22.9%)
Initial Guess                          ...        4.293 sec (  4.5%)
DIIS Solver                            ...        0.446 sec (  0.5%)
State Vector Update                    ...        0.009 sec (  0.0%)
Sigma-vector construction              ...       25.191 sec ( 26.4%)
  <D|H|D>(0-ext)                       ...        1.446 sec (  5.7% of sigma)
  <D|H|D>(2-ext Fock)                  ...        0.010 sec (  0.0% of sigma)
  <D|H|D>(2-ext)                       ...        3.085 sec ( 12.2% of sigma)
  <D|H|D>(4-ext)                       ...        2.142 sec (  8.5% of sigma)
  <D|H|D>(4-ext-corr)                  ...       11.739 sec ( 46.6% of sigma)
  CCSD doubles correction              ...        0.130 sec (  0.5% of sigma)
  <S|H|S>                              ...        0.203 sec (  0.8% of sigma)
  <S|H|D>(1-ext)                       ...        0.177 sec (  0.7% of sigma)
  <D|H|S>(1-ext)                       ...        0.008 sec (  0.0% of sigma)
  <S|H|D>(3-ext)                       ...        0.136 sec (  0.5% of sigma)
  Fock-dressing                        ...        3.691 sec ( 14.7% of sigma)
  Singles amplitudes                   ...        0.134 sec (  0.5% of sigma)
  (ik|jl)-dressing                     ...        1.048 sec (  4.2% of sigma)
  (ij|ab),(ia|jb)-dressing             ...        1.170 sec (  4.6% of sigma)
  Pair energies                        ...        0.004 sec (  0.0% of sigma)
Total Time for computing (T)           ...       40.218 sec ( 42.1% of ALL)


-------------------------   --------------------
FINAL SINGLE POINT ENERGY      -235.186972706546
-------------------------   --------------------


                            ***************************************
                            *     ORCA property calculations      *
                            ***************************************

                                    ---------------------
                                    Active property flags
                                    ---------------------
   (+) Dipole Moment


------------------------------------------------------------------------------
                       ORCA ELECTRIC PROPERTIES CALCULATION
------------------------------------------------------------------------------

Dipole Moment Calculation                       ... on
Quadrupole Moment Calculation                   ... off
Polarizability Calculation                      ... off
GBWName                                         ... cyclohexane_chair.gbw
Electron density file                           ... cyclohexane_chair.scfp.tmp
The origin for moment calculation is the CENTER OF MASS  = (-0.000065,  0.000033 -0.000056)

-------------
DIPOLE MOMENT
-------------
                                X             Y             Z
Electronic contribution:     -0.00271       0.00242      -0.00184
Nuclear contribution   :      0.00217      -0.00217       0.00137
                        -----------------------------------------
Total Dipole Moment    :     -0.00054       0.00025      -0.00048
                        -----------------------------------------
Magnitude (a.u.)       :      0.00076
Magnitude (Debye)      :      0.00194



--------------------
Rotational spectrum 
--------------------
 
Rotational constants in cm-1:     0.142803     0.142749     0.081970 
Rotational constants in MHz :  4281.139400  4279.520215  2457.403178 

 Dipole components along the rotational axes: 
x,y,z [a.u.] :    -0.000551     0.000219    -0.000477 
x,y,z [Debye]:    -0.001402     0.000557    -0.001213 

 

Timings for individual modules:

Sum of individual times         ...      159.339 sec (=   2.656 min)
GTO integral calculation        ...       59.877 sec (=   0.998 min)  37.6 %
SCF iterations                  ...        3.776 sec (=   0.063 min)   2.4 %
MDCI module                     ...       95.686 sec (=   1.595 min)  60.1 %
                             ****ORCA TERMINATED NORMALLY****
TOTAL RUN TIME: 0 days 0 hours 2 minutes 39 seconds 601 msec
cyclohexane_chair.gbw -> /home1/pantazis/klk/VDZ/Energy_barrier/cyclohexane_chair.gbw
cyclohexane_chair.ges -> /home1/pantazis/klk/VDZ/Energy_barrier/cyclohexane_chair.ges
cyclohexane_chair.job -> /home1/pantazis/klk/VDZ/Energy_barrier/cyclohexane_chair.job
cyclohexane_chair.loc -> /home1/pantazis/klk/VDZ/Energy_barrier/cyclohexane_chair.loc
cyclohexane_chair.nodes -> /home1/pantazis/klk/VDZ/Energy_barrier/cyclohexane_chair.nodes
cyclohexane_chair.prop -> /home1/pantazis/klk/VDZ/Energy_barrier/cyclohexane_chair.prop
cyclohexane_chair_property.txt -> /home1/pantazis/klk/VDZ/Energy_barrier/cyclohexane_chair_property.txt
cyclohexane_chair.xyz -> /home1/pantazis/klk/VDZ/Energy_barrier/cyclohexane_chair.xyz
cp: cannot stat cyclohexane_chair.asa.inp: No such file or directory
