! Job execution by suborca V 6.07 on ZEUS !
Job started from zeus1, running /scratch/pantazis/cyclohexanethiol_ax__rfnWsE/orca/orca copied from /opt/orca on zeussn126 in /scratch/pantazis/cyclohexanethiol_ax__rfnWsE
Job execution start: Sat Jun 29 10:18:55 CEST 2019
Shared library path: /scratch/pantazis/cyclohexanethiol_ax__rfnWsE/orca:/opt/openmpi_1.10.2/lib:/opt/intel/mkl/lib/intel64:/opt/intel/lib/intel64:
PBS Job ID is: 158679.icqc
izeussn126
izeussn126
izeussn126
izeussn126

                                 *****************
                                 * O   R   C   A *
                                 *****************

           --- An Ab Initio, DFT and Semiempirical electronic structure package ---

                  #######################################################
                  #                        -***-                        #
                  #          Department of theory and spectroscopy      #
                  #               Directorship: Frank Neese             #
                  #        Max Planck Institute fuer Kohlenforschung    #
                  #                Kaiser Wilhelm Platz 1               #
                  #                 D-45470 Muelheim/Ruhr               #
                  #                      Germany                        #
                  #                                                     #
                  #                  All rights reserved                #
                  #                        -***-                        #
                  #######################################################


                         Program Version 4.1.x  -  STABLE  -
                                (SVN: $Rev: 14094$)
                ($Date: 2019-06-14 15:01:15 +0200 (Fri, 14 Jun 2019) $)

                         (BUILD: $Sun Jun 23 06:18:31 CEST 2019$)


 With contributions from (in alphabetic order):
   Daniel Aravena         : Magnetic Properties
   Michael Atanasov       : Ab Initio Ligand Field Theory
   Alexander A. Auer      : GIAO ZORA
   Ute Becker             : Parallelization
   Giovanni Bistoni       : ED, Open-shell LED
   Martin Brehm           : Molecular dynamics
   Dmytro Bykov           : SCF Hessian
   Vijay G. Chilkuri      : MRCI spin determinant printing
   Dipayan Datta          : RHF DLPNO-CCSD density
   Achintya Kumar Dutta   : EOM-CC, STEOM-CC
   Dmitry Ganyushin       : Spin-Orbit,Spin-Spin,Magnetic field MRCI
   Miquel Garcia          : C-PCM Hessian
   Yang Guo               : DLPNO-NEVPT2, CIM, IAO-localization
   Andreas Hansen         : Spin unrestricted coupled pair/coupled cluster methods
   Benjamin Helmich-Paris : CASSCF linear response (MC-RPA)
   Lee Huntington         : MR-EOM, pCC
   Robert Izsak           : Overlap fitted RIJCOSX, COSX-SCS-MP3, EOM
   Christian Kollmar      : KDIIS, OOCD, Brueckner-CCSD(T), CCSD density
   Simone Kossmann        : Meta GGA functionals, TD-DFT gradient, OOMP2, MP2 Hessian
   Martin Krupicka        : AUTO-CI
   Lucas Lang             : DCDCAS
   Dagmar Lenk            : GEPOL surface, SMD
   Dimitrios Liakos       : Extrapolation schemes; parallel MDCI
   Dimitrios Manganas     : ROCIS; embedding schemes
   Dimitrios Pantazis     : SARC Basis sets
   Taras Petrenko         : DFT Hessian,TD-DFT gradient, ASA, ECA, R-Raman, ABS, FL, XAS/XES, NRVS
   Peter Pinski           : DLPNO-MP2, DLPNO-MP2 Gradient
   Christoph Reimann      : Effective Core Potentials
   Marius Retegan         : Local ZFS, SOC
   Christoph Riplinger    : Optimizer, TS searches, QM/MM, DLPNO-CCSD(T), (RO)-DLPNO pert. Triples
   Tobias Risthaus        : Range-separated hybrids, TD-DFT gradient, RPA, STAB
   Michael Roemelt        : Restricted open shell CIS
   Masaaki Saitow         : Open-shell DLPNO
   Barbara Sandhoefer     : DKH picture change effects
   Avijit Sen             : IP-ROCIS
   Kantharuban Sivalingam : CASSCF convergence, NEVPT2, FIC-MRCI
   Bernardo de Souza      : ESD, SOC TD-DFT
   Georgi Stoychev        : AutoAux, RI-MP2 NMR
   Willem Van den Heuvel  : Paramagnetic NMR
   Boris Wezisla          : Elementary symmetry handling
   Frank Wennmohs         : Technical directorship


 We gratefully acknowledge several colleagues who have allowed us to
 interface, adapt or use parts of their codes:
   Stefan Grimme, W. Hujo, H. Kruse,             : VdW corrections, initial TS optimization,
                  C. Bannwarth                     DFT functionals, gCP, sTDA/sTD-DF
   Ed Valeev                                     : LibInt (2-el integral package), F12 methods
   Garnet Chan, S. Sharma, J. Yang, R. Olivares  : DMRG
   Ulf Ekstrom                                   : XCFun DFT Library
   Mihaly Kallay                                 : mrcc  (arbitrary order and MRCC methods)
   Andreas Klamt, Michael Diedenhofen            : otool_cosmo (COSMO solvation model)
   Jiri Pittner, Ondrej Demel                    : Mk-CCSD
   Frank Weinhold                                : gennbo (NPA and NBO analysis)
   Christopher J. Cramer and Donald G. Truhlar   : smd solvation model
   Lars Goerigk                                  : TD-DFT with DH, B97 family of functionals
   V. Asgeirsson, H. Jonsson                     : NEB implementation
   FAccTs GmbH                                   : IRC, NEB, NEB-TS, Multilevel


 Your calculation uses the libint2 library for the computation of 2-el integrals
 For citations please refer to: http://libint.valeyev.net

 This ORCA versions uses:
   CBLAS   interface :  Fast vector & matrix operations
   LAPACKE interface :  Fast linear algebra routines
   SCALAPACK package :  Parallel linear algebra routines




***************************************
The coordinates will be read from file: cyclohexanethiol_ax.xyz
***************************************


----- Orbital basis set information -----
Your calculation utilizes the basis: cc-pVDZ 
       H, B-Ne : Obtained from the ccRepo (grant-hill.group.shef.ac.uk/ccrepo) Feb. 2017
                 T. H. Dunning, Jr., J. Chem. Phys. 90, 1007 (1989)
            He : Obtained from the ccRepo (grant-hill.group.shef.ac.uk/ccrepo) Feb. 2017
                 D. E. Woon, T. H. Dunning, Jr., J. Chem. Phys. 100, 2975 (1994)
  Li-Be, Na-Mg : Obtained from the ccRepo (grant-hill.group.shef.ac.uk/ccrepo) Feb. 2017
                 B. P. Prascher, D. E. Woon, K. A. Peterson, T. H. Dunning, Jr., A. K. Wilson, Theor. Chem. Acc. 128, 69 (2011)
         Al-Ar : Obtained from the ccRepo (grant-hill.group.shef.ac.uk/ccrepo) Feb. 2017
                 D. E. Woon, T. H. Dunning, Jr., J. Chem. Phys. 98, 1358 (1993)
            Ca : Obtained from the Peterson Research Group Website (tyr0.chem.wsu.edu/~kipeters) Feb. 2017
                 J. Koput, K. A. Peterson, J. Phys. Chem. 106, 9595 (2002)
         Sc-Zn : Obtained from the ccRepo (grant-hill.group.shef.ac.uk/ccrepo) Feb. 2017
                 N. B. Balabanov, K. A. Peterson, J. Chem. Phys. 123, 064107 (2005)
                 N. B. Balabanov, K. A. Peterson, J. Chem. Phys. 125, 074110 (2006)
         Ga-Kr : Obtained from the ccRepo (grant-hill.group.shef.ac.uk/ccrepo) Feb. 2017
                 A. K. Wilson, D. E. Woon, K. A. Peterson, T. H. Dunning, Jr., J. Chem. Phys. 110, 7667 (1999)

----- AuxC basis set information -----
Your calculation utilizes the auxiliary basis: cc-pVDZ/C 
  H-He, B, Ne, Al-Ar, Ga-Br : Obtained from the EMSL Basis Set Exchange (bse.pnl.gov) Feb. 2017
                              F. Weigend, A. Kohn, C. Hattig, J. Chem. Phys. 116, 3175 (2002)
               Li-Be, Na-Mg : Obtained from the EMSL Basis Set Exchange (bse.pnl.gov) Feb. 2017
                              C. Haettig, Phys. Chem. Chem. Phys. 7, 59 (2005)
                        C-F : Obtained from the EMSL Basis Set Exchange (bse.pnl.gov) Feb. 2017
                              C. Haettig, Phys. Chem. Chem. Phys. 7, 59 (2005)
                              F. Weigend, A. Kohn, C. Hattig, J. Chem. Phys. 116, 3175 (2002)
                         Kr : Obtained from the TURBOMOLE 7.0 basis set library
                              F. Weigend, A. Kohn, C. Hattig, J. Chem. Phys. 116, 3175 (2002)
                              S function revised in Sep. 2009

----- AuxJK basis set information -----
Your calculation utilizes the auxiliary basis: cc-pVTZ/JK 
  H, B-F, Al-Cl, Ga-Br : Obtained from the TURBOMOLE 7.0 basis set library

================================================================================
                                        WARNINGS
                       Please study these warnings very carefully!
================================================================================


WARNING: MDCI localization with Augmented Hessian Foster-Boys
  ===> : Switching off randomization!

WARNING: Post HF methods need fully converged wavefunctions
  ===> : Setting SCFConvForced true
         You can overwrite this default with %scf ConvForced false 


INFO   : the flag for use of LIBINT has been found!

================================================================================
                                       INPUT FILE
================================================================================
NAME = cyclohexanethiol_ax.inp
|  1> ! RHF DLPNO-CCSD(T) cc-pVDZ RIJK cc-pVTZ/JK cc-pVDZ/C
|  2> ! KDIIS SOSCF TightSCF TightPNO
|  3> 
|  4> %pal nprocs 4 end
|  5> 
|  6> %maxcore 8000
|  7> 
|  8> %scf maxiter 300
|  9>      shift shift 0.2 erroff 0.1 end
| 10> end
| 11> 
| 12> * xyzfile 0 1 cyclohexanethiol_ax.xyz 
| 13> 
| 14> 
| 15>                          ****END OF INPUT****
================================================================================

                       ****************************
                       * Single Point Calculation *
                       ****************************

---------------------------------
CARTESIAN COORDINATES (ANGSTROEM)
---------------------------------
  C      0.692580    0.016620    0.818160
  C     -0.174770    1.286180    0.742570
  C     -1.169720    1.270600   -0.428320
  C     -2.038590    0.002630   -0.409870
  C     -1.176280   -1.269780   -0.387760
  C     -0.180600   -1.252230    0.784500
  S      1.951050   -0.091600   -0.556730
  H     -1.801920    2.165760   -0.383640
  H     -0.616160    1.319680   -1.374180
  H     -2.707710   -0.009420   -1.278870
  H     -2.684170    0.017140    0.481190
  H     -0.630320   -1.356770   -1.336050
  H     -1.812640   -2.159860   -0.311530
  H     -0.734270    1.350890    1.688770
  H      0.460770    2.178760    0.698400
  H      0.453180   -2.146330    0.771590
  H     -0.742870   -1.280220    1.729090
  H      1.269240    0.022490    1.748080
  H      2.614290    1.039320   -0.240800

----------------------------
CARTESIAN COORDINATES (A.U.)
----------------------------
  NO LB      ZA    FRAG     MASS         X           Y           Z
   0 C     6.0000    0    12.011    1.308787    0.031407    1.546098
   1 C     6.0000    0    12.011   -0.330267    2.430528    1.403254
   2 C     6.0000    0    12.011   -2.210450    2.401086   -0.809407
   3 C     6.0000    0    12.011   -3.852377    0.004970   -0.774542
   4 C     6.0000    0    12.011   -2.222847   -2.399536   -0.732760
   5 C     6.0000    0    12.011   -0.341285   -2.366372    1.482490
   6 S    16.0000    0    32.060    3.686950   -0.173099   -1.052067
   7 H     1.0000    0     1.008   -3.405135    4.092693   -0.724975
   8 H     1.0000    0     1.008   -1.164374    2.493834   -2.596824
   9 H     1.0000    0     1.008   -5.116830   -0.017801   -2.416714
  10 H     1.0000    0     1.008   -5.072346    0.032390    0.909317
  11 H     1.0000    0     1.008   -1.191132   -2.563924   -2.524769
  12 H     1.0000    0     1.008   -3.425393   -4.081544   -0.588706
  13 H     1.0000    0     1.008   -1.387569    2.552812    3.191313
  14 H     1.0000    0     1.008    0.870729    4.117260    1.319785
  15 H     1.0000    0     1.008    0.856386   -4.055976    1.458094
  16 H     1.0000    0     1.008   -1.403821   -2.419265    3.267507
  17 H     1.0000    0     1.008    2.398516    0.042500    3.303392
  18 H     1.0000    0     1.008    4.940292    1.964030   -0.455046

--------------------------------
INTERNAL COORDINATES (ANGSTROEM)
--------------------------------
 C      0   0   0     0.000000000000     0.00000000     0.00000000
 C      1   0   0     1.539413025864     0.00000000     0.00000000
 C      2   1   0     1.536603927823   113.19580185     0.00000000
 C      3   2   1     1.537212867595   111.41989066    53.72876439
 C      4   3   2     1.537236024916   111.46055938   305.19834457
 C      5   4   3     1.538141792066   111.38506930    54.79826395
 S      1   2   3     1.867024590465   113.04307937    70.70750049
 H      3   2   1     1.096806531709   109.50582927   176.02601859
 H      3   2   1     1.097036307330   109.25741337   292.70805143
 H      4   3   2     1.096826229127   110.14324840   182.61767546
 H      4   3   2     1.100441729534   109.29513381    65.95803886
 H      5   4   3     1.097676412154   109.40080657   293.33128991
 H      5   4   3     1.096816971468   110.31941978   176.47025858
 H      2   1   3     1.101145800564   107.01087593   120.16018273
 H      2   1   3     1.096613485646   110.28591377   235.41550664
 H      6   5   4     1.096019418852   110.85693010   181.98280751
 H      6   5   4     1.099627782979   108.86793188    65.07556794
 H      1   2   3     1.094222289528   109.52605729   188.30237141
 H      7   1   2     1.348584112653    96.33702300    60.79942270

---------------------------
INTERNAL COORDINATES (A.U.)
---------------------------
 C      0   0   0     0.000000000000     0.00000000     0.00000000
 C      1   0   0     2.909069025874     0.00000000     0.00000000
 C      2   1   0     2.903760599893   113.19580185     0.00000000
 C      3   2   1     2.904911329295   111.41989066    53.72876439
 C      4   3   2     2.904955090289   111.46055938   305.19834457
 C      5   4   3     2.906666742144   111.38506930    54.79826395
 S      1   2   3     3.528165161275   113.04307937    70.70750049
 H      3   2   1     2.072663966826   109.50582927   176.02601859
 H      3   2   1     2.073098179822   109.25741337   292.70805143
 H      4   3   2     2.072701189551   110.14324840   182.61767546
 H      4   3   2     2.079533495158   109.29513381    65.95803886
 H      5   4   3     2.074307802637   109.40080657   293.33128991
 H      5   4   3     2.072683695111   110.31941978   176.47025858
 H      2   1   3     2.080863996584   107.01087593   120.16018273
 H      2   1   3     2.072299162635   110.28591377   235.41550664
 H      6   5   4     2.071176539089   110.85693010   181.98280751
 H      6   5   4     2.077995359082   108.86793188    65.07556794
 H      1   2   3     2.067780456840   109.52605729   188.30237141
 H      7   1   2     2.548454641471    96.33702300    60.79942270

---------------------
BASIS SET INFORMATION
---------------------
There are 3 groups of distinct atoms

 Group   1 Type C   : 17s4p1d contracted to 3s2p1d pattern {881/31/1}
 Group   2 Type S   : 34s15p1d contracted to 4s3p1d pattern {1111111/771/1}
 Group   3 Type H   : 4s1p contracted to 2s1p pattern {31/1}

Atom   0C    basis set group =>   1
Atom   1C    basis set group =>   1
Atom   2C    basis set group =>   1
Atom   3C    basis set group =>   1
Atom   4C    basis set group =>   1
Atom   5C    basis set group =>   1
Atom   6S    basis set group =>   2
Atom   7H    basis set group =>   3
Atom   8H    basis set group =>   3
Atom   9H    basis set group =>   3
Atom  10H    basis set group =>   3
Atom  11H    basis set group =>   3
Atom  12H    basis set group =>   3
Atom  13H    basis set group =>   3
Atom  14H    basis set group =>   3
Atom  15H    basis set group =>   3
Atom  16H    basis set group =>   3
Atom  17H    basis set group =>   3
Atom  18H    basis set group =>   3
-------------------------------
AUXILIARY BASIS SET INFORMATION
-------------------------------
There are 3 groups of distinct atoms

 Group   1 Type C   : 7s5p4d2f contracted to 7s5p4d2f pattern {1111111/11111/1111/11}
 Group   2 Type S   : 9s7p5d3f contracted to 9s7p5d3f pattern {111111111/1111111/11111/111}
 Group   3 Type H   : 3s2p1d contracted to 3s2p1d pattern {111/11/1}

Atom   0C    basis set group =>   1
Atom   1C    basis set group =>   1
Atom   2C    basis set group =>   1
Atom   3C    basis set group =>   1
Atom   4C    basis set group =>   1
Atom   5C    basis set group =>   1
Atom   6S    basis set group =>   2
Atom   7H    basis set group =>   3
Atom   8H    basis set group =>   3
Atom   9H    basis set group =>   3
Atom  10H    basis set group =>   3
Atom  11H    basis set group =>   3
Atom  12H    basis set group =>   3
Atom  13H    basis set group =>   3
Atom  14H    basis set group =>   3
Atom  15H    basis set group =>   3
Atom  16H    basis set group =>   3
Atom  17H    basis set group =>   3
Atom  18H    basis set group =>   3
-------------------------------
AUXILIARY BASIS SET INFORMATION
-------------------------------
There are 3 groups of distinct atoms

 Group   1 Type C   : 10s7p5d2f1g contracted to 10s7p5d2f1g pattern {1111111111/1111111/11111/11/1}
 Group   2 Type S   : 13s11p9d3f1g contracted to 13s11p9d3f1g pattern {1111111111111/11111111111/111111111/111/1}
 Group   3 Type H   : 4s3p2d1f contracted to 4s3p2d1f pattern {1111/111/11/1}

Atom   0C    basis set group =>   1
Atom   1C    basis set group =>   1
Atom   2C    basis set group =>   1
Atom   3C    basis set group =>   1
Atom   4C    basis set group =>   1
Atom   5C    basis set group =>   1
Atom   6S    basis set group =>   2
Atom   7H    basis set group =>   3
Atom   8H    basis set group =>   3
Atom   9H    basis set group =>   3
Atom  10H    basis set group =>   3
Atom  11H    basis set group =>   3
Atom  12H    basis set group =>   3
Atom  13H    basis set group =>   3
Atom  14H    basis set group =>   3
Atom  15H    basis set group =>   3
Atom  16H    basis set group =>   3
Atom  17H    basis set group =>   3
Atom  18H    basis set group =>   3

Checking for AutoStart:
The File: cyclohexanethiol_ax.gbw exists
Trying to determine its content:
     ... Fine, the file contains calculation information
     ... Fine, the calculation information was read
     ... Fine, the file contains a basis set
     ... Fine, the basis set was read
     ... Fine, the file contains a geometry
     ... Fine, the geometry was read
     ... Fine, the file contains a set of orbitals
     ... Fine, the orbitals can be read
     => possible old guess file was deleted
     => GBW file was renamed to GES file
     => GES file is set as startup file
     => Guess is set to MORead
     ... now leaving AutoStart



           ************************************************************
           *        Program running with 4 parallel MPI-processes     *
           *              working on a common directory               *
           ************************************************************
------------------------------------------------------------------------------
                           ORCA GTO INTEGRAL CALCULATION
                           -- RI-GTO INTEGRALS CHOSEN --
------------------------------------------------------------------------------

                         BASIS SET STATISTICS AND STARTUP INFO

Gaussian basis set:
 # of primitive gaussian shells          ...  242
 # of primitive gaussian functions       ...  372
 # of contracted shells                  ...   80
 # of contracted basis functions         ...  162
 Highest angular momentum                ...    2
 Maximum contraction depth               ...   11
Auxiliary gaussian basis set:
 # of primitive gaussian shells          ...  307
 # of primitive gaussian functions       ...  955
 # of contracted shells                  ...  307
 # of contracted aux-basis functions     ...  955
 Highest angular momentum                ...    4
 Maximum contraction depth               ...    1
Ratio of auxiliary to basis functions    ...  5.90
Integral package used                  ... LIBINT
 One Electron integrals                  ... done
 Ordering auxiliary basis shells         ... done
 Integral threshhold             Thresh  ...  2.500e-11
 Primitive cut-off               TCut    ...  2.500e-12
 Pre-screening matrix                    ... done
 Shell pair data                         ... 
 Ordering of the shell pairs             ... done (   0.001 sec) 3228 of 3240 pairs
 Determination of significant pairs      ... done (   0.000 sec)
 Creation of shell pair data             ... done (   0.002 sec)
 Storage of shell pair data              ... done (   0.005 sec)
 Shell pair data done in (   0.008 sec)
 Computing two index integrals           ... done
 Cholesky decomposition of the V-matrix  ... done


Timings:
 Total evaluation time                   ...  44.556 sec (  0.743 min)
 One electron matrix time                ...  43.884 sec (  0.731 min) = 98.5%
 Schwartz matrix evaluation time         ...   0.241 sec (  0.004 min) =  0.5%
 Two index repulsion integral time       ...   0.170 sec (  0.003 min) =  0.4%
 Cholesky decomposition of V             ...   0.227 sec (  0.004 min) =  0.5%
 Three index repulsion integral time     ...   0.000 sec (  0.000 min) =  0.0%



           ************************************************************
           *        Program running with 4 parallel MPI-processes     *
           *              working on a common directory               *
           ************************************************************
-------------------------------------------------------------------------------
                                 ORCA SCF
-------------------------------------------------------------------------------

------------
SCF SETTINGS
------------
Hamiltonian:
 Ab initio Hamiltonian  Method          .... Hartree-Fock(GTOs)
 RI-approximation to the Coulomb term is turned on
   Number of auxiliary basis functions  .... 955
   RI-JK (J+K treated both via RI)      .... on


General Settings:
 Integral files         IntName         .... cyclohexanethiol_ax
 Hartree-Fock type      HFTyp           .... RHF
 Total Charge           Charge          ....    0
 Multiplicity           Mult            ....    1
 Number of Electrons    NEL             ....   64
 Basis Dimension        Dim             ....  162
 Nuclear Repulsion      ENuc            ....    390.0433973175 Eh

Convergence Acceleration:
 DIIS                   CNVDIIS         .... off
 Newton-Raphson         CNVNR           .... off
 SOSCF                  CNVSOSCF        .... on
   Start iteration      SOSCFMaxIt      ....   150
   Startup grad/error   SOSCFStart      ....  0.003300
 Level Shifting         CNVShift        .... on
   Level shift para.    LevelShift      ....    0.2000
   Turn off err/grad.   ShiftErr        ....    0.1000
 Zerner damping         CNVZerner       .... off
 Static damping         CNVDamp         .... off
 Fernandez-Rico         CNVRico         .... off

SCF Procedure:
 Maximum # iterations   MaxIter         ....   300
 SCF integral mode      SCFMode         .... Direct
   Integral package                     .... LIBINT
 Reset frequency        DirectResetFreq ....    20
 Integral Threshold     Thresh          ....  2.500e-11 Eh
 Primitive CutOff       TCut            ....  2.500e-12 Eh

Convergence Tolerance:
 Convergence Check Mode ConvCheckMode   .... Total+1el-Energy
 Convergence forced     ConvForced      .... 1
 Energy Change          TolE            ....  1.000e-08 Eh
 1-El. energy change                    ....  1.000e-05 Eh
 Orbital Gradient       TolG            ....  1.000e-05
 Orbital Rotation angle TolX            ....  1.000e-05


Diagonalization of the overlap matrix:
Smallest eigenvalue                        ... 3.912e-03
Time for diagonalization                   ...    0.007 sec
Threshold for overlap eigenvalues          ... 1.000e-08
Number of eigenvalues below threshold      ... 0
Time for construction of square roots      ...    0.005 sec
Total time needed                          ...    0.012 sec

---------------------
INITIAL GUESS: MOREAD
---------------------
Guess MOs are being read from file: cyclohexanethiol_ax.ges
Input Geometry matches current geometry (good)
Atom 0: N(Shells)= 6 and 10 - projection required
Input basis set needs projection
NBasis(read)= 382
NBasis(calc)= 162
Basis set overlap was calculated
Using GuessMode=FMatrix for the initial guess
C*T matrix was formed
Effective Fockian was calculated
Effective Fockian was diagonalized
Initial density was built
                      ------------------
                      INITIAL GUESS DONE (   0.1 sec)
                      ------------------
--------------
SCF ITERATIONS
--------------
ITER       Energy         Delta-E        Max-DP      RMS-DP      [F,P]   Gradient Norm
                             ****Turning on KDIIS(Cayley)****
  0   -631.7508884321   0.000000000000 0.00193504  0.00005201  0.0044887   0.005273883
  1   -631.7510320376  -0.000143605525 0.00381258  0.00010260  0.0040758   0.004795027
                      *** Initiating the SOSCF procedure ***
                           *** Shutting down KDIIS ***
                      *** Re-Reading the Fockian *** 
                      *** Removing any level shift *** 
ITER      Energy       Delta-E        Grad      Rot      Max-DP    RMS-DP
  2   -631.75127928  -0.0002472408  0.003268  0.003268  0.005993  0.000167
  3   -631.75157623  -0.0002969469  0.001959  0.000883  0.007976  0.000226
  4   -631.75173827  -0.0001620408  0.000293  0.000311  0.001164  0.000041
  5   -631.75174464  -0.0000063729  0.000117  0.000081  0.000308  0.000011
  6   -631.75174545  -0.0000008097  0.000029  0.000037  0.000076  0.000003
  7   -631.75174550  -0.0000000487  0.000009  0.000015  0.000025  0.000001
  8   -631.75174550  -0.0000000046  0.000003  0.000008  0.000012  0.000000
                 **** Energy Check signals convergence ****
              ***Rediagonalizing the Fockian in SOSCF/NRSCF***

               *****************************************************
               *                     SUCCESS                       *
               *           SCF CONVERGED AFTER   9 CYCLES          *
               *****************************************************


----------------
TOTAL SCF ENERGY
----------------

Total Energy       :         -631.75174550 Eh          -17190.83896 eV

Components:
Nuclear Repulsion  :          390.04339732 Eh           10613.62043 eV
Electronic Energy  :        -1021.79514282 Eh          -27804.45939 eV
One Electron Energy:        -1639.97459383 Eh          -44625.97744 eV
Two Electron Energy:          618.17945101 Eh           16821.51805 eV

Virial components:
Potential Energy   :        -1263.16406329 Eh          -34372.44162 eV
Kinetic Energy     :          631.41231779 Eh           17181.60266 eV
Virial Ratio       :            2.00053757


---------------
SCF CONVERGENCE
---------------

  Last Energy change         ...   -5.7980e-10  Tolerance :   1.0000e-08
  Last MAX-Density change    ...    3.3853e-06  Tolerance :   1.0000e-07
  Last RMS-Density change    ...    1.0508e-07  Tolerance :   5.0000e-09
  Last Orbital Gradient      ...    1.1733e-06  Tolerance :   1.0000e-05
  Last Orbital Rotation      ...    1.1159e-06  Tolerance :   1.0000e-05

             **** THE GBW FILE WAS UPDATED (cyclohexanethiol_ax.gbw) ****
             **** DENSITY FILE WAS UPDATED (cyclohexanethiol_ax.scfp.tmp) ****
             **** ENERGY FILE WAS UPDATED (cyclohexanethiol_ax.en.tmp) ****
----------------
ORBITAL ENERGIES
----------------

  NO   OCC          E(Eh)            E(eV) 
   0   2.0000     -91.939825     -2501.8098 
   1   2.0000     -11.268189      -306.6230 
   2   2.0000     -11.233538      -305.6801 
   3   2.0000     -11.232787      -305.6597 
   4   2.0000     -11.224918      -305.4455 
   5   2.0000     -11.224061      -305.4222 
   6   2.0000     -11.222862      -305.3896 
   7   2.0000      -8.942393      -243.3349 
   8   2.0000      -6.624442      -180.2602 
   9   2.0000      -6.622963      -180.2200 
  10   2.0000      -6.620740      -180.1595 
  11   2.0000      -1.125878       -30.6367 
  12   2.0000      -1.028748       -27.9937 
  13   2.0000      -1.007923       -27.4270 
  14   2.0000      -0.929576       -25.2951 
  15   2.0000      -0.837550       -22.7909 
  16   2.0000      -0.818693       -22.2778 
  17   2.0000      -0.731510       -19.9054 
  18   2.0000      -0.657402       -17.8888 
  19   2.0000      -0.619087       -16.8462 
  20   2.0000      -0.607571       -16.5329 
  21   2.0000      -0.585650       -15.9363 
  22   2.0000      -0.541656       -14.7392 
  23   2.0000      -0.533774       -14.5247 
  24   2.0000      -0.530379       -14.4323 
  25   2.0000      -0.500780       -13.6269 
  26   2.0000      -0.482007       -13.1161 
  27   2.0000      -0.470403       -12.8003 
  28   2.0000      -0.439165       -11.9503 
  29   2.0000      -0.435835       -11.8597 
  30   2.0000      -0.420309       -11.4372 
  31   2.0000      -0.347230        -9.4486 
  32   0.0000       0.155148         4.2218 
  33   0.0000       0.186050         5.0627 
  34   0.0000       0.204182         5.5561 
  35   0.0000       0.212331         5.7778 
  36   0.0000       0.217787         5.9263 
  37   0.0000       0.247671         6.7395 
  38   0.0000       0.251069         6.8319 
  39   0.0000       0.259641         7.0652 
  40   0.0000       0.263367         7.1666 
  41   0.0000       0.274038         7.4569 
  42   0.0000       0.279685         7.6106 
  43   0.0000       0.289166         7.8686 
  44   0.0000       0.304787         8.2937 
  45   0.0000       0.370663        10.0863 
  46   0.0000       0.373169        10.1545 
  47   0.0000       0.386001        10.5036 
  48   0.0000       0.410612        11.1733 
  49   0.0000       0.418742        11.3945 
  50   0.0000       0.443858        12.0780 
  51   0.0000       0.536648        14.6029 
  52   0.0000       0.578723        15.7479 
  53   0.0000       0.600666        16.3450 
  54   0.0000       0.616998        16.7894 
  55   0.0000       0.618993        16.8436 
  56   0.0000       0.631239        17.1769 
  57   0.0000       0.634757        17.2726 
  58   0.0000       0.661918        18.0117 
  59   0.0000       0.689963        18.7749 
  60   0.0000       0.717986        19.5374 
  61   0.0000       0.756360        20.5816 
  62   0.0000       0.778502        21.1841 
  63   0.0000       0.804687        21.8966 
  64   0.0000       0.812531        22.1101 
  65   0.0000       0.831023        22.6133 
  66   0.0000       0.845480        23.0067 
  67   0.0000       0.847506        23.0618 
  68   0.0000       0.855068        23.2676 
  69   0.0000       0.863543        23.4982 
  70   0.0000       0.866037        23.5661 
  71   0.0000       0.876484        23.8503 
  72   0.0000       0.881176        23.9780 
  73   0.0000       0.885447        24.0942 
  74   0.0000       0.900312        24.4987 
  75   0.0000       0.909054        24.7366 
  76   0.0000       0.910438        24.7743 
  77   0.0000       0.918821        25.0024 
  78   0.0000       0.927196        25.2303 
  79   0.0000       0.930681        25.3251 
  80   0.0000       0.934393        25.4261 
  81   0.0000       0.956027        26.0148 
  82   0.0000       0.957296        26.0493 
  83   0.0000       0.986965        26.8567 
  84   0.0000       1.050238        28.5784 
  85   0.0000       1.058813        28.8118 
  86   0.0000       1.127335        30.6763 
  87   0.0000       1.178726        32.0748 
  88   0.0000       1.198953        32.6252 
  89   0.0000       1.227113        33.3914 
  90   0.0000       1.234277        33.5864 
  91   0.0000       1.258320        34.2406 
  92   0.0000       1.283779        34.9334 
  93   0.0000       1.369262        37.2595 
  94   0.0000       1.425774        38.7973 
  95   0.0000       1.445683        39.3390 
  96   0.0000       1.489634        40.5350 
  97   0.0000       1.496881        40.7322 
  98   0.0000       1.557293        42.3761 
  99   0.0000       1.566259        42.6201 
 100   0.0000       1.632969        44.4353 
 101   0.0000       1.638693        44.5911 
 102   0.0000       1.672049        45.4988 
 103   0.0000       1.693929        46.0941 
 104   0.0000       1.704180        46.3731 
 105   0.0000       1.722945        46.8837 
 106   0.0000       1.732256        47.1371 
 107   0.0000       1.768562        48.1250 
 108   0.0000       1.836054        49.9616 
 109   0.0000       1.846579        50.2480 
 110   0.0000       1.869011        50.8584 
 111   0.0000       1.891001        51.4568 
 112   0.0000       1.894277        51.5459 
 113   0.0000       1.900751        51.7221 
 114   0.0000       1.920058        52.2474 
 115   0.0000       1.931534        52.5597 
 116   0.0000       1.935711        52.6734 
 117   0.0000       1.945883        52.9502 
 118   0.0000       1.956117        53.2287 
 119   0.0000       1.966205        53.5032 
 120   0.0000       1.977095        53.7995 
 121   0.0000       1.984995        54.0145 
 122   0.0000       1.995442        54.2987 
 123   0.0000       2.021648        55.0118 
 124   0.0000       2.036735        55.4224 
 125   0.0000       2.049013        55.7565 
 126   0.0000       2.052607        55.8543 
 127   0.0000       2.080273        56.6071 
 128   0.0000       2.124446        57.8091 
 129   0.0000       2.137082        58.1530 
 130   0.0000       2.189728        59.5855 
 131   0.0000       2.196220        59.7622 
 132   0.0000       2.217282        60.3353 
 133   0.0000       2.242031        61.0088 
 134   0.0000       2.268912        61.7402 
 135   0.0000       2.299452        62.5713 
 136   0.0000       2.307422        62.7881 
 137   0.0000       2.328565        63.3635 
 138   0.0000       2.345941        63.8363 
 139   0.0000       2.382515        64.8315 
 140   0.0000       2.413571        65.6766 
 141   0.0000       2.490053        67.7578 
 142   0.0000       2.499415        68.0125 
 143   0.0000       2.532699        68.9182 
 144   0.0000       2.550034        69.3900 
 145   0.0000       2.550969        69.4154 
 146   0.0000       2.559532        69.6484 
 147   0.0000       2.567197        69.8570 
 148   0.0000       2.594204        70.5919 
 149   0.0000       2.648915        72.0806 
 150   0.0000       2.667191        72.5779 
 151   0.0000       2.784377        75.7668 
 152   0.0000       2.851318        77.5883 
 153   0.0000       2.865076        77.9627 
 154   0.0000       2.875685        78.2514 
 155   0.0000       2.890314        78.6494 
 156   0.0000       2.919493        79.4434 
 157   0.0000       2.948331        80.2282 
 158   0.0000       3.003817        81.7380 
 159   0.0000       3.032092        82.5074 
 160   0.0000       3.050763        83.0155 
 161   0.0000       3.136425        85.3465 

                    ********************************
                    * MULLIKEN POPULATION ANALYSIS *
                    ********************************

-----------------------
MULLIKEN ATOMIC CHARGES
-----------------------
   0 C :   -0.220307
   1 C :    0.013219
   2 C :   -0.037789
   3 C :   -0.047588
   4 C :   -0.043017
   5 C :   -0.002566
   6 S :   -0.096641
   7 H :    0.025054
   8 H :    0.041727
   9 H :    0.026034
  10 H :    0.020413
  11 H :    0.041507
  12 H :    0.027106
  13 H :    0.028495
  14 H :    0.025683
  15 H :    0.041018
  16 H :    0.032352
  17 H :    0.055944
  18 H :    0.069357
Sum of atomic charges:    0.0000000

--------------------------------
MULLIKEN REDUCED ORBITAL CHARGES
--------------------------------
  0 C s       :     3.198274  s :     3.198274
      pz      :     0.958095  p :     2.921205
      px      :     0.946683
      py      :     1.016427
      dz2     :     0.019718  d :     0.100828
      dxz     :     0.026663
      dyz     :     0.009600
      dx2y2   :     0.019265
      dxy     :     0.025581
  1 C s       :     3.049387  s :     3.049387
      pz      :     0.977751  p :     2.855674
      px      :     0.940293
      py      :     0.937630
      dz2     :     0.020166  d :     0.081719
      dxz     :     0.021676
      dyz     :     0.005947
      dx2y2   :     0.010610
      dxy     :     0.023320
  2 C s       :     3.066084  s :     3.066084
      pz      :     0.982576  p :     2.889278
      px      :     0.949533
      py      :     0.957168
      dz2     :     0.019241  d :     0.082427
      dxz     :     0.023012
      dyz     :     0.006377
      dx2y2   :     0.011209
      dxy     :     0.022588
  3 C s       :     3.073803  s :     3.073803
      pz      :     0.977745  p :     2.890834
      px      :     0.976086
      py      :     0.937003
      dz2     :     0.013750  d :     0.082950
      dxz     :     0.022514
      dyz     :     0.007328
      dx2y2   :     0.016225
      dxy     :     0.023134
  4 C s       :     3.067399  s :     3.067399
      pz      :     0.977714  p :     2.893054
      px      :     0.953634
      py      :     0.961706
      dz2     :     0.019273  d :     0.082564
      dxz     :     0.022944
      dyz     :     0.006590
      dx2y2   :     0.011253
      dxy     :     0.022503
  5 C s       :     3.056347  s :     3.056347
      pz      :     0.981073  p :     2.864979
      px      :     0.943170
      py      :     0.940736
      dz2     :     0.019738  d :     0.081239
      dxz     :     0.021646
      dyz     :     0.005879
      dx2y2   :     0.010518
      dxy     :     0.023459
  6 S s       :     5.797476  s :     5.797476
      pz      :     3.506333  p :    10.217819
      px      :     3.311620
      py      :     3.399867
      dz2     :     0.015441  d :     0.081346
      dxz     :     0.026033
      dyz     :     0.007304
      dx2y2   :     0.012608
      dxy     :     0.019960
  7 H s       :     0.945632  s :     0.945632
      pz      :     0.004609  p :     0.029314
      px      :     0.009712
      py      :     0.014993
  8 H s       :     0.928857  s :     0.928857
      pz      :     0.016427  p :     0.029416
      px      :     0.008732
      py      :     0.004257
  9 H s       :     0.944613  s :     0.944613
      pz      :     0.015000  p :     0.029353
      px      :     0.010458
      py      :     0.003894
 10 H s       :     0.950984  s :     0.950984
      pz      :     0.015099  p :     0.028603
      px      :     0.009795
      py      :     0.003709
 11 H s       :     0.929267  s :     0.929267
      pz      :     0.016563  p :     0.029226
      px      :     0.008291
      py      :     0.004372
 12 H s       :     0.943565  s :     0.943565
      pz      :     0.004633  p :     0.029329
      px      :     0.009803
      py      :     0.014894
 13 H s       :     0.942731  s :     0.942731
      pz      :     0.015993  p :     0.028774
      px      :     0.008478
      py      :     0.004303
 14 H s       :     0.945053  s :     0.945053
      pz      :     0.004657  p :     0.029265
      px      :     0.009569
      py      :     0.015038
 15 H s       :     0.929518  s :     0.929518
      pz      :     0.004501  p :     0.029465
      px      :     0.009820
      py      :     0.015144
 16 H s       :     0.938757  s :     0.938757
      pz      :     0.016087  p :     0.028891
      px      :     0.008539
      py      :     0.004264
 17 H s       :     0.915773  s :     0.915773
      pz      :     0.016234  p :     0.028283
      px      :     0.008479
      py      :     0.003571
 18 H s       :     0.896951  s :     0.896951
      pz      :     0.006450  p :     0.033692
      px      :     0.009623
      py      :     0.017619


                     *******************************
                     * LOEWDIN POPULATION ANALYSIS *
                     *******************************

----------------------
LOEWDIN ATOMIC CHARGES
----------------------
   0 C :   -0.110692
   1 C :   -0.039651
   2 C :   -0.033502
   3 C :   -0.032942
   4 C :   -0.034129
   5 C :   -0.038069
   6 S :    0.096848
   7 H :    0.020297
   8 H :    0.019518
   9 H :    0.020823
  10 H :    0.014648
  11 H :    0.019396
  12 H :    0.021332
  13 H :    0.020700
  14 H :    0.018468
  15 H :    0.022899
  16 H :    0.022316
  17 H :    0.018599
  18 H :   -0.026858

-------------------------------
LOEWDIN REDUCED ORBITAL CHARGES
-------------------------------
  0 C s       :     2.849013  s :     2.849013
      pz      :     0.995624  p :     3.030689
      px      :     0.994235
      py      :     1.040829
      dz2     :     0.045388  d :     0.230991
      dxz     :     0.063734
      dyz     :     0.021440
      dx2y2   :     0.043000
      dxy     :     0.057429
  1 C s       :     2.796790  s :     2.796790
      pz      :     1.021252  p :     3.036494
      px      :     1.013399
      py      :     1.001843
      dz2     :     0.049961  d :     0.206367
      dxz     :     0.053517
      dyz     :     0.014447
      dx2y2   :     0.027261
      dxy     :     0.061181
  2 C s       :     2.791479  s :     2.791479
      pz      :     1.020095  p :     3.038373
      px      :     1.010583
      py      :     1.007696
      dz2     :     0.048271  d :     0.203650
      dxz     :     0.055304
      dyz     :     0.014671
      dx2y2   :     0.028014
      dxy     :     0.057390
  3 C s       :     2.793652  s :     2.793652
      pz      :     1.032229  p :     3.034297
      px      :     1.007647
      py      :     0.994421
      dz2     :     0.032963  d :     0.204992
      dxz     :     0.061652
      dyz     :     0.017244
      dx2y2   :     0.039067
      dxy     :     0.054066
  4 C s       :     2.791905  s :     2.791905
      pz      :     1.017765  p :     3.038324
      px      :     1.011560
      py      :     1.008998
      dz2     :     0.048330  d :     0.203900
      dxz     :     0.055001
      dyz     :     0.015307
      dx2y2   :     0.027938
      dxy     :     0.057324
  5 C s       :     2.794290  s :     2.794290
      pz      :     1.022735  p :     3.038674
      px      :     1.013433
      py      :     1.002506
      dz2     :     0.049360  d :     0.205106
      dxz     :     0.053724
      dyz     :     0.014196
      dx2y2   :     0.026955
      dxy     :     0.060871
  6 S s       :     5.536451  s :     5.536451
      pz      :     3.534276  p :    10.262398
      px      :     3.319159
      py      :     3.408964
      dz2     :     0.019802  d :     0.104303
      dxz     :     0.031479
      dyz     :     0.009117
      dx2y2   :     0.015652
      dxy     :     0.028254
  7 H s       :     0.901097  s :     0.901097
      pz      :     0.016100  p :     0.078606
      px      :     0.026069
      py      :     0.036437
  8 H s       :     0.900129  s :     0.900129
      pz      :     0.039678  p :     0.080353
      px      :     0.024902
      py      :     0.015773
  9 H s       :     0.900745  s :     0.900745
      pz      :     0.034922  p :     0.078432
      px      :     0.027265
      py      :     0.016245
 10 H s       :     0.907584  s :     0.907584
      pz      :     0.035398  p :     0.077768
      px      :     0.026353
      py      :     0.016017
 11 H s       :     0.900959  s :     0.900959
      pz      :     0.039610  p :     0.079644
      px      :     0.024033
      py      :     0.016001
 12 H s       :     0.900086  s :     0.900086
      pz      :     0.016013  p :     0.078583
      px      :     0.026248
      py      :     0.036322
 13 H s       :     0.901051  s :     0.901051
      pz      :     0.038565  p :     0.078249
      px      :     0.024065
      py      :     0.015620
 14 H s       :     0.902813  s :     0.902813
      pz      :     0.015959  p :     0.078719
      px      :     0.025896
      py      :     0.036864
 15 H s       :     0.897473  s :     0.897473
      pz      :     0.015905  p :     0.079628
      px      :     0.026386
      py      :     0.037337
 16 H s       :     0.899202  s :     0.899202
      pz      :     0.038812  p :     0.078482
      px      :     0.024086
      py      :     0.015584
 17 H s       :     0.897456  s :     0.897456
      pz      :     0.041937  p :     0.083946
      px      :     0.024906
      py      :     0.017103
 18 H s       :     0.937838  s :     0.937838
      pz      :     0.019571  p :     0.089021
      px      :     0.024742
      py      :     0.044707


                      *****************************
                      * MAYER POPULATION ANALYSIS *
                      *****************************

  NA   - Mulliken gross atomic population
  ZA   - Total nuclear charge
  QA   - Mulliken gross atomic charge
  VA   - Mayer's total valence
  BVA  - Mayer's bonded valence
  FA   - Mayer's free valence

  ATOM       NA         ZA         QA         VA         BVA        FA
  0 C      6.2203     6.0000    -0.2203     3.9904     3.9904    -0.0000
  1 C      5.9868     6.0000     0.0132     3.9373     3.9373    -0.0000
  2 C      6.0378     6.0000    -0.0378     3.9807     3.9807     0.0000
  3 C      6.0476     6.0000    -0.0476     3.9994     3.9994     0.0000
  4 C      6.0430     6.0000    -0.0430     3.9843     3.9843     0.0000
  5 C      6.0026     6.0000    -0.0026     3.9503     3.9503    -0.0000
  6 S     16.0966    16.0000    -0.0966     1.9846     1.9846     0.0000
  7 H      0.9749     1.0000     0.0251     0.9697     0.9697     0.0000
  8 H      0.9583     1.0000     0.0417     0.9762     0.9762    -0.0000
  9 H      0.9740     1.0000     0.0260     0.9715     0.9715    -0.0000
 10 H      0.9796     1.0000     0.0204     0.9643     0.9643    -0.0000
 11 H      0.9585     1.0000     0.0415     0.9681     0.9681     0.0000
 12 H      0.9729     1.0000     0.0271     0.9705     0.9705     0.0000
 13 H      0.9715     1.0000     0.0285     0.9666     0.9666    -0.0000
 14 H      0.9743     1.0000     0.0257     0.9767     0.9767     0.0000
 15 H      0.9590     1.0000     0.0410     0.9754     0.9754    -0.0000
 16 H      0.9676     1.0000     0.0324     0.9685     0.9685     0.0000
 17 H      0.9441     1.0000     0.0559     0.9637     0.9637     0.0000
 18 H      0.9306     1.0000     0.0694     0.9862     0.9862    -0.0000

  Mayer bond orders larger than 0.1
B(  0-C ,  1-C ) :   1.0110 B(  0-C ,  5-C ) :   1.0225 B(  0-C ,  6-S ) :   1.0110 
B(  0-C , 17-H ) :   0.9691 B(  1-C ,  2-C ) :   1.0397 B(  1-C , 13-H ) :   0.9589 
B(  1-C , 14-H ) :   0.9710 B(  2-C ,  3-C ) :   1.0438 B(  2-C ,  7-H ) :   0.9723 
B(  2-C ,  8-H ) :   0.9625 B(  3-C ,  4-C ) :   1.0426 B(  3-C ,  9-H ) :   0.9729 
B(  3-C , 10-H ) :   0.9656 B(  4-C ,  5-C ) :   1.0386 B(  4-C , 11-H ) :   0.9645 
B(  4-C , 12-H ) :   0.9725 B(  5-C , 15-H ) :   0.9697 B(  5-C , 16-H ) :   0.9635 
B(  6-S , 18-H ) :   0.9774 

-------
TIMINGS
-------

Total SCF time: 0 days 0 hours 0 min 9 sec 

Total time                  ....       9.164 sec
Sum of individual times     ....       8.967 sec  ( 97.8%)

Fock matrix formation       ....       8.853 sec  ( 96.6%)
Diagonalization             ....       0.030 sec  (  0.3%)
Density matrix formation    ....       0.002 sec  (  0.0%)
Population analysis         ....       0.007 sec  (  0.1%)
Initial guess               ....       0.055 sec  (  0.6%)
Orbital Transformation      ....       0.000 sec  (  0.0%)
Orbital Orthonormalization  ....       0.000 sec  (  0.0%)
DIIS solution               ....       0.000 sec  (  0.0%)
SOSCF solution              ....       0.019 sec  (  0.2%)


           ************************************************************
           *        Program running with 4 parallel MPI-processes     *
           *              working on a common directory               *
           ************************************************************


------------------------------------------------------------------------------- 
                              ORCA-MATRIX DRIVEN CI                            
------------------------------------------------------------------------------- 


Wavefunction type
-----------------
Correlation treatment                      ...      CCSD     
Single excitations                         ... ON
Orbital optimization                       ... OFF
Calculation of Z vector                    ... OFF
Calculation of Brueckner orbitals          ... OFF
Perturbative triple excitations            ... ON
Calculation of F12 correction              ... OFF
Frozen core treatment                      ... chemical core (22 el)
Reference Wavefunction                     ... RHF
  Internal Orbitals:    11 ...   31 ( 21 MO's/ 42 electrons)
  Virtual  Orbitals:    32 ...  161 (130 MO's              )
Number of AO's                             ...    162
Number of electrons                        ...     64
Number of correlated electrons             ...     42

Algorithmic settings
--------------------
Integral transformation                    ... All integrals via the RI transformation
K(C) Formation                             ... RI-DLPNO
   PNO-Integral Storage                    ... ON DISK
   PNO occupation number cut-off           ... 1.000e-07
   Singles PNO occupation number cut-off   ... 3.000e-09
   PNO Mulliken prescreening cut-off       ... 1.000e-03
   Domain cut-off (Mulliken population)    ... 1.000e-03
   PNO Normalization                       ...    1
Maximum number of iterations               ...        50
Convergence tolerance (max. residuum)      ... 1.000e-05
Level shift for amplitude update           ... 2.000e-01
Maximum number of DIIS vectors             ...         7
DIIS turned on at iteration                ...         0
Damping before turning on DIIS             ...     0.500
Damping after turning on DIIS              ...     0.000
Pair specific amplitude update             ... OFF
Natural orbital iterations                 ... OFF
Perturbative natural orbital generation    ... OFF
Printlevel                                 ... 2

Singles Fock matrix elements calculated using PNOs.

Memory handling:
----------------
Maximum memory for working arrays          ...   8000 MB
Data storage in matrix containers          ... UNCOMPRESSED
Data type for integral storage             ... DOUBLE
In-Core Storage of quantities:
   Amplitudes+Sigma Vector      ... NO
   J+K operators                ... NO
   DIIS vectors                 ... NO
   3-external integrals         ... NO
   4-external integrals         ... NO

Localization treatment:
-----------------------
Localization option                        ...    6
Localization threshhold                    ... -1.0e+00
Using relative localization threshhold     ... 1.0e-08
Neglect threshold for strong pairs         ... 1.000e-05 Eh
Prescreening threshold for very weak pairs ... 1.000e-07 Eh

Initializing the integral package          ... done
Localizing the valence orbitals
------------------------------------------------------------------------------
                           ORCA ORBITAL LOCALIZATION
------------------------------------------------------------------------------

Input orbitals are from                  ... cyclohexanethiol_ax.proc0.gbw
Output orbitals are to                   ... cyclohexanethiol_ax.proc0.loc
Max. number of iterations                ... 128
Localizations seeded randomly            ... off
Convergence tolerance                    ... 1.000e-06
Using relative localization threshhold   ... 1.000e-08
Treshold for strong local MOs            ... 9.500e-01
Treshold for bond MOs                    ... 8.500e-01
Operator                                 ... 0
Orbital range for localization           ... 11 to 31
Localization criterion                   ... FOSTER-BOYS (AUGMENTED HESSIAN)
Doing the dipole integrals     ... o.k.
Initial value of the localization sum :   277.327966
ITERATION   0 : L=  293.7270264404 DL=  1.64e+01 (AVERGE_DL)=    0.2794472492 
ITERATION   1 : L=  294.3133224186 DL=  5.86e-01 (AVERGE_DL)=    0.0528382968 
ITERATION   2 : L=  294.3174129538 DL=  4.09e-03 (AVERGE_DL)=    0.0044134725 
ITERATION   3 : L=  294.3174861218 DL=  7.32e-05 (AVERGE_DL)=    0.0005902701 
ITERATION   4 : L=  294.3174873827 DL=  1.26e-06 (AVERGE_DL)=    0.0000774882 
ITERATION   5 : L=  294.3174874098 DL=  2.71e-08 (AVERGE_DL)=    0.0000113586 
LOCALIZATION SUM CONVERGED

------------------------------------------------------
AUGMENTED HESSIAN OPTIMIZATION OF FOSTER-BOYS ORBITALS
------------------------------------------------------

Spin operator:           0
Orbital window:          11 to 31
Number of iterations:    128
Gradient tolerance:      1.000e-06
Number of pairs:         210
Davidson threshold:      2000
Diagonalization method:  LAPACK
Iter:    0   L: 294.3174874098   Grad. norm: 9.669679e-04
   *** Likely close to a maximum now. ***
       Augmented Hessian eigenvalues:  6.65e-09 -6.93e+00 -1.41e+01 -1.74e+01 ... 
Iter:    1   L: 294.3174874131   Grad. norm: 6.889515e-10
LOCALIZATION HAS CONVERGED.

Eigenvalues of the Hessian:
  0 -6.926e+00
  1 -1.406e+01
  2 -1.737e+01
  3 -1.775e+01
  4 -1.777e+01
  5 -1.786e+01
  6 -1.790e+01
  7 -1.807e+01
  8 -1.828e+01
  9 -1.833e+01
    ...


------------------------------------------------------------------------------- 
                    LOCALIZED MOLECULAR ORBITAL COMPOSITIONS                   
------------------------------------------------------------------------------- 

The Mulliken populations for each LMO on each atom are computed
The LMO`s will be ordered according to atom index and type
  (A) Strongly localized MO`s have populations of >=0.950 on one atom
  (B) Two center bond orbitals have populations of >=0.850 on two atoms
  (C) Other MO`s are considered to be `delocalized`

FOUND  -   2 strongly local MO`s
       -  19 two center bond MO`s
       -   0 significantly delocalized MO`s

Rather strongly localized orbitals:
MO  12:   6S  -   1.005861
MO  11:   6S  -   1.003254
Bond-like localized orbitals:
MO  31:  18H  -   0.476565  and   6S  -   0.528077
MO  30:  17H  -   0.490532  and   0C  -   0.524894
MO  29:  16H  -   0.503373  and   5C  -   0.506666
MO  28:  15H  -   0.495377  and   5C  -   0.515441
MO  27:  14H  -   0.503727  and   1C  -   0.506800
MO  26:  13H  -   0.506168  and   1C  -   0.502817
MO  25:  12H  -   0.505003  and   4C  -   0.505561
MO  24:  11H  -   0.498744  and   4C  -   0.513178
MO  23:  10H  -   0.511835  and   3C  -   0.502043
MO  22:   9H  -   0.505230  and   3C  -   0.505694
MO  21:   8H  -   0.495705  and   2C  -   0.516142
MO  20:   7H  -   0.506514  and   2C  -   0.503877
MO  19:   6S  -   0.541553  and   0C  -   0.500054
MO  18:   5C  -   0.533547  and   4C  -   0.511754
MO  17:   5C  -   0.488547  and   0C  -   0.560133
MO  16:   4C  -   0.524712  and   3C  -   0.521660
MO  15:   3C  -   0.523083  and   2C  -   0.523291
MO  14:   2C  -   0.509993  and   1C  -   0.534980
MO  13:   1C  -   0.496357  and   0C  -   0.552765
Localized MO's were stored in: cyclohexanethiol_ax.proc0.loc

Localizing the core orbitals
------------------------------------------------------------------------------
                           ORCA ORBITAL LOCALIZATION
------------------------------------------------------------------------------

Input orbitals are from                  ... cyclohexanethiol_ax.proc0.loc
Output orbitals are to                   ... cyclohexanethiol_ax.proc0.loc
Max. number of iterations                ... 128
Localizations seeded randomly            ... off
Convergence tolerance                    ... 1.000e-06
Using relative localization threshhold   ... 1.000e-08
Treshold for strong local MOs            ... 9.500e-01
Treshold for bond MOs                    ... 8.500e-01
Operator                                 ... 0
Orbital range for localization           ... 0 to 10
Localization criterion                   ... FOSTER-BOYS (AUGMENTED HESSIAN)
Doing the dipole integrals     ... o.k.
Initial value of the localization sum :   131.637486
ITERATION   0 : L=  131.8378763842 DL=  2.00e-01 (AVERGE_DL)=    0.0603610251 
ITERATION   1 : L=  131.8437860179 DL=  5.91e-03 (AVERGE_DL)=    0.0103657071 
ITERATION   2 : L=  131.8441565832 DL=  3.71e-04 (AVERGE_DL)=    0.0025956795 
ITERATION   3 : L=  131.8441794011 DL=  2.28e-05 (AVERGE_DL)=    0.0006441044 
ITERATION   4 : L=  131.8441809195 DL=  1.52e-06 (AVERGE_DL)=    0.0001661557 
ITERATION   5 : L=  131.8441810017 DL=  8.21e-08 (AVERGE_DL)=    0.0000386436 
LOCALIZATION SUM CONVERGED

------------------------------------------------------
AUGMENTED HESSIAN OPTIMIZATION OF FOSTER-BOYS ORBITALS
------------------------------------------------------

Spin operator:           0
Orbital window:          0 to 10
Number of iterations:    128
Gradient tolerance:      1.000e-06
Number of pairs:         55
Davidson threshold:      2000
Diagonalization method:  LAPACK
Iter:    0   L: 131.8441810017   Grad. norm: 2.878705e-04
Iter:    1   L: 131.8441902181   Grad. norm: 2.742027e-04
Iter:    2   L: 131.8442012759   Grad. norm: 2.421943e-04
Iter:    3   L: 131.8442105219   Grad. norm: 1.710049e-04
Iter:    4   L: 131.8442147721   Grad. norm: 4.504284e-05
Iter:    5   L: 131.8442148837   Grad. norm: 6.217514e-07
   *** Likely close to a maximum now. ***
       Augmented Hessian eigenvalues:  1.34e-11 -8.12e-05 -1.51e-04 -2.06e-04 ... 
Iter:    6   L: 131.8442148837   Grad. norm: 3.216164e-11
LOCALIZATION HAS CONVERGED.

Eigenvalues of the Hessian:
  0 -8.115e-05
  1 -1.512e-04
  2 -2.056e-04
  3 -1.375e-01
  4 -1.378e-01
  5 -1.382e-01
  6 -4.134e-01
  7 -5.503e-01
  8 -5.513e-01
  9 -5.522e-01
    ...


------------------------------------------------------------------------------- 
                    LOCALIZED MOLECULAR ORBITAL COMPOSITIONS                   
------------------------------------------------------------------------------- 

The Mulliken populations for each LMO on each atom are computed
The LMO`s will be ordered according to atom index and type
  (A) Strongly localized MO`s have populations of >=0.950 on one atom
  (B) Two center bond orbitals have populations of >=0.850 on two atoms
  (C) Other MO`s are considered to be `delocalized`

FOUND  -  11 strongly local MO`s
       -   0 two center bond MO`s
       -   0 significantly delocalized MO`s

Rather strongly localized orbitals:
MO  10:   6S  -   0.999897
MO   9:   6S  -   0.999894
MO   8:   6S  -   0.999999
MO   7:   6S  -   0.999892
MO   6:   6S  -   0.999749
MO   5:   5C  -   0.999257
MO   4:   4C  -   0.999225
MO   3:   3C  -   0.999242
MO   2:   2C  -   0.999222
MO   1:   1C  -   0.999244
MO   0:   0C  -   0.999099
Localized MO's were stored in: cyclohexanethiol_ax.proc0.loc

Warning: internal orbitals are localized - no re-canonicalization of internal orbitals

--------------------------
CLOSED-SHELL FOCK OPERATOR
--------------------------

RI-JK section for the Fock operator:
  RHF full Fock operator         ... done
  RHF frozen core Fock operator  ... done
Time needed for Fock operator              ...            1.783 sec
Reference energy                           ...   -631.751745503

--------------
DLPNO SETTINGS (2015 fully linear scaling implementation)
--------------

TCutMKN:           1.000e-03
TCutPAO:           1.000e-03
TCutPNO:           1.000e-07
TCutPNOSingles:    3.000e-09
TCutEN:            9.700e-01
TCutPAOExt:        1.000e-01
TCutPairs:         1.000e-05
TCutPre:           1.000e-07
TCutOSV:           1.000e-06
TCutDOij:          1.000e-05
TCutDO:            5.000e-03
TCutC:             1.000e-04
TCutCPAO:          1.000e-03
TCutCMO:           1.000e-03
TScaleDOMP2PreScr: 2.000e+00
TScaleMKNMP2PreScr:1.000e+01
TScalePNOMP2PreScr:1.000e+00
PAO overlap thresh 1.000e-08
Using PNOs for Singles Fock computation
Use new domains
Use fully linear algorithm
TCutTNO:           1.000e-09
TCutMP2Pairs:      1.000e-06
TCutDOStrong:      2.000e-03
TCutMKNStrong:     1.000e-02
TCutMKNWeak:       1.000e-01
TCutDOWeak:        4.000e-03
NTCutTNO:          1

--------------------------
Calculating differential overlap integrals ... ok
--------------------------
ELECTRON PAIR PRESCREENING
--------------------------

Dipole-based pair screening          .... used

   TCutDOij = 1.000000e-05
   TCutPre  = 1.000000e-07
   .... Finished loop over pairs
Total time spent in the prescreening                  ...     0.000 sec
sum of pair energies estimated for screened out pairs ...       0.000000000000 Eh
Thresholds for map construction and integral transformation for crude MP2:
   TCutMKN                    ...     1.0e-02
   TCutDO                     ...     1.0e-02
   TCutPairs                  ...     1.0e-05
   TCutPNO_CrudeMP2           ...     1.0e-07
   TCutPNOSingles_CrudeMP2    ...     3.0e-09
--------------------------------
LOCAL RI TRANSFORMATION (IAVPAO)
--------------------------------

Orbital window:      11 to 31
Number of PAOs:     162
Basis functions:    162 (80 shells)
Aux. functions:     580 (204 shells)

Processing maps (0.0 sec)
Average map sizes:
   Aux shells -> MOs              21.0
   Aux shells -> PAOs            162.0
   MOs        -> AO shells        78.6
   PAOs       -> AO shells        79.9

Calculating integrals (0.5 sec, 15.061 MB)
Sorting integrals (0.0 sec, 15.054 MB)
Total time for the integral transformation: 0.6 sec
--------------------------------
INITIAL GUESS AND PNO GENERATION
--------------------------------

PNO truncation parameters                   .... 
    PAOOverlapThresh   =        1.000e-08

    TCutPairs          =        1.000e-05
    TCutPNO            =        1.000e-07
    TCutPNOSingles     =        3.000e-09
    TCutMP2Pairs       =        1.000e-06
    TCutMKN            =        1.000e-02
    TCutDO             =        1.000e-02

Pair selection                          .... not used
Type of local MP2 treatment                 .... semi-local MP2
Strategy for PNO selection                  .... occupation number selection
Pair density normalization                  .... MP2 norm
Spin component scaling                      .... not used

   .... Finished loop over pairs
Making pair pair interaction lists          ... done

                       ===========================
                        231 OF  231 PAIRS ARE KEPT CCSD PAIRS
                          0 OF  231 PAIRS ARE KEPT MP2 PAIRS FOR (T)
                          0 OF  231 PAIRS ARE SKIPPED
                       ===========================

Total time spent in the initial guess                 ...     0.767 sec
SL-MP2 correlation energy (all non-screened pairs)    ...      -0.956128555586 Eh

Initial PNO correlation energy                        ...      -0.955624148252 Eh
sum of pair energies prescreened and skipped MP2 pairs...       0.000000000000 Eh
sum of pair energies of crude MP2 skipped pairs only  ...       0.000000000000 Eh
sum of MP2 pair energies for pairs that were not kept ...       0.000000000000 Eh
sum of PNO error estimates for the kept pairs         ...      -0.000504407334 Eh
                                                          --------------------
sum of all corrections                                         -0.000504407334
Initial total correlation energy                               -0.956128555586
Thresholds for map construction and integral transformation for fine MP2 and CCSD(T) calculation:
   TCutMKN   ...     1.0e-03
   TCutDO    ...     5.0e-03
   TCutPairs ...     1.0e-05
   TCutCMO   ...     1.0e-03
   TCutCPAO  ...     1.0e-03

Thresholds for map construction and integral transformation for strong Triples:
   TCutMKN   ...     1.0e-02
   TCutDO    ...     1.0e-02
   TCutCMO   ...     1.0e-03
   TCutCPAO  ...     1.0e-03

Thresholds for map construction and integral transformation for weak Triples:
   TCutMKN   ...     1.0e-01
   TCutDO    ...     2.0e-02
   TCutCMO   ...     1.0e-03
   TCutCPAO  ...     1.0e-03

--------------------------------
LOCAL RI TRANSFORMATION (IAVPAO)
--------------------------------

Orbital window:      11 to 31
Number of PAOs:     162
Basis functions:    162 (80 shells)
Aux. functions:     580 (204 shells)

Processing maps (0.0 sec)
Average map sizes:
   Aux shells -> MOs              21.0
   Aux shells -> PAOs            162.0
   MOs        -> AO shells        78.6
   PAOs       -> AO shells        79.9

Calculating integrals (0.5 sec, 15.061 MB)
Sorting integrals (0.0 sec, 15.054 MB)
Total time for the integral transformation: 0.6 sec
--------------------------------
INITIAL GUESS AND PNO GENERATION
--------------------------------

PNO truncation parameters                   .... 
    ScaleTCutPNO       =        1.000e-02
    PAOOverlapThresh   =        1.000e-08

    TCutPairs          =        1.000e-05
    TCutPNO            =        1.000e-07
    TCutPNOSingles     =        3.000e-09
    TCutMP2Pairs       =        1.000e-06
    TCutMKN            =        1.000e-03
    TCutDO             =        5.000e-03

Pair selection                          .... not used
Type of local MP2 treatment                 .... full local PMP2
Strategy for PNO selection                  .... occupation number selection
Pair density normalization                  .... MP2 norm
Spin component scaling                      .... not used

PASS-1: Formation of initial guess LMP2 amplitudes
Initial amplitudes guess done. Entering LMP2 iteration loop:
   Max. no of iterations          ...  50
   Energy convergence tolerance   ...    1.0e-07
   Residual convergence tolerance ...    5.0e-07
   Fock matrix cutoff             ...    1.0e-05 Eh
   DIIS convergence acceleration parameters:
        Max # vectors in DIIS     ... 7
        Start iteration of DIIS   ... 0
        Levelshift                ... 2.000e-01
        Damping factor 1          ... 5.000e-01
        Damping factor 2          ... 1.000e+00
   L-MP2 PNO cut-off              ...   1.0e-09
   L-MP2 PNO cut-off (core)       ...   1.0e-11
                           *** Turning on DIIS ***
LMP2-Iter=   0:  ELMP2= -0.977012353793  DE=   2.1e-02 RMAX=   5.8e-03
LMP2-Iter=   1:  ELMP2= -0.987671367448  DE=   1.1e-02 RMAX=   3.6e-03
LMP2-Iter=   2:  ELMP2= -0.989362868623  DE=   1.7e-03 RMAX=   5.5e-04
LMP2-Iter=   3:  ELMP2= -0.989497489846  DE=   1.3e-04 RMAX=   2.4e-04
LMP2-Iter=   4:  ELMP2= -0.989501461155  DE=   4.0e-06 RMAX=   2.4e-05
LMP2-Iter=   5:  ELMP2= -0.989500074811  DE=   1.4e-06 RMAX=   1.1e-05
LMP2-Iter=   6:  ELMP2= -0.989499914847  DE=   1.6e-07 RMAX=   1.0e-06
LMP2-Iter=   7:  ELMP2= -0.989499909543  DE=   5.3e-09 RMAX=   2.4e-07
LMP2-Iter=   8:  ELMP2= -0.989499913790  DE=   4.2e-09 RMAX=   2.5e-08 => CONVERGED
PASS-2: Formation of Pair natural orbitals
   .... Finished loop over pairs

 PNO Occupation Number Statistics: 
  | Av. % of trace(Dij) retained        ...  99.686416932289
  | sigma^2 in % of trace(Dij) retained ...   1.57e-01
  | Av. % of trace(Di) retained         ...  99.999855256733
  | sigma^2 in % of trace(Di) retained  ...   1.12e-09
 Distributions of % trace(Dij) recovered:
  |       >= 99.9  ...   108 ( 46.8 % of all pairs)
  |   [90.0, 99.0) ...    21 (  9.1 % of all pairs)
  |   [99.0, 99.9) ...   102 ( 44.2 % of all pairs)
 Distributions of % trace(Di) recovered :
  |       >= 99.9  ...    21 (100.0 % of all I-pairs )

Making pair pair interaction lists          ... done

                       ===========================
                        231 OF  231 PAIRS ARE KEPT
                       ===========================

Total time spent in the initial guess                 ...     6.230 sec
L-MP2 correlation energy (all non-screened pairs)     ...      -0.989499913790 Eh
L-MP2 PNO error correction                            ...      -0.000008183687 Eh
                                                          --------------------
Initial total L-MP2 energy (non-screened pairs)       ...      -0.989508097477 Eh

Initial PNO correlation energy                        ...      -0.989057970743 Eh
sum of pair energies estimated for screened out pairs ...       0.000000000000 Eh
sum of MP2 pair energies for pairs that were not kept ...       0.000000000000 Eh
sum of PNO error estimates for the kept pairs         ...      -0.000450126735 Eh
                                                          --------------------
sum of all corrections                                         -0.000450126735
Initial total correlation energy                               -0.989508097477
Thresholds for map construction and integral transformation for fine MP2 and CCSD(T) calculation:
   TCutMKN   ...     1.0e-03
   TCutDO    ...     5.0e-03
   TCutPairs ...     1.0e-05
   TCutCMO   ...     1.0e-03
   TCutCPAO  ...     1.0e-03

Time for aux screen maps:            0.003
Time for maps after fine MP2:            0.011
-----------------------------
LOCAL RI TRANSFORMATION (IJV)
-----------------------------

Orbital window:      11 to 31
Basis functions:    162 (80 shells)
Aux. functions:     580 (204 shells)

Processing maps (0.0 sec)
Average map sizes:
   Aux shells -> MOs(i)           21.0
   Aux shells -> MOs(j)           21.0
   MOs        -> AO shells        78.6

Calculating integrals (0.5 sec, 1.958 MB)
Sorting integrals (0.0 sec, 1.952 MB)
Total time for the integral transformation: 0.5 sec
--------------------------------
LOCAL RI TRANSFORMATION (VABPAO)
--------------------------------

Number of PAOs:     162
Basis functions:    162 (80 shells)
Aux. functions:     580 (204 shells)

Processing maps (0.0 sec)
Average map sizes:
   Aux shells -> PAOs            162.0
   PAOs       -> AO shells        79.9

Calculating integrals (0.7 sec, 206.845 MB)
Finished


-------------------------------------
Pair Pair Term precalculation with     
RI-(ij|mn) and (im|jn) transformation  
ON THE FLY                             
-------------------------------------

   IBatch   1 (of   1)              ... done (   27.073 sec)
Total EXT                           ...          27.073 sec

---------------------
RI-PNO TRANSFORMATION
---------------------

Total Number of PNOs                   ...  6616
Average number of PNOs per pair        ...    28
Maximal number of PNOs per pair        ...    44
   #pairs with  1 -  5 PNOs   :    0
   #pairs with  6 - 10 PNOs   :    7
   #pairs with 11 - 15 PNOs   :   15
   #pairs with 16 - 20 PNOs   :   13
   #pairs with 21 - 25 PNOs   :   59
   #pairs with 26 - 30 PNOs   :   27
   #pairs with 31 - 35 PNOs   :   56
   #pairs with 36 - 40 PNOs   :   46
   #pairs with 41 - 45 PNOs   :    8
   #pairs with 46 - 50 PNOs   :    0

Generation of (ij|ab)[P] integrals            ... on
Generation of (ia|bc)[P],(ja|bc)[P] integrals ... on
Storage of 3 and 4 external integrals         ... on
Generation of ALL (ka|bc)[P] integrals        ... on
Keep RI integrals in memory                   ... off

Ibatch:  1 (of  1)
Starting 2-4 index PNO integral generation ... done

Timings:
Total PNO integral transformation time     ...          7.225 sec
Size of the 3-external file                ...        53 MB
Size of the 4-external file                ...       239 MB
Size of the IKJL file                      ...         0 MB
Size of the all 3-external file            ...       566 MB
Size of the 1-external file                ...         3 MB

Making pair/pair overlap matrices          ... done (    1.402 sec)
Size of the pair overlap file              ... 219 MB
Redoing the guess amplitudes               ... done (    0.002 sec)

-------------------------
FINAL STARTUP INFORMATION
-------------------------

E(0)                                       ...   -631.751745503
E(L-MP2)                                   ...     -0.989508097
E(L-MP2) including corrections             ...     -0.989508097
Initial E(tot)                             ...   -632.741253600
<T|T>                                      ...      0.325379391
Number of pairs included                   ... 231
Total number of pairs                      ... 231

------------------------------------------------
                  RHF COUPLED CLUSTER ITERATIONS
------------------------------------------------

Number of PNO amplitudes to be optimized   ...       206864
Number of non-PNO amplitudes               ...      3903900
Untruncated number of regular amplitudes   ...      3903900

Iter       E(tot)           E(Corr)          Delta-E          Residual     Time
  0   -632.707949666     -0.955754037      0.033754061      0.019181957    4.88
                           *** Turning on DIIS ***
  1   -632.786081961     -1.033886331     -0.078132294      0.007670180    5.01
  2   -632.821830020     -1.069634391     -0.035748060      0.002545330    4.72
  3   -632.826538298     -1.074342668     -0.004708277      0.001048819    4.47
  4   -632.827488502     -1.075292872     -0.000950204      0.000271105    4.59
  5   -632.827646428     -1.075450799     -0.000157927      0.000106795    6.73
  6   -632.827676294     -1.075480664     -0.000029866      0.000057251    4.93
  7   -632.827679723     -1.075484093     -0.000003429      0.000026821    5.04
  8   -632.827680154     -1.075484525     -0.000000431      0.000011907    4.88
  9   -632.827680116     -1.075484486      0.000000038      0.000004320    4.88
               --- The Coupled-Cluster iterations have converged ---

----------------------
COUPLED CLUSTER ENERGY
----------------------

E(0)                                       ...   -631.751745503
E(CORR)(strong-pairs)                      ...     -1.075484486
E(CORR)(weak-pairs)                        ...     -0.000450127
E(CORR)(corrected)                         ...     -1.075934613
E(TOT)                                     ...   -632.827680116
Singles Norm <S|S>**1/2                    ...      0.049931517  
T1 diagnostic                              ...      0.007704600  

------------------
LARGEST AMPLITUDES
------------------
  31-> 32  31-> 32       0.047853
  27-> 41  27-> 41       0.041856
  22-> 41  22-> 41       0.041619
  25-> 41  25-> 41       0.040924
  20-> 41  20-> 41       0.040715
  23-> 41  23-> 41       0.040248
  29-> 41  29-> 41       0.040129
  21-> 41  21-> 41       0.039971
  26-> 41  26-> 41       0.039396
  23-> 32  23-> 32       0.037967
  29-> 32  29-> 32       0.037501
  28-> 41  28-> 41       0.037408
  27-> 32  27-> 32       0.037200
  26-> 32  26-> 32       0.037128
  20-> 32  20-> 32       0.036974
  25-> 32  25-> 32       0.036816


-------------------------------------------
DLPNO BASED TRIPLES CORRECTION
-------------------------------------------

Singles multiplier          ...  1.000000
TCutTNO                     ... 1.000e-09
TCutMP2Pairs                ... 1.000e-06
TCutDOStrong                ... 1.000e-02
TCutMKNStrong               ... 1.000e-02
TCutDOWeak                  ... 2.000e-02
TCutMKNWeak                 ... 1.000e-01

Fragment selection                          .... not used
Number of Triples that are to be computed   ...      1750

 . . . . . . . . .
10% done  
20% done  
30% done  
40% done  
50% done  
60% done  
70% done  
80% done  
90% done               (     63.842 sec)
Triples timings:
Total time for T0               ...    68.186 sec
Total time for Iterative (T)    ...     0.000 sec
Total time of overall (T)       ...    68.187 sec

Triples List generation         ...     0.000 sec
TNO generation                  ...     4.340 sec
Pair density generation         ...     0.003 sec
Look up tables                  ...     0.000 sec
Generating 3-index integrals    ...    32.270 sec
  Make 4-ind.int. from 3-ind.int...    11.732 sec
  Projecting amplitudes (D + S) ...     6.900 sec
  Downprojecting integrals      ...     0.003 sec
  Energy contr. (sum over a,b,c)...     3.626 sec
Fitting ET(->0)                 ...     0.000 sec

Everything after 3-index        ...    31.571 sec

Timing details:
 TNO integrals                  ...    42.636 sec
   Reading 3-index integrals    ...     0.042 sec
   Sorting integrals            ...     7.977 sec
       Sorting integrals 1      ...     0.002 sec
       Sorting integrals 2      ...     2.634 sec
       Sorting integrals 3      ...     0.356 sec
       Sorting integrals 4      ...     0.041 sec
       Sorting integrals 5      ...     0.106 sec
       Sorting integrals 6      ...     4.839 sec
   Calculating local VM**-1/2   ...     0.383 sec
   Orthogonal. integrals        ...     0.683 sec
   Multipl. 3-index integrals   ...    33.551 sec
   All concerning IRIab (w/TNO) ...     5.387 sec

 Calculate W0/W1                ...     9.298 sec
 W 3-ext contribution           ...     4.803 sec
 W 3-int contribution           ...     1.750 sec
 Sorting W                      ...     2.571 sec

 V exchange contribution        ...     1.367 sec

 Timings for Triples without generation
     of 3-index integrals       ...    31.566 sec
       0 weak pairs             ...    31.566 sec
       1 weak pair              ...     0.000 sec
       2 weak pairs             ...     0.000 sec
       3 weak pairs             ...     0.000 sec
  Extra time for extrapolation  ...     0.000 sec

Number of Triples   (0, 1, 2, 3 weak pairs; overall):   1750       0       0       0  (  1750)
Number of Atoms     (0, 1, 2, 3 weak pairs; overall):   18.2     0.0     0.0     0.0  (    19)
Number of PAOs      (0, 1, 2, 3 weak pairs; overall):  157.4     0.0     0.0     0.0  (   162)
Number of AuxFcns   (0, 1, 2, 3 weak pairs; overall):  272.7     0.0     0.0     0.0  (   580)
Number of TNOs      (0, 1, 2, 3 weak pairs         ):   66.8     0.0     0.0     0.0
Aver. Number of NTNO, Atoms, PAOs, AuxFcns / Triples:   1750    66.8    18.2   157.4   272.7

Triples Correction (T)                     ...     -0.033714735
Final correlation energy                   ...     -1.109649348
E(CCSD)                                    ...   -632.827680116
E(CCSD(T))                                 ...   -632.861394851


Maximum memory used throughout the entire calculation: 6495.0 MB


------------------------------------------------------------------------------- 
                                     TIMINGS                                   
------------------------------------------------------------------------------- 


Total execution time                   ...      166.630 sec

Localization of occupied MO's          ...        0.471 sec (  0.3%)
Fock Matrix Formation                  ...        1.783 sec (  1.1%)
Global overlap, Fock, MKN matrices     ...        0.135 sec (  0.1%)
Differential overlap integrals         ...        0.142 sec (  0.1%)
Organizing maps                        ...        0.033 sec (  0.0%)
RI 3-index integral generations        ...        2.382 sec (  1.4%)
RI-PNO integral transformation         ...       35.937 sec ( 21.6%)
Initial Guess                          ...        7.016 sec (  4.2%)
DIIS Solver                            ...        0.708 sec (  0.4%)
State Vector Update                    ...        0.017 sec (  0.0%)
Sigma-vector construction              ...       49.950 sec ( 30.0%)
  <D|H|D>(0-ext)                       ...        3.261 sec (  6.5% of sigma)
  <D|H|D>(2-ext Fock)                  ...        0.016 sec (  0.0% of sigma)
  <D|H|D>(2-ext)                       ...        7.228 sec ( 14.5% of sigma)
  <D|H|D>(4-ext)                       ...        3.500 sec (  7.0% of sigma)
  <D|H|D>(4-ext-corr)                  ...       19.535 sec ( 39.1% of sigma)
  CCSD doubles correction              ...        0.287 sec (  0.6% of sigma)
  <S|H|S>                              ...        0.350 sec (  0.7% of sigma)
  <S|H|D>(1-ext)                       ...        0.374 sec (  0.7% of sigma)
  <D|H|S>(1-ext)                       ...        0.015 sec (  0.0% of sigma)
  <S|H|D>(3-ext)                       ...        0.230 sec (  0.5% of sigma)
  Fock-dressing                        ...        9.802 sec ( 19.6% of sigma)
  Singles amplitudes                   ...        0.281 sec (  0.6% of sigma)
  (ik|jl)-dressing                     ...        2.417 sec (  4.8% of sigma)
  (ij|ab),(ia|jb)-dressing             ...        2.294 sec (  4.6% of sigma)
  Pair energies                        ...        0.006 sec (  0.0% of sigma)
Total Time for computing (T)           ...       68.269 sec ( 41.0% of ALL)


-------------------------   --------------------
FINAL SINGLE POINT ENERGY      -632.861394850684
-------------------------   --------------------


                            ***************************************
                            *     ORCA property calculations      *
                            ***************************************

                                    ---------------------
                                    Active property flags
                                    ---------------------
   (+) Dipole Moment


------------------------------------------------------------------------------
                       ORCA ELECTRIC PROPERTIES CALCULATION
------------------------------------------------------------------------------

Dipole Moment Calculation                       ... on
Quadrupole Moment Calculation                   ... off
Polarizability Calculation                      ... off
GBWName                                         ... cyclohexanethiol_ax.gbw
Electron density file                           ... cyclohexanethiol_ax.scfp.tmp
The origin for moment calculation is the CENTER OF MASS  = ( 0.112997, -0.018492 -0.035698)

-------------
DIPOLE MOMENT
-------------
                                X             Y             Z
Electronic contribution:      6.86724      -0.88857      -1.78981
Nuclear contribution   :     -7.23192       1.18341       2.28477
                        -----------------------------------------
Total Dipole Moment    :     -0.36468       0.29483       0.49496
                        -----------------------------------------
Magnitude (a.u.)       :      0.68184
Magnitude (Debye)      :      1.73309



--------------------
Rotational spectrum 
--------------------
 
Rotational constants in cm-1:     0.106337     0.056732     0.048433 
Rotational constants in MHz :  3187.913732  1700.782862  1451.990373 

 Dipole components along the rotational axes: 
x,y,z [a.u.] :     0.382595     0.290545     0.483846 
x,y,z [Debye]:     0.972479     0.738506     1.229839 

 

Timings for individual modules:

Sum of individual times         ...      220.910 sec (=   3.682 min)
GTO integral calculation        ...       44.682 sec (=   0.745 min)  20.2 %
SCF iterations                  ...        9.283 sec (=   0.155 min)   4.2 %
MDCI module                     ...      166.944 sec (=   2.782 min)  75.6 %
                             ****ORCA TERMINATED NORMALLY****
TOTAL RUN TIME: 0 days 0 hours 3 minutes 41 seconds 832 msec
cyclohexanethiol_ax.gbw -> /home1/pantazis/klk/VDZ/Cyclohexanes/cyclohexanethiol_ax.gbw
cyclohexanethiol_ax.ges -> /home1/pantazis/klk/VDZ/Cyclohexanes/cyclohexanethiol_ax.ges
cyclohexanethiol_ax.job -> /home1/pantazis/klk/VDZ/Cyclohexanes/cyclohexanethiol_ax.job
cyclohexanethiol_ax.loc -> /home1/pantazis/klk/VDZ/Cyclohexanes/cyclohexanethiol_ax.loc
cyclohexanethiol_ax.nodes -> /home1/pantazis/klk/VDZ/Cyclohexanes/cyclohexanethiol_ax.nodes
cyclohexanethiol_ax.prop -> /home1/pantazis/klk/VDZ/Cyclohexanes/cyclohexanethiol_ax.prop
cyclohexanethiol_ax_property.txt -> /home1/pantazis/klk/VDZ/Cyclohexanes/cyclohexanethiol_ax_property.txt
cyclohexanethiol_ax.xyz -> /home1/pantazis/klk/VDZ/Cyclohexanes/cyclohexanethiol_ax.xyz
cp: cannot stat cyclohexanethiol_ax.asa.inp: No such file or directory
