! Job execution by suborca V 6.07 on ZEUS !
Job started from zeus1, running /scratch/pantazis/diMe_sulfone_ts__3RQbGI/orca/orca copied from /opt/orca on zeussn126 in /scratch/pantazis/diMe_sulfone_ts__3RQbGI
Job execution start: Sat Jun 29 10:49:14 CEST 2019
Shared library path: /scratch/pantazis/diMe_sulfone_ts__3RQbGI/orca:/opt/openmpi_1.10.2/lib:/opt/intel/mkl/lib/intel64:/opt/intel/lib/intel64:
PBS Job ID is: 158730.icqc
izeussn126
izeussn126
izeussn126
izeussn126

                                 *****************
                                 * O   R   C   A *
                                 *****************

           --- An Ab Initio, DFT and Semiempirical electronic structure package ---

                  #######################################################
                  #                        -***-                        #
                  #          Department of theory and spectroscopy      #
                  #               Directorship: Frank Neese             #
                  #        Max Planck Institute fuer Kohlenforschung    #
                  #                Kaiser Wilhelm Platz 1               #
                  #                 D-45470 Muelheim/Ruhr               #
                  #                      Germany                        #
                  #                                                     #
                  #                  All rights reserved                #
                  #                        -***-                        #
                  #######################################################


                         Program Version 4.1.x  -  STABLE  -
                                (SVN: $Rev: 14094$)
                ($Date: 2019-06-14 15:01:15 +0200 (Fri, 14 Jun 2019) $)

                         (BUILD: $Sun Jun 23 06:18:31 CEST 2019$)


 With contributions from (in alphabetic order):
   Daniel Aravena         : Magnetic Properties
   Michael Atanasov       : Ab Initio Ligand Field Theory
   Alexander A. Auer      : GIAO ZORA
   Ute Becker             : Parallelization
   Giovanni Bistoni       : ED, Open-shell LED
   Martin Brehm           : Molecular dynamics
   Dmytro Bykov           : SCF Hessian
   Vijay G. Chilkuri      : MRCI spin determinant printing
   Dipayan Datta          : RHF DLPNO-CCSD density
   Achintya Kumar Dutta   : EOM-CC, STEOM-CC
   Dmitry Ganyushin       : Spin-Orbit,Spin-Spin,Magnetic field MRCI
   Miquel Garcia          : C-PCM Hessian
   Yang Guo               : DLPNO-NEVPT2, CIM, IAO-localization
   Andreas Hansen         : Spin unrestricted coupled pair/coupled cluster methods
   Benjamin Helmich-Paris : CASSCF linear response (MC-RPA)
   Lee Huntington         : MR-EOM, pCC
   Robert Izsak           : Overlap fitted RIJCOSX, COSX-SCS-MP3, EOM
   Christian Kollmar      : KDIIS, OOCD, Brueckner-CCSD(T), CCSD density
   Simone Kossmann        : Meta GGA functionals, TD-DFT gradient, OOMP2, MP2 Hessian
   Martin Krupicka        : AUTO-CI
   Lucas Lang             : DCDCAS
   Dagmar Lenk            : GEPOL surface, SMD
   Dimitrios Liakos       : Extrapolation schemes; parallel MDCI
   Dimitrios Manganas     : ROCIS; embedding schemes
   Dimitrios Pantazis     : SARC Basis sets
   Taras Petrenko         : DFT Hessian,TD-DFT gradient, ASA, ECA, R-Raman, ABS, FL, XAS/XES, NRVS
   Peter Pinski           : DLPNO-MP2, DLPNO-MP2 Gradient
   Christoph Reimann      : Effective Core Potentials
   Marius Retegan         : Local ZFS, SOC
   Christoph Riplinger    : Optimizer, TS searches, QM/MM, DLPNO-CCSD(T), (RO)-DLPNO pert. Triples
   Tobias Risthaus        : Range-separated hybrids, TD-DFT gradient, RPA, STAB
   Michael Roemelt        : Restricted open shell CIS
   Masaaki Saitow         : Open-shell DLPNO
   Barbara Sandhoefer     : DKH picture change effects
   Avijit Sen             : IP-ROCIS
   Kantharuban Sivalingam : CASSCF convergence, NEVPT2, FIC-MRCI
   Bernardo de Souza      : ESD, SOC TD-DFT
   Georgi Stoychev        : AutoAux, RI-MP2 NMR
   Willem Van den Heuvel  : Paramagnetic NMR
   Boris Wezisla          : Elementary symmetry handling
   Frank Wennmohs         : Technical directorship


 We gratefully acknowledge several colleagues who have allowed us to
 interface, adapt or use parts of their codes:
   Stefan Grimme, W. Hujo, H. Kruse,             : VdW corrections, initial TS optimization,
                  C. Bannwarth                     DFT functionals, gCP, sTDA/sTD-DF
   Ed Valeev                                     : LibInt (2-el integral package), F12 methods
   Garnet Chan, S. Sharma, J. Yang, R. Olivares  : DMRG
   Ulf Ekstrom                                   : XCFun DFT Library
   Mihaly Kallay                                 : mrcc  (arbitrary order and MRCC methods)
   Andreas Klamt, Michael Diedenhofen            : otool_cosmo (COSMO solvation model)
   Jiri Pittner, Ondrej Demel                    : Mk-CCSD
   Frank Weinhold                                : gennbo (NPA and NBO analysis)
   Christopher J. Cramer and Donald G. Truhlar   : smd solvation model
   Lars Goerigk                                  : TD-DFT with DH, B97 family of functionals
   V. Asgeirsson, H. Jonsson                     : NEB implementation
   FAccTs GmbH                                   : IRC, NEB, NEB-TS, Multilevel


 Your calculation uses the libint2 library for the computation of 2-el integrals
 For citations please refer to: http://libint.valeyev.net

 This ORCA versions uses:
   CBLAS   interface :  Fast vector & matrix operations
   LAPACKE interface :  Fast linear algebra routines
   SCALAPACK package :  Parallel linear algebra routines




***************************************
The coordinates will be read from file: diMe_sulfone_ts.xyz
***************************************


----- Orbital basis set information -----
Your calculation utilizes the basis: cc-pVDZ 
       H, B-Ne : Obtained from the ccRepo (grant-hill.group.shef.ac.uk/ccrepo) Feb. 2017
                 T. H. Dunning, Jr., J. Chem. Phys. 90, 1007 (1989)
            He : Obtained from the ccRepo (grant-hill.group.shef.ac.uk/ccrepo) Feb. 2017
                 D. E. Woon, T. H. Dunning, Jr., J. Chem. Phys. 100, 2975 (1994)
  Li-Be, Na-Mg : Obtained from the ccRepo (grant-hill.group.shef.ac.uk/ccrepo) Feb. 2017
                 B. P. Prascher, D. E. Woon, K. A. Peterson, T. H. Dunning, Jr., A. K. Wilson, Theor. Chem. Acc. 128, 69 (2011)
         Al-Ar : Obtained from the ccRepo (grant-hill.group.shef.ac.uk/ccrepo) Feb. 2017
                 D. E. Woon, T. H. Dunning, Jr., J. Chem. Phys. 98, 1358 (1993)
            Ca : Obtained from the Peterson Research Group Website (tyr0.chem.wsu.edu/~kipeters) Feb. 2017
                 J. Koput, K. A. Peterson, J. Phys. Chem. 106, 9595 (2002)
         Sc-Zn : Obtained from the ccRepo (grant-hill.group.shef.ac.uk/ccrepo) Feb. 2017
                 N. B. Balabanov, K. A. Peterson, J. Chem. Phys. 123, 064107 (2005)
                 N. B. Balabanov, K. A. Peterson, J. Chem. Phys. 125, 074110 (2006)
         Ga-Kr : Obtained from the ccRepo (grant-hill.group.shef.ac.uk/ccrepo) Feb. 2017
                 A. K. Wilson, D. E. Woon, K. A. Peterson, T. H. Dunning, Jr., J. Chem. Phys. 110, 7667 (1999)

----- AuxC basis set information -----
Your calculation utilizes the auxiliary basis: cc-pVDZ/C 
  H-He, B, Ne, Al-Ar, Ga-Br : Obtained from the EMSL Basis Set Exchange (bse.pnl.gov) Feb. 2017
                              F. Weigend, A. Kohn, C. Hattig, J. Chem. Phys. 116, 3175 (2002)
               Li-Be, Na-Mg : Obtained from the EMSL Basis Set Exchange (bse.pnl.gov) Feb. 2017
                              C. Haettig, Phys. Chem. Chem. Phys. 7, 59 (2005)
                        C-F : Obtained from the EMSL Basis Set Exchange (bse.pnl.gov) Feb. 2017
                              C. Haettig, Phys. Chem. Chem. Phys. 7, 59 (2005)
                              F. Weigend, A. Kohn, C. Hattig, J. Chem. Phys. 116, 3175 (2002)
                         Kr : Obtained from the TURBOMOLE 7.0 basis set library
                              F. Weigend, A. Kohn, C. Hattig, J. Chem. Phys. 116, 3175 (2002)
                              S function revised in Sep. 2009

----- AuxJK basis set information -----
Your calculation utilizes the auxiliary basis: cc-pVTZ/JK 
  H, B-F, Al-Cl, Ga-Br : Obtained from the TURBOMOLE 7.0 basis set library

================================================================================
                                        WARNINGS
                       Please study these warnings very carefully!
================================================================================


WARNING: MDCI localization with Augmented Hessian Foster-Boys
  ===> : Switching off randomization!

WARNING: Post HF methods need fully converged wavefunctions
  ===> : Setting SCFConvForced true
         You can overwrite this default with %scf ConvForced false 


INFO   : the flag for use of LIBINT has been found!

================================================================================
                                       INPUT FILE
================================================================================
NAME = diMe_sulfone_ts.inp
|  1> ! RHF DLPNO-CCSD(T) cc-pVDZ RIJK cc-pVTZ/JK cc-pVDZ/C
|  2> ! KDIIS SOSCF TightSCF TightPNO
|  3> 
|  4> %pal nprocs 4 end
|  5> 
|  6> %maxcore 8000
|  7> 
|  8> %scf maxiter 300
|  9>      shift shift 0.2 erroff 0.1 end
| 10> end
| 11> 
| 12> * xyzfile 0 1 diMe_sulfone_ts.xyz 
| 13> 
| 14> 
| 15>                          ****END OF INPUT****
================================================================================

                       ****************************
                       * Single Point Calculation *
                       ****************************

---------------------------------
CARTESIAN COORDINATES (ANGSTROEM)
---------------------------------
  C     -1.352900    0.974500   -0.004700
  S     -0.008900   -0.190700   -0.000200
  C      1.453400    0.850200    0.008900
  O     -0.058200   -0.912000    1.260200
  O     -0.041200   -0.908300   -1.263200
  H     -1.305500    1.574100   -0.908900
  H     -1.299500    1.586100    0.891200
  H      2.063000    0.549000   -0.836900
  H      1.164900    1.892300   -0.097300
  H      1.968200    0.692000    0.950400
  H     -2.256900    0.371200    0.003000

----------------------------
CARTESIAN COORDINATES (A.U.)
----------------------------
  NO LB      ZA    FRAG     MASS         X           Y           Z
   0 C     6.0000    0    12.011   -2.556610    1.841538   -0.008882
   1 S    16.0000    0    32.060   -0.016819   -0.360371   -0.000378
   2 C     6.0000    0    12.011    2.746528    1.606645    0.016819
   3 O     8.0000    0    15.999   -0.109982   -1.723430    2.381433
   4 O     8.0000    0    15.999   -0.077857   -1.716438   -2.387102
   5 H     1.0000    0     1.008   -2.467037    2.974618   -1.717572
   6 H     1.0000    0     1.008   -2.455699    2.997295    1.684124
   7 H     1.0000    0     1.008    3.898505    1.037460   -1.581512
   8 H     1.0000    0     1.008    2.201342    3.575929   -0.183870
   9 H     1.0000    0     1.008    3.719359    1.307690    1.795996
  10 H     1.0000    0     1.008   -4.264923    0.701466    0.005669

--------------------------------
INTERNAL COORDINATES (ANGSTROEM)
--------------------------------
 C      0   0   0     0.000000000000     0.00000000     0.00000000
 S      1   0   0     1.778776908440     0.00000000     0.00000000
 C      2   1   0     1.794958748830   103.63224567     0.00000000
 O      2   1   3     1.453035560473   107.56182256   114.36417559
 O      2   1   3     1.452983843682   107.72953251   245.71594556
 H      1   2   3     1.085976316501   109.31758099    62.07595387
 H      1   2   3     1.086067645223   109.24733066   299.26288410
 H      3   2   1     1.085224050600   107.02097485   234.82886558
 H      3   2   1     1.086500391164   109.83957671   354.00872187
 H      3   2   1     1.084651340293   107.84728967   114.53407160
 H      1   2   3     1.086851498596   105.35652162   180.72451007

---------------------------
INTERNAL COORDINATES (A.U.)
---------------------------
 C      0   0   0     0.000000000000     0.00000000     0.00000000
 S      1   0   0     3.361401210295     0.00000000     0.00000000
 C      2   1   0     3.391980456974   103.63224567     0.00000000
 O      2   1   3     2.745839272143   107.56182256   114.36417559
 O      2   1   3     2.745741541571   107.72953251   245.71594556
 H      1   2   3     2.052197826111   109.31758099    62.07595387
 H      1   2   3     2.052370412384   109.24733066   299.26288410
 H      3   2   1     2.050776249578   107.02097485   234.82886558
 H      3   2   1     2.053188183699   109.83957671   354.00872187
 H      3   2   1     2.049693983945   107.84728967   114.53407160
 H      1   2   3     2.053851680588   105.35652162   180.72451007

---------------------
BASIS SET INFORMATION
---------------------
There are 4 groups of distinct atoms

 Group   1 Type C   : 17s4p1d contracted to 3s2p1d pattern {881/31/1}
 Group   2 Type S   : 34s15p1d contracted to 4s3p1d pattern {1111111/771/1}
 Group   3 Type O   : 17s4p1d contracted to 3s2p1d pattern {881/31/1}
 Group   4 Type H   : 4s1p contracted to 2s1p pattern {31/1}

Atom   0C    basis set group =>   1
Atom   1S    basis set group =>   2
Atom   2C    basis set group =>   1
Atom   3O    basis set group =>   3
Atom   4O    basis set group =>   3
Atom   5H    basis set group =>   4
Atom   6H    basis set group =>   4
Atom   7H    basis set group =>   4
Atom   8H    basis set group =>   4
Atom   9H    basis set group =>   4
Atom  10H    basis set group =>   4
-------------------------------
AUXILIARY BASIS SET INFORMATION
-------------------------------
There are 4 groups of distinct atoms

 Group   1 Type C   : 7s5p4d2f contracted to 7s5p4d2f pattern {1111111/11111/1111/11}
 Group   2 Type S   : 9s7p5d3f contracted to 9s7p5d3f pattern {111111111/1111111/11111/111}
 Group   3 Type O   : 7s5p4d2f contracted to 7s5p4d2f pattern {1111111/11111/1111/11}
 Group   4 Type H   : 3s2p1d contracted to 3s2p1d pattern {111/11/1}

Atom   0C    basis set group =>   1
Atom   1S    basis set group =>   2
Atom   2C    basis set group =>   1
Atom   3O    basis set group =>   3
Atom   4O    basis set group =>   3
Atom   5H    basis set group =>   4
Atom   6H    basis set group =>   4
Atom   7H    basis set group =>   4
Atom   8H    basis set group =>   4
Atom   9H    basis set group =>   4
Atom  10H    basis set group =>   4
-------------------------------
AUXILIARY BASIS SET INFORMATION
-------------------------------
There are 4 groups of distinct atoms

 Group   1 Type C   : 10s7p5d2f1g contracted to 10s7p5d2f1g pattern {1111111111/1111111/11111/11/1}
 Group   2 Type S   : 13s11p9d3f1g contracted to 13s11p9d3f1g pattern {1111111111111/11111111111/111111111/111/1}
 Group   3 Type O   : 10s7p5d2f1g contracted to 10s7p5d2f1g pattern {1111111111/1111111/11111/11/1}
 Group   4 Type H   : 4s3p2d1f contracted to 4s3p2d1f pattern {1111/111/11/1}

Atom   0C    basis set group =>   1
Atom   1S    basis set group =>   2
Atom   2C    basis set group =>   1
Atom   3O    basis set group =>   3
Atom   4O    basis set group =>   3
Atom   5H    basis set group =>   4
Atom   6H    basis set group =>   4
Atom   7H    basis set group =>   4
Atom   8H    basis set group =>   4
Atom   9H    basis set group =>   4
Atom  10H    basis set group =>   4

Checking for AutoStart:
The File: diMe_sulfone_ts.gbw exists
Trying to determine its content:
     ... Fine, the file contains calculation information
     ... Fine, the calculation information was read
     ... Fine, the file contains a basis set
     ... Fine, the basis set was read
     ... Fine, the file contains a geometry
     ... Fine, the geometry was read
     ... Fine, the file contains a set of orbitals
     ... Fine, the orbitals can be read
     => possible old guess file was deleted
     => GBW file was renamed to GES file
     => GES file is set as startup file
     => Guess is set to MORead
     ... now leaving AutoStart



           ************************************************************
           *        Program running with 4 parallel MPI-processes     *
           *              working on a common directory               *
           ************************************************************
------------------------------------------------------------------------------
                           ORCA GTO INTEGRAL CALCULATION
                           -- RI-GTO INTEGRALS CHOSEN --
------------------------------------------------------------------------------

                         BASIS SET STATISTICS AND STARTUP INFO

Gaussian basis set:
 # of primitive gaussian shells          ...  168
 # of primitive gaussian functions       ...  262
 # of contracted shells                  ...   50
 # of contracted basis functions         ...  104
 Highest angular momentum                ...    2
 Maximum contraction depth               ...   11
Auxiliary gaussian basis set:
 # of primitive gaussian shells          ...  197
 # of primitive gaussian functions       ...  617
 # of contracted shells                  ...  197
 # of contracted aux-basis functions     ...  617
 Highest angular momentum                ...    4
 Maximum contraction depth               ...    1
Ratio of auxiliary to basis functions    ...  5.93
Integral package used                  ... LIBINT
 One Electron integrals                  ... done
 Ordering auxiliary basis shells         ... done
 Integral threshhold             Thresh  ...  2.500e-11
 Primitive cut-off               TCut    ...  2.500e-12
 Pre-screening matrix                    ... done
 Shell pair data                         ... 
 Ordering of the shell pairs             ... done (   0.000 sec) 1275 of 1275 pairs
 Determination of significant pairs      ... done (   0.000 sec)
 Creation of shell pair data             ... done (   0.001 sec)
 Storage of shell pair data              ... done (   0.005 sec)
 Shell pair data done in (   0.006 sec)
 Computing two index integrals           ... done
 Cholesky decomposition of the V-matrix  ... done


Timings:
 Total evaluation time                   ...  42.623 sec (  0.710 min)
 One electron matrix time                ...  42.250 sec (  0.704 min) = 99.1%
 Schwartz matrix evaluation time         ...   0.205 sec (  0.003 min) =  0.5%
 Two index repulsion integral time       ...   0.058 sec (  0.001 min) =  0.1%
 Cholesky decomposition of V             ...   0.078 sec (  0.001 min) =  0.2%
 Three index repulsion integral time     ...   0.000 sec (  0.000 min) =  0.0%



           ************************************************************
           *        Program running with 4 parallel MPI-processes     *
           *              working on a common directory               *
           ************************************************************
-------------------------------------------------------------------------------
                                 ORCA SCF
-------------------------------------------------------------------------------

------------
SCF SETTINGS
------------
Hamiltonian:
 Ab initio Hamiltonian  Method          .... Hartree-Fock(GTOs)
 RI-approximation to the Coulomb term is turned on
   Number of auxiliary basis functions  .... 617
   RI-JK (J+K treated both via RI)      .... on


General Settings:
 Integral files         IntName         .... diMe_sulfone_ts
 Hartree-Fock type      HFTyp           .... RHF
 Total Charge           Charge          ....    0
 Multiplicity           Mult            ....    1
 Number of Electrons    NEL             ....   50
 Basis Dimension        Dim             ....  104
 Nuclear Repulsion      ENuc            ....    273.8814028025 Eh

Convergence Acceleration:
 DIIS                   CNVDIIS         .... off
 Newton-Raphson         CNVNR           .... off
 SOSCF                  CNVSOSCF        .... on
   Start iteration      SOSCFMaxIt      ....   150
   Startup grad/error   SOSCFStart      ....  0.003300
 Level Shifting         CNVShift        .... on
   Level shift para.    LevelShift      ....    0.2000
   Turn off err/grad.   ShiftErr        ....    0.1000
 Zerner damping         CNVZerner       .... off
 Static damping         CNVDamp         .... off
 Fernandez-Rico         CNVRico         .... off

SCF Procedure:
 Maximum # iterations   MaxIter         ....   300
 SCF integral mode      SCFMode         .... Direct
   Integral package                     .... LIBINT
 Reset frequency        DirectResetFreq ....    20
 Integral Threshold     Thresh          ....  2.500e-11 Eh
 Primitive CutOff       TCut            ....  2.500e-12 Eh

Convergence Tolerance:
 Convergence Check Mode ConvCheckMode   .... Total+1el-Energy
 Convergence forced     ConvForced      .... 1
 Energy Change          TolE            ....  1.000e-08 Eh
 1-El. energy change                    ....  1.000e-05 Eh
 Orbital Gradient       TolG            ....  1.000e-05
 Orbital Rotation angle TolX            ....  1.000e-05


Diagonalization of the overlap matrix:
Smallest eigenvalue                        ... 5.031e-03
Time for diagonalization                   ...    0.004 sec
Threshold for overlap eigenvalues          ... 1.000e-08
Number of eigenvalues below threshold      ... 0
Time for construction of square roots      ...    0.004 sec
Total time needed                          ...    0.008 sec

---------------------
INITIAL GUESS: MOREAD
---------------------
Guess MOs are being read from file: diMe_sulfone_ts.ges
Input Geometry matches current geometry (good)
Atom 0: N(Shells)= 6 and 10 - projection required
Input basis set needs projection
NBasis(read)= 238
NBasis(calc)= 104
Basis set overlap was calculated
Using GuessMode=FMatrix for the initial guess
C*T matrix was formed
Effective Fockian was calculated
Effective Fockian was diagonalized
Initial density was built
                      ------------------
                      INITIAL GUESS DONE (   0.0 sec)
                      ------------------
--------------
SCF ITERATIONS
--------------
ITER       Energy         Delta-E        Max-DP      RMS-DP      [F,P]   Gradient Norm
                             ****Turning on KDIIS(Cayley)****
  0   -626.3961939090   0.000000000000 0.00280940  0.00010277  0.0091887   0.008145526
  1   -626.3965342101  -0.000340301098 0.00573579  0.00019596  0.0084664   0.007374293
  2   -626.3970972863  -0.000563076167 0.01006460  0.00034487  0.0068969   0.006047969
  3   -626.3978467794  -0.000749493137 0.01545445  0.00053026  0.0041178   0.003632460
                      *** Initiating the SOSCF procedure ***
                           *** Shutting down KDIIS ***
                      *** Re-Reading the Fockian *** 
                      *** Removing any level shift *** 
ITER      Energy       Delta-E        Grad      Rot      Max-DP    RMS-DP
  4   -626.39828335  -0.0004365734  0.000128  0.000128  0.000239  0.000013
  5   -626.39828375  -0.0000003995  0.000031  0.000040  0.000041  0.000002
  6   -626.39828377  -0.0000000211  0.000018  0.000042  0.000052  0.000002
  7   -626.39828378  -0.0000000060  0.000004  0.000003  0.000007  0.000000
                  ***Gradient check signals convergence***
              ***Rediagonalizing the Fockian in SOSCF/NRSCF***

               *****************************************************
               *                     SUCCESS                       *
               *           SCF CONVERGED AFTER   8 CYCLES          *
               *****************************************************


----------------
TOTAL SCF ENERGY
----------------

Total Energy       :         -626.39828378 Eh          -17045.16386 eV

Components:
Nuclear Repulsion  :          273.88140280 Eh            7452.69186 eV
Electronic Energy  :         -900.27968658 Eh          -24497.85572 eV
One Electron Energy:        -1405.60952263 Eh          -38248.57963 eV
Two Electron Energy:          505.32983605 Eh           13750.72391 eV

Virial components:
Potential Energy   :        -1252.69363878 Eh          -34087.52689 eV
Kinetic Energy     :          626.29535500 Eh           17042.36303 eV
Virial Ratio       :            2.00016435


---------------
SCF CONVERGENCE
---------------

  Last Energy change         ...   -3.7346e-10  Tolerance :   1.0000e-08
  Last MAX-Density change    ...    2.9706e-06  Tolerance :   1.0000e-07
  Last RMS-Density change    ...    1.3976e-07  Tolerance :   5.0000e-09
  Last Orbital Gradient      ...    1.8023e-06  Tolerance :   1.0000e-05
  Last Orbital Rotation      ...    1.7453e-06  Tolerance :   1.0000e-05

             **** THE GBW FILE WAS UPDATED (diMe_sulfone_ts.gbw) ****
             **** DENSITY FILE WAS UPDATED (diMe_sulfone_ts.scfp.tmp) ****
             **** ENERGY FILE WAS UPDATED (diMe_sulfone_ts.en.tmp) ****
----------------
ORBITAL ENERGIES
----------------

  NO   OCC          E(Eh)            E(eV) 
   0   2.0000     -92.187185     -2508.5408 
   1   2.0000     -20.534328      -558.7675 
   2   2.0000     -20.533966      -558.7576 
   3   2.0000     -11.281393      -306.9823 
   4   2.0000     -11.280100      -306.9471 
   5   2.0000      -9.164194      -249.3704 
   6   2.0000      -6.849178      -186.3756 
   7   2.0000      -6.847626      -186.3334 
   8   2.0000      -6.847383      -186.3268 
   9   2.0000      -1.448943       -39.4277 
  10   2.0000      -1.332355       -36.2552 
  11   2.0000      -1.073251       -29.2046 
  12   2.0000      -1.009902       -27.4808 
  13   2.0000      -0.816744       -22.2247 
  14   2.0000      -0.685708       -18.6591 
  15   2.0000      -0.670969       -18.2580 
  16   2.0000      -0.660326       -17.9684 
  17   2.0000      -0.619078       -16.8460 
  18   2.0000      -0.618130       -16.8202 
  19   2.0000      -0.588826       -16.0228 
  20   2.0000      -0.577304       -15.7092 
  21   2.0000      -0.482246       -13.1226 
  22   2.0000      -0.481131       -13.0922 
  23   2.0000      -0.453830       -12.3493 
  24   2.0000      -0.430824       -11.7233 
  25   0.0000       0.155939         4.2433 
  26   0.0000       0.200459         5.4548 
  27   0.0000       0.211748         5.7620 
  28   0.0000       0.222691         6.0597 
  29   0.0000       0.225009         6.1228 
  30   0.0000       0.233048         6.3415 
  31   0.0000       0.247535         6.7358 
  32   0.0000       0.301778         8.2118 
  33   0.0000       0.305179         8.3043 
  34   0.0000       0.322754         8.7826 
  35   0.0000       0.539387        14.6775 
  36   0.0000       0.550794        14.9879 
  37   0.0000       0.601403        16.3650 
  38   0.0000       0.615970        16.7614 
  39   0.0000       0.654260        17.8033 
  40   0.0000       0.685081        18.6420 
  41   0.0000       0.705671        19.2023 
  42   0.0000       0.728021        19.8104 
  43   0.0000       0.742260        20.1979 
  44   0.0000       0.796760        21.6809 
  45   0.0000       0.821937        22.3661 
  46   0.0000       0.830205        22.5910 
  47   0.0000       0.846200        23.0263 
  48   0.0000       0.848683        23.0938 
  49   0.0000       0.874473        23.7956 
  50   0.0000       0.880979        23.9727 
  51   0.0000       0.915272        24.9058 
  52   0.0000       0.997333        27.1388 
  53   0.0000       1.029824        28.0229 
  54   0.0000       1.047033        28.4912 
  55   0.0000       1.144383        31.1402 
  56   0.0000       1.214049        33.0359 
  57   0.0000       1.256735        34.1975 
  58   0.0000       1.284473        34.9523 
  59   0.0000       1.342038        36.5187 
  60   0.0000       1.348425        36.6925 
  61   0.0000       1.358729        36.9729 
  62   0.0000       1.394759        37.9533 
  63   0.0000       1.417673        38.5769 
  64   0.0000       1.462809        39.8051 
  65   0.0000       1.539347        41.8878 
  66   0.0000       1.585484        43.1432 
  67   0.0000       1.612677        43.8832 
  68   0.0000       1.623484        44.1772 
  69   0.0000       1.634125        44.4668 
  70   0.0000       1.830973        49.8233 
  71   0.0000       1.848963        50.3128 
  72   0.0000       1.858703        50.5779 
  73   0.0000       1.862312        50.6761 
  74   0.0000       1.881956        51.2106 
  75   0.0000       1.925895        52.4063 
  76   0.0000       1.975663        53.7605 
  77   0.0000       1.987063        54.0707 
  78   0.0000       1.999132        54.3991 
  79   0.0000       2.062911        56.1347 
  80   0.0000       2.141519        58.2737 
  81   0.0000       2.168360        59.0041 
  82   0.0000       2.279309        62.0231 
  83   0.0000       2.342712        63.7484 
  84   0.0000       2.401483        65.3477 
  85   0.0000       2.411626        65.6237 
  86   0.0000       2.417591        65.7860 
  87   0.0000       2.454394        66.7875 
  88   0.0000       2.726289        74.1861 
  89   0.0000       2.735148        74.4272 
  90   0.0000       2.739332        74.5410 
  91   0.0000       2.756145        74.9985 
  92   0.0000       2.770819        75.3978 
  93   0.0000       2.783580        75.7451 
  94   0.0000       2.970065        80.8196 
  95   0.0000       2.979521        81.0769 
  96   0.0000       3.003691        81.7346 
  97   0.0000       3.016188        82.0747 
  98   0.0000       3.090170        84.0878 
  99   0.0000       3.161769        86.0361 
 100   0.0000       3.300522        89.8118 
 101   0.0000       3.374440        91.8232 
 102   0.0000       3.685786       100.2953 
 103   0.0000       3.773605       102.6850 

                    ********************************
                    * MULLIKEN POPULATION ANALYSIS *
                    ********************************

-----------------------
MULLIKEN ATOMIC CHARGES
-----------------------
   0 C :   -0.174183
   1 S :    1.058905
   2 C :   -0.190583
   3 O :   -0.612591
   4 O :   -0.612243
   5 H :    0.079317
   6 H :    0.078958
   7 H :    0.100413
   8 H :    0.071140
   9 H :    0.099275
  10 H :    0.101592
Sum of atomic charges:    0.0000000

--------------------------------
MULLIKEN REDUCED ORBITAL CHARGES
--------------------------------
  0 C s       :     3.109811  s :     3.109811
      pz      :     1.036541  p :     3.017118
      px      :     0.990574
      py      :     0.990003
      dz2     :     0.012783  d :     0.047254
      dxz     :     0.001498
      dyz     :     0.011655
      dx2y2   :     0.002677
      dxy     :     0.018641
  1 S s       :     5.286996  s :     5.286996
      pz      :     2.840252  p :     8.845941
      px      :     3.031435
      py      :     2.974254
      dz2     :     0.250446  d :     0.808158
      dxz     :     0.144315
      dyz     :     0.177169
      dx2y2   :     0.049245
      dxy     :     0.186983
  2 C s       :     3.116709  s :     3.116709
      pz      :     1.080596  p :     3.029348
      px      :     0.952544
      py      :     0.996208
      dz2     :     0.012807  d :     0.044526
      dxz     :     0.007819
      dyz     :     0.003296
      dx2y2   :     0.005942
      dxy     :     0.014661
  3 O s       :     3.844509  s :     3.844509
      pz      :     1.374567  p :     4.748115
      px      :     1.752751
      py      :     1.620797
      dz2     :     0.006696  d :     0.019966
      dxz     :     0.003862
      dyz     :     0.006547
      dx2y2   :     0.001589
      dxy     :     0.001273
  4 O s       :     3.844788  s :     3.844788
      pz      :     1.373593  p :     4.747483
      px      :     1.753439
      py      :     1.620451
      dz2     :     0.006737  d :     0.019972
      dxz     :     0.003863
      dyz     :     0.006541
      dx2y2   :     0.001576
      dxy     :     0.001254
  5 H s       :     0.887984  s :     0.887984
      pz      :     0.017595  p :     0.032699
      px      :     0.004623
      py      :     0.010480
  6 H s       :     0.888305  s :     0.888305
      pz      :     0.017365  p :     0.032737
      px      :     0.004646
      py      :     0.010726
  7 H s       :     0.866464  s :     0.866464
      pz      :     0.016403  p :     0.033123
      px      :     0.010129
      py      :     0.006591
  8 H s       :     0.895514  s :     0.895514
      pz      :     0.005989  p :     0.033345
      px      :     0.005738
      py      :     0.021618
  9 H s       :     0.867692  s :     0.867692
      pz      :     0.019029  p :     0.033034
      px      :     0.008519
      py      :     0.005486
 10 H s       :     0.865212  s :     0.865212
      pz      :     0.005392  p :     0.033196
      px      :     0.017606
      py      :     0.010198


                     *******************************
                     * LOEWDIN POPULATION ANALYSIS *
                     *******************************

----------------------
LOEWDIN ATOMIC CHARGES
----------------------
   0 C :   -0.145540
   1 S :    1.089438
   2 C :   -0.144131
   3 O :   -0.515538
   4 O :   -0.515193
   5 H :    0.034138
   6 H :    0.034339
   7 H :    0.042989
   8 H :    0.032436
   9 H :    0.041669
  10 H :    0.045392

-------------------------------
LOEWDIN REDUCED ORBITAL CHARGES
-------------------------------
  0 C s       :     2.855804  s :     2.855804
      pz      :     1.078854  p :     3.156512
      px      :     1.034052
      py      :     1.043607
      dz2     :     0.034003  d :     0.133224
      dxz     :     0.003492
      dyz     :     0.037903
      dx2y2   :     0.009963
      dxy     :     0.047863
  1 S s       :     4.994778  s :     4.994778
      pz      :     2.934298  p :     8.885825
      px      :     2.993680
      py      :     2.957847
      dz2     :     0.324867  d :     1.029959
      dxz     :     0.171471
      dyz     :     0.232897
      dx2y2   :     0.059671
      dxy     :     0.241053
  2 C s       :     2.857831  s :     2.857831
      pz      :     1.097306  p :     3.159283
      px      :     1.014307
      py      :     1.047670
      dz2     :     0.032959  d :     0.127017
      dxz     :     0.028290
      dyz     :     0.008585
      dx2y2   :     0.021124
      dxy     :     0.036059
  3 O s       :     3.637073  s :     3.637073
      pz      :     1.465689  p :     4.849049
      px      :     1.739023
      py      :     1.644337
      dz2     :     0.010306  d :     0.029415
      dxz     :     0.004081
      dyz     :     0.011583
      dx2y2   :     0.001983
      dxy     :     0.001463
  4 O s       :     3.637079  s :     3.637079
      pz      :     1.465124  p :     4.848693
      px      :     1.739944
      py      :     1.643625
      dz2     :     0.010392  d :     0.029421
      dxz     :     0.004072
      dyz     :     0.011552
      dx2y2   :     0.001966
      dxy     :     0.001439
  5 H s       :     0.879517  s :     0.879517
      pz      :     0.041728  p :     0.086344
      px      :     0.016520
      py      :     0.028096
  6 H s       :     0.879322  s :     0.879322
      pz      :     0.041220  p :     0.086339
      px      :     0.016544
      py      :     0.028575
  7 H s       :     0.869677  s :     0.869677
      pz      :     0.039578  p :     0.087334
      px      :     0.029465
      py      :     0.018291
  8 H s       :     0.881527  s :     0.881527
      pz      :     0.017515  p :     0.086037
      px      :     0.017397
      py      :     0.051125
  9 H s       :     0.870901  s :     0.870901
      pz      :     0.045052  p :     0.087430
      px      :     0.026012
      py      :     0.016366
 10 H s       :     0.867864  s :     0.867864
      pz      :     0.015646  p :     0.086743
      px      :     0.044805
      py      :     0.026292


                      *****************************
                      * MAYER POPULATION ANALYSIS *
                      *****************************

  NA   - Mulliken gross atomic population
  ZA   - Total nuclear charge
  QA   - Mulliken gross atomic charge
  VA   - Mayer's total valence
  BVA  - Mayer's bonded valence
  FA   - Mayer's free valence

  ATOM       NA         ZA         QA         VA         BVA        FA
  0 C      6.1742     6.0000    -0.1742     3.9029     3.9029     0.0000
  1 S     14.9411    16.0000     1.0589     5.3356     5.3356     0.0000
  2 C      6.1906     6.0000    -0.1906     3.8827     3.8827     0.0000
  3 O      8.6126     8.0000    -0.6126     1.8345     1.8345    -0.0000
  4 O      8.6122     8.0000    -0.6122     1.8347     1.8347    -0.0000
  5 H      0.9207     1.0000     0.0793     0.9824     0.9824     0.0000
  6 H      0.9210     1.0000     0.0790     0.9823     0.9823    -0.0000
  7 H      0.8996     1.0000     0.1004     0.9925     0.9925     0.0000
  8 H      0.9289     1.0000     0.0711     0.9880     0.9880     0.0000
  9 H      0.9007     1.0000     0.0993     0.9907     0.9907    -0.0000
 10 H      0.8984     1.0000     0.1016     0.9939     0.9939     0.0000

  Mayer bond orders larger than 0.1
B(  0-C ,  1-S ) :   0.9472 B(  0-C ,  5-H ) :   0.9642 B(  0-C ,  6-H ) :   0.9648 
B(  0-C , 10-H ) :   0.9664 B(  1-S ,  2-C ) :   0.9270 B(  1-S ,  3-O ) :   1.7106 
B(  1-S ,  4-O ) :   1.7100 B(  2-C ,  7-H ) :   0.9671 B(  2-C ,  8-H ) :   0.9734 
B(  2-C ,  9-H ) :   0.9665 

-------
TIMINGS
-------

Total SCF time: 0 days 0 hours 0 min 3 sec 

Total time                  ....       3.390 sec
Sum of individual times     ....       3.231 sec  ( 95.3%)

Fock matrix formation       ....       3.190 sec  ( 94.1%)
Diagonalization             ....       0.007 sec  (  0.2%)
Density matrix formation    ....       0.001 sec  (  0.0%)
Population analysis         ....       0.004 sec  (  0.1%)
Initial guess               ....       0.026 sec  (  0.8%)
Orbital Transformation      ....       0.000 sec  (  0.0%)
Orbital Orthonormalization  ....       0.000 sec  (  0.0%)
DIIS solution               ....       0.000 sec  (  0.0%)
SOSCF solution              ....       0.004 sec  (  0.1%)


           ************************************************************
           *        Program running with 4 parallel MPI-processes     *
           *              working on a common directory               *
           ************************************************************


------------------------------------------------------------------------------- 
                              ORCA-MATRIX DRIVEN CI                            
------------------------------------------------------------------------------- 


Wavefunction type
-----------------
Correlation treatment                      ...      CCSD     
Single excitations                         ... ON
Orbital optimization                       ... OFF
Calculation of Z vector                    ... OFF
Calculation of Brueckner orbitals          ... OFF
Perturbative triple excitations            ... ON
Calculation of F12 correction              ... OFF
Frozen core treatment                      ... chemical core (18 el)
Reference Wavefunction                     ... RHF
  Internal Orbitals:     9 ...   24 ( 16 MO's/ 32 electrons)
  Virtual  Orbitals:    25 ...  103 ( 79 MO's              )
Number of AO's                             ...    104
Number of electrons                        ...     50
Number of correlated electrons             ...     32

Algorithmic settings
--------------------
Integral transformation                    ... All integrals via the RI transformation
K(C) Formation                             ... RI-DLPNO
   PNO-Integral Storage                    ... ON DISK
   PNO occupation number cut-off           ... 1.000e-07
   Singles PNO occupation number cut-off   ... 3.000e-09
   PNO Mulliken prescreening cut-off       ... 1.000e-03
   Domain cut-off (Mulliken population)    ... 1.000e-03
   PNO Normalization                       ...    1
Maximum number of iterations               ...        50
Convergence tolerance (max. residuum)      ... 1.000e-05
Level shift for amplitude update           ... 2.000e-01
Maximum number of DIIS vectors             ...         7
DIIS turned on at iteration                ...         0
Damping before turning on DIIS             ...     0.500
Damping after turning on DIIS              ...     0.000
Pair specific amplitude update             ... OFF
Natural orbital iterations                 ... OFF
Perturbative natural orbital generation    ... OFF
Printlevel                                 ... 2

Singles Fock matrix elements calculated using PNOs.

Memory handling:
----------------
Maximum memory for working arrays          ...   8000 MB
Data storage in matrix containers          ... UNCOMPRESSED
Data type for integral storage             ... DOUBLE
In-Core Storage of quantities:
   Amplitudes+Sigma Vector      ... NO
   J+K operators                ... NO
   DIIS vectors                 ... NO
   3-external integrals         ... NO
   4-external integrals         ... NO

Localization treatment:
-----------------------
Localization option                        ...    6
Localization threshhold                    ... -1.0e+00
Using relative localization threshhold     ... 1.0e-08
Neglect threshold for strong pairs         ... 1.000e-05 Eh
Prescreening threshold for very weak pairs ... 1.000e-07 Eh

Initializing the integral package          ... done
Localizing the valence orbitals
------------------------------------------------------------------------------
                           ORCA ORBITAL LOCALIZATION
------------------------------------------------------------------------------

Input orbitals are from                  ... diMe_sulfone_ts.proc0.gbw
Output orbitals are to                   ... diMe_sulfone_ts.proc0.loc
Max. number of iterations                ... 128
Localizations seeded randomly            ... off
Convergence tolerance                    ... 1.000e-06
Using relative localization threshhold   ... 1.000e-08
Treshold for strong local MOs            ... 9.500e-01
Treshold for bond MOs                    ... 8.500e-01
Operator                                 ... 0
Orbital range for localization           ... 9 to 24
Localization criterion                   ... FOSTER-BOYS (AUGMENTED HESSIAN)
Doing the dipole integrals     ... o.k.
Initial value of the localization sum :   128.322068
ITERATION   0 : L=  151.0526142880 DL=  2.27e+01 (AVERGE_DL)=    0.4352254812 
ITERATION   1 : L=  151.5641817896 DL=  5.12e-01 (AVERGE_DL)=    0.0652921321 
ITERATION   2 : L=  151.5952819926 DL=  3.11e-02 (AVERGE_DL)=    0.0160987067 
ITERATION   3 : L=  151.6070957005 DL=  1.18e-02 (AVERGE_DL)=    0.0099220747 
ITERATION   4 : L=  151.6118705041 DL=  4.77e-03 (AVERGE_DL)=    0.0063079339 
ITERATION   5 : L=  151.6138305179 DL=  1.96e-03 (AVERGE_DL)=    0.0040414661 
ITERATION   6 : L=  151.6146729139 DL=  8.42e-04 (AVERGE_DL)=    0.0026495221 
ITERATION   7 : L=  151.6150573192 DL=  3.84e-04 (AVERGE_DL)=    0.0017897981 
ITERATION   8 : L=  151.6152458737 DL=  1.89e-04 (AVERGE_DL)=    0.0012535100 
ITERATION   9 : L=  151.6153452151 DL=  9.93e-05 (AVERGE_DL)=    0.0009098599 
ITERATION  10 : L=  151.6154006906 DL=  5.55e-05 (AVERGE_DL)=    0.0006799233 
ITERATION  11 : L=  151.6154328658 DL=  3.22e-05 (AVERGE_DL)=    0.0005178099 
ITERATION  12 : L=  151.6154518722 DL=  1.90e-05 (AVERGE_DL)=    0.0003979777 
ITERATION  13 : L=  151.6154631367 DL=  1.13e-05 (AVERGE_DL)=    0.0003063833 
ITERATION  14 : L=  151.6154697701 DL=  6.63e-06 (AVERGE_DL)=    0.0002351138 
ITERATION  15 : L=  151.6154736281 DL=  3.86e-06 (AVERGE_DL)=    0.0001793052 
ITERATION  16 : L=  151.6154758373 DL=  2.21e-06 (AVERGE_DL)=    0.0001356825 
ITERATION  17 : L=  151.6154770798 DL=  1.24e-06 (AVERGE_DL)=    0.0001017555 
ITERATION  18 : L=  151.6154777666 DL=  6.87e-07 (AVERGE_DL)=    0.0000756503 
LOCALIZATION SUM CONVERGED

------------------------------------------------------
AUGMENTED HESSIAN OPTIMIZATION OF FOSTER-BOYS ORBITALS
------------------------------------------------------

Spin operator:           0
Orbital window:          9 to 24
Number of iterations:    128
Gradient tolerance:      1.000e-06
Number of pairs:         120
Davidson threshold:      2000
Diagonalization method:  LAPACK
Iter:    0   L: 151.6154777666   Grad. norm: 1.127296e-03
   *** Likely close to a maximum now. ***
       Augmented Hessian eigenvalues:  1.56e-06 -2.42e-01 -2.45e-01 -5.52e-01 ... 
Iter:    1   L: 151.6154785476   Grad. norm: 1.635574e-06
Iter:    2   L: 151.6154785476   Grad. norm: 5.342178e-14
LOCALIZATION HAS CONVERGED.

Eigenvalues of the Hessian:
  0 -2.422e-01
  1 -2.453e-01
  2 -5.524e-01
  3 -5.572e-01
  4 -6.231e-01
  5 -6.264e-01
  6 -3.887e+00
  7 -3.902e+00
  8 -4.046e+00
  9 -4.062e+00
    ...


------------------------------------------------------------------------------- 
                    LOCALIZED MOLECULAR ORBITAL COMPOSITIONS                   
------------------------------------------------------------------------------- 

The Mulliken populations for each LMO on each atom are computed
The LMO`s will be ordered according to atom index and type
  (A) Strongly localized MO`s have populations of >=0.950 on one atom
  (B) Two center bond orbitals have populations of >=0.850 on two atoms
  (C) Other MO`s are considered to be `delocalized`

FOUND  -   0 strongly local MO`s
       -  16 two center bond MO`s
       -   0 significantly delocalized MO`s

Bond-like localized orbitals:
MO  24:  10H  -   0.454305  and   0C  -   0.545289
MO  23:   9H  -   0.457437  and   2C  -   0.544404
MO  22:   8H  -   0.475227  and   2C  -   0.526591
MO  21:   7H  -   0.456090  and   2C  -   0.545765
MO  20:   6H  -   0.472488  and   0C  -   0.528529
MO  19:   5H  -   0.472242  and   0C  -   0.528570
MO  18:   4O  -   0.562817  and   1S  -   0.440066
MO  17:   4O  -   0.909695  and   1S  -   0.093877
MO  16:   4O  -   0.926205  and   1S  -   0.075209
MO  15:   4O  -   0.920669  and   1S  -   0.079837
MO  14:   3O  -   0.562901  and   1S  -   0.440126
MO  13:   3O  -   0.909550  and   1S  -   0.094194
MO  12:   3O  -   0.925640  and   1S  -   0.075804
MO  11:   3O  -   0.921465  and   1S  -   0.078945
MO  10:   2C  -   0.508879  and   1S  -   0.533384
MO   9:   1S  -   0.533619  and   0C  -   0.510111
Localized MO's were stored in: diMe_sulfone_ts.proc0.loc

Localizing the core orbitals
------------------------------------------------------------------------------
                           ORCA ORBITAL LOCALIZATION
------------------------------------------------------------------------------

Input orbitals are from                  ... diMe_sulfone_ts.proc0.loc
Output orbitals are to                   ... diMe_sulfone_ts.proc0.loc
Max. number of iterations                ... 128
Localizations seeded randomly            ... off
Convergence tolerance                    ... 1.000e-06
Using relative localization threshhold   ... 1.000e-08
Treshold for strong local MOs            ... 9.500e-01
Treshold for bond MOs                    ... 8.500e-01
Operator                                 ... 0
Orbital range for localization           ... 0 to 8
Localization criterion                   ... FOSTER-BOYS (AUGMENTED HESSIAN)
Doing the dipole integrals     ... o.k.
Initial value of the localization sum :    38.004229
ITERATION   0 : L=   38.2044146750 DL=  2.00e-01 (AVERGE_DL)=    0.0745701785 
ITERATION   1 : L=   38.2104969921 DL=  6.08e-03 (AVERGE_DL)=    0.0129982019 
ITERATION   2 : L=   38.2108747723 DL=  3.78e-04 (AVERGE_DL)=    0.0032394282 
ITERATION   3 : L=   38.2108989076 DL=  2.41e-05 (AVERGE_DL)=    0.0008187942 
ITERATION   4 : L=   38.2109003651 DL=  1.46e-06 (AVERGE_DL)=    0.0002012087 
ITERATION   5 : L=   38.2109005530 DL=  1.88e-07 (AVERGE_DL)=    0.0000722479 
LOCALIZATION SUM CONVERGED

------------------------------------------------------
AUGMENTED HESSIAN OPTIMIZATION OF FOSTER-BOYS ORBITALS
------------------------------------------------------

Spin operator:           0
Orbital window:          0 to 8
Number of iterations:    128
Gradient tolerance:      1.000e-06
Number of pairs:         36
Davidson threshold:      2000
Diagonalization method:  LAPACK
Iter:    0   L: 38.2109005530   Grad. norm: 1.546744e-04
Iter:    1   L: 38.2109178714   Grad. norm: 9.606024e-05
Iter:    2   L: 38.2109253343   Grad. norm: 1.637060e-05
   *** Likely close to a maximum now. ***
       Augmented Hessian eigenvalues:  2.51e-07 -2.97e-04 -5.09e-04 -7.21e-04 ... 
Iter:    3   L: 38.2109254598   Grad. norm: 8.350474e-08
LOCALIZATION HAS CONVERGED.

Eigenvalues of the Hessian:
  0 -2.979e-04
  1 -5.095e-04
  2 -7.208e-04
  3 -1.376e-01
  4 -1.378e-01
  5 -1.381e-01
  6 -4.132e-01
  7 -5.505e-01
  8 -5.512e-01
  9 -5.522e-01
    ...


------------------------------------------------------------------------------- 
                    LOCALIZED MOLECULAR ORBITAL COMPOSITIONS                   
------------------------------------------------------------------------------- 

The Mulliken populations for each LMO on each atom are computed
The LMO`s will be ordered according to atom index and type
  (A) Strongly localized MO`s have populations of >=0.950 on one atom
  (B) Two center bond orbitals have populations of >=0.850 on two atoms
  (C) Other MO`s are considered to be `delocalized`

FOUND  -   9 strongly local MO`s
       -   0 two center bond MO`s
       -   0 significantly delocalized MO`s

Rather strongly localized orbitals:
MO   8:   4O  -   0.999656
MO   7:   3O  -   0.999655
MO   6:   2C  -   0.999580
MO   5:   1S  -   0.999408
MO   4:   1S  -   0.999374
MO   3:   1S  -   0.999419
MO   2:   1S  -   0.999994
MO   1:   1S  -   0.999411
MO   0:   0C  -   0.999610
Localized MO's were stored in: diMe_sulfone_ts.proc0.loc

Warning: internal orbitals are localized - no re-canonicalization of internal orbitals

--------------------------
CLOSED-SHELL FOCK OPERATOR
--------------------------

RI-JK section for the Fock operator:
  RHF full Fock operator         ... done
  RHF frozen core Fock operator  ... done
Time needed for Fock operator              ...            0.807 sec
Reference energy                           ...   -626.398283780

--------------
DLPNO SETTINGS (2015 fully linear scaling implementation)
--------------

TCutMKN:           1.000e-03
TCutPAO:           1.000e-03
TCutPNO:           1.000e-07
TCutPNOSingles:    3.000e-09
TCutEN:            9.700e-01
TCutPAOExt:        1.000e-01
TCutPairs:         1.000e-05
TCutPre:           1.000e-07
TCutOSV:           1.000e-06
TCutDOij:          1.000e-05
TCutDO:            5.000e-03
TCutC:             1.000e-04
TCutCPAO:          1.000e-03
TCutCMO:           1.000e-03
TScaleDOMP2PreScr: 2.000e+00
TScaleMKNMP2PreScr:1.000e+01
TScalePNOMP2PreScr:1.000e+00
PAO overlap thresh 1.000e-08
Using PNOs for Singles Fock computation
Use new domains
Use fully linear algorithm
TCutTNO:           1.000e-09
TCutMP2Pairs:      1.000e-06
TCutDOStrong:      2.000e-03
TCutMKNStrong:     1.000e-02
TCutMKNWeak:       1.000e-01
TCutDOWeak:        4.000e-03
NTCutTNO:          1

--------------------------
Calculating differential overlap integrals ... ok
--------------------------
ELECTRON PAIR PRESCREENING
--------------------------

Dipole-based pair screening          .... used

   TCutDOij = 1.000000e-05
   TCutPre  = 1.000000e-07
   .... Finished loop over pairs
Total time spent in the prescreening                  ...     0.000 sec
sum of pair energies estimated for screened out pairs ...       0.000000000000 Eh
Thresholds for map construction and integral transformation for crude MP2:
   TCutMKN                    ...     1.0e-02
   TCutDO                     ...     1.0e-02
   TCutPairs                  ...     1.0e-05
   TCutPNO_CrudeMP2           ...     1.0e-07
   TCutPNOSingles_CrudeMP2    ...     3.0e-09
--------------------------------
LOCAL RI TRANSFORMATION (IAVPAO)
--------------------------------

Orbital window:       9 to 24
Number of PAOs:     104
Basis functions:    104 (50 shells)
Aux. functions:     384 (132 shells)

Processing maps (0.0 sec)
Average map sizes:
   Aux shells -> MOs              16.0
   Aux shells -> PAOs            104.0
   MOs        -> AO shells        50.0
   PAOs       -> AO shells        50.0

Calculating integrals (0.3 sec, 4.879 MB)
Sorting integrals (0.0 sec, 4.875 MB)
Total time for the integral transformation: 0.4 sec
--------------------------------
INITIAL GUESS AND PNO GENERATION
--------------------------------

PNO truncation parameters                   .... 
    PAOOverlapThresh   =        1.000e-08

    TCutPairs          =        1.000e-05
    TCutPNO            =        1.000e-07
    TCutPNOSingles     =        3.000e-09
    TCutMP2Pairs       =        1.000e-06
    TCutMKN            =        1.000e-02
    TCutDO             =        1.000e-02

Pair selection                          .... not used
Type of local MP2 treatment                 .... semi-local MP2
Strategy for PNO selection                  .... occupation number selection
Pair density normalization                  .... MP2 norm
Spin component scaling                      .... not used

   .... Finished loop over pairs
Making pair pair interaction lists          ... done

                       ===========================
                        136 OF  136 PAIRS ARE KEPT CCSD PAIRS
                          0 OF  136 PAIRS ARE KEPT MP2 PAIRS FOR (T)
                          0 OF  136 PAIRS ARE SKIPPED
                       ===========================

Total time spent in the initial guess                 ...     0.183 sec
SL-MP2 correlation energy (all non-screened pairs)    ...      -0.767045792825 Eh

Initial PNO correlation energy                        ...      -0.766778979339 Eh
sum of pair energies prescreened and skipped MP2 pairs...       0.000000000000 Eh
sum of pair energies of crude MP2 skipped pairs only  ...       0.000000000000 Eh
sum of MP2 pair energies for pairs that were not kept ...       0.000000000000 Eh
sum of PNO error estimates for the kept pairs         ...      -0.000266813486 Eh
                                                          --------------------
sum of all corrections                                         -0.000266813486
Initial total correlation energy                               -0.767045792825
Thresholds for map construction and integral transformation for fine MP2 and CCSD(T) calculation:
   TCutMKN   ...     1.0e-03
   TCutDO    ...     5.0e-03
   TCutPairs ...     1.0e-05
   TCutCMO   ...     1.0e-03
   TCutCPAO  ...     1.0e-03

Thresholds for map construction and integral transformation for strong Triples:
   TCutMKN   ...     1.0e-02
   TCutDO    ...     1.0e-02
   TCutCMO   ...     1.0e-03
   TCutCPAO  ...     1.0e-03

Thresholds for map construction and integral transformation for weak Triples:
   TCutMKN   ...     1.0e-01
   TCutDO    ...     2.0e-02
   TCutCMO   ...     1.0e-03
   TCutCPAO  ...     1.0e-03

--------------------------------
LOCAL RI TRANSFORMATION (IAVPAO)
--------------------------------

Orbital window:       9 to 24
Number of PAOs:     104
Basis functions:    104 (50 shells)
Aux. functions:     384 (132 shells)

Processing maps (0.0 sec)
Average map sizes:
   Aux shells -> MOs              16.0
   Aux shells -> PAOs            104.0
   MOs        -> AO shells        50.0
   PAOs       -> AO shells        50.0

Calculating integrals (0.3 sec, 4.879 MB)
Sorting integrals (0.0 sec, 4.875 MB)
Total time for the integral transformation: 0.4 sec
--------------------------------
INITIAL GUESS AND PNO GENERATION
--------------------------------

PNO truncation parameters                   .... 
    ScaleTCutPNO       =        1.000e-02
    PAOOverlapThresh   =        1.000e-08

    TCutPairs          =        1.000e-05
    TCutPNO            =        1.000e-07
    TCutPNOSingles     =        3.000e-09
    TCutMP2Pairs       =        1.000e-06
    TCutMKN            =        1.000e-03
    TCutDO             =        5.000e-03

Pair selection                          .... not used
Type of local MP2 treatment                 .... full local PMP2
Strategy for PNO selection                  .... occupation number selection
Pair density normalization                  .... MP2 norm
Spin component scaling                      .... not used

PASS-1: Formation of initial guess LMP2 amplitudes
Initial amplitudes guess done. Entering LMP2 iteration loop:
   Max. no of iterations          ...  50
   Energy convergence tolerance   ...    1.0e-07
   Residual convergence tolerance ...    5.0e-07
   Fock matrix cutoff             ...    1.0e-05 Eh
   DIIS convergence acceleration parameters:
        Max # vectors in DIIS     ... 7
        Start iteration of DIIS   ... 0
        Levelshift                ... 2.000e-01
        Damping factor 1          ... 5.000e-01
        Damping factor 2          ... 1.000e+00
   L-MP2 PNO cut-off              ...   1.0e-09
   L-MP2 PNO cut-off (core)       ...   1.0e-11
                           *** Turning on DIIS ***
LMP2-Iter=   0:  ELMP2= -0.791092871420  DE=   2.4e-02 RMAX=   4.6e-03
LMP2-Iter=   1:  ELMP2= -0.801787180793  DE=   1.1e-02 RMAX=   4.1e-03
LMP2-Iter=   2:  ELMP2= -0.803730804717  DE=   1.9e-03 RMAX=   6.2e-04
LMP2-Iter=   3:  ELMP2= -0.803977492306  DE=   2.5e-04 RMAX=   3.7e-04
LMP2-Iter=   4:  ELMP2= -0.803995307102  DE=   1.8e-05 RMAX=   4.1e-05
LMP2-Iter=   5:  ELMP2= -0.803993255023  DE=   2.1e-06 RMAX=   1.4e-05
LMP2-Iter=   6:  ELMP2= -0.803992843994  DE=   4.1e-07 RMAX=   1.5e-06
LMP2-Iter=   7:  ELMP2= -0.803992779506  DE=   6.4e-08 RMAX=   3.5e-07
LMP2-Iter=   8:  ELMP2= -0.803992788029  DE=   8.5e-09 RMAX=   6.4e-08 => CONVERGED
PASS-2: Formation of Pair natural orbitals
   .... Finished loop over pairs

 PNO Occupation Number Statistics: 
  | Av. % of trace(Dij) retained        ...  99.844850451021
  | sigma^2 in % of trace(Dij) retained ...   2.75e-02
  | Av. % of trace(Di) retained         ...  99.999883891500
  | sigma^2 in % of trace(Di) retained  ...   3.92e-09
 Distributions of % trace(Dij) recovered:
  |       >= 99.9  ...    68 ( 50.0 % of all pairs)
  |   [99.0, 99.9) ...    68 ( 50.0 % of all pairs)
 Distributions of % trace(Di) recovered :
  |       >= 99.9  ...    16 (100.0 % of all I-pairs )

Making pair pair interaction lists          ... done

                       ===========================
                        136 OF  136 PAIRS ARE KEPT
                       ===========================

Total time spent in the initial guess                 ...     1.708 sec
L-MP2 correlation energy (all non-screened pairs)     ...      -0.803992788029 Eh
L-MP2 PNO error correction                            ...      -0.000003122753 Eh
                                                          --------------------
Initial total L-MP2 energy (non-screened pairs)       ...      -0.803995910782 Eh

Initial PNO correlation energy                        ...      -0.803749522310 Eh
sum of pair energies estimated for screened out pairs ...       0.000000000000 Eh
sum of MP2 pair energies for pairs that were not kept ...       0.000000000000 Eh
sum of PNO error estimates for the kept pairs         ...      -0.000246388472 Eh
                                                          --------------------
sum of all corrections                                         -0.000246388472
Initial total correlation energy                               -0.803995910782
Thresholds for map construction and integral transformation for fine MP2 and CCSD(T) calculation:
   TCutMKN   ...     1.0e-03
   TCutDO    ...     5.0e-03
   TCutPairs ...     1.0e-05
   TCutCMO   ...     1.0e-03
   TCutCPAO  ...     1.0e-03

Time for aux screen maps:            0.001
Time for maps after fine MP2:            0.004
-----------------------------
LOCAL RI TRANSFORMATION (IJV)
-----------------------------

Orbital window:       9 to 24
Basis functions:    104 (50 shells)
Aux. functions:     384 (132 shells)

Processing maps (0.0 sec)
Average map sizes:
   Aux shells -> MOs(i)           16.0
   Aux shells -> MOs(j)           16.0
   MOs        -> AO shells        50.0

Calculating integrals (0.4 sec, 0.754 MB)
Sorting integrals (0.0 sec, 0.750 MB)
Total time for the integral transformation: 0.4 sec
--------------------------------
LOCAL RI TRANSFORMATION (VABPAO)
--------------------------------

Number of PAOs:     104
Basis functions:    104 (50 shells)
Aux. functions:     384 (132 shells)

Processing maps (0.0 sec)
Average map sizes:
   Aux shells -> PAOs            104.0
   PAOs       -> AO shells        50.0

Calculating integrals (0.4 sec, 56.039 MB)
Finished


-------------------------------------
Pair Pair Term precalculation with     
RI-(ij|mn) and (im|jn) transformation  
ON THE FLY                             
-------------------------------------

   IBatch   1 (of   1)              ... done (    6.969 sec)
Total EXT                           ...           6.969 sec

---------------------
RI-PNO TRANSFORMATION
---------------------

Total Number of PNOs                   ...  3825
Average number of PNOs per pair        ...    28
Maximal number of PNOs per pair        ...    45
   #pairs with  1 -  5 PNOs   :    0
   #pairs with  6 - 10 PNOs   :    0
   #pairs with 11 - 15 PNOs   :    0
   #pairs with 16 - 20 PNOs   :    5
   #pairs with 21 - 25 PNOs   :   38
   #pairs with 26 - 30 PNOs   :   56
   #pairs with 31 - 35 PNOs   :   26
   #pairs with 36 - 40 PNOs   :   10
   #pairs with 41 - 45 PNOs   :    1
   #pairs with 46 - 50 PNOs   :    0

Generation of (ij|ab)[P] integrals            ... on
Generation of (ia|bc)[P],(ja|bc)[P] integrals ... on
Storage of 3 and 4 external integrals         ... on
Generation of ALL (ka|bc)[P] integrals        ... on
Keep RI integrals in memory                   ... off

Ibatch:  1 (of  1)
Starting 2-4 index PNO integral generation ... done

Timings:
Total PNO integral transformation time     ...          1.905 sec
Size of the 3-external file                ...        26 MB
Size of the 4-external file                ...       103 MB
Size of the IKJL file                      ...         0 MB
Size of the all 3-external file            ...       208 MB
Size of the 1-external file                ...         1 MB

Making pair/pair overlap matrices          ... done (    0.309 sec)
Size of the pair overlap file              ... 74 MB
Redoing the guess amplitudes               ... done (    0.001 sec)

-------------------------
FINAL STARTUP INFORMATION
-------------------------

E(0)                                       ...   -626.398283780
E(L-MP2)                                   ...     -0.803995911
E(L-MP2) including corrections             ...     -0.803995911
Initial E(tot)                             ...   -627.202279691
<T|T>                                      ...      0.223864818
Number of pairs included                   ... 136
Total number of pairs                      ... 136

------------------------------------------------
                  RHF COUPLED CLUSTER ITERATIONS
------------------------------------------------

Number of PNO amplitudes to be optimized   ...       110839
Number of non-PNO amplitudes               ...       848776
Untruncated number of regular amplitudes   ...       848776

Iter       E(tot)           E(Corr)          Delta-E          Residual     Time
  0   -627.165662180     -0.767132012      0.036863899      0.019887769    1.57
                           *** Turning on DIIS ***
  1   -627.207945717     -0.809415549     -0.042283537      0.007390920    1.57
  2   -627.232727401     -0.834197233     -0.024781684      0.003898146    1.60
  3   -627.237630551     -0.839100383     -0.004903150      0.001838063    1.64
  4   -627.239220251     -0.840690082     -0.001589700      0.000948006    1.72
  5   -627.239814240     -0.841284072     -0.000593990      0.000396338    1.72
  6   -627.239938520     -0.841408352     -0.000124280      0.000156126    1.75
  7   -627.239965324     -0.841435155     -0.000026803      0.000071334    1.65
  8   -627.239970787     -0.841440619     -0.000005463      0.000035326    1.60
  9   -627.239969663     -0.841439494      0.000001124      0.000012808    1.52
 10   -627.239970171     -0.841440003     -0.000000508      0.000004855    1.61
               --- The Coupled-Cluster iterations have converged ---

----------------------
COUPLED CLUSTER ENERGY
----------------------

E(0)                                       ...   -626.398283780
E(CORR)(strong-pairs)                      ...     -0.841440003
E(CORR)(weak-pairs)                        ...     -0.000246388
E(CORR)(corrected)                         ...     -0.841686391
E(TOT)                                     ...   -627.239970171
Singles Norm <S|S>**1/2                    ...      0.087146881  
T1 diagnostic                              ...      0.015405538  

------------------
LARGEST AMPLITUDES
------------------
  23-> 34  23-> 34       0.042324
  19-> 35  19-> 35       0.041444
  20-> 35  20-> 35       0.041066
   9-> 25   9-> 25       0.036453
  24-> 34  24-> 34       0.036331
  21-> 34  21-> 34       0.035418
  19-> 25  19-> 25       0.034339
  22-> 25  22-> 25       0.034163
  20-> 25  20-> 25       0.034032
  22-> 35  22-> 35       0.033313
  23-> 25  23-> 25       0.032898
  24-> 25  24-> 25       0.032723
  21-> 25  21-> 25       0.031864
  10-> 25  10-> 25       0.031501
  23-> 34  23-> 25       0.031295
  23-> 25  23-> 34       0.031295


-------------------------------------------
DLPNO BASED TRIPLES CORRECTION
-------------------------------------------

Singles multiplier          ...  1.000000
TCutTNO                     ... 1.000e-09
TCutMP2Pairs                ... 1.000e-06
TCutDOStrong                ... 1.000e-02
TCutMKNStrong               ... 1.000e-02
TCutDOWeak                  ... 2.000e-02
TCutMKNWeak                 ... 1.000e-01

Fragment selection                          .... not used
Number of Triples that are to be computed   ...       800

 . . . . . . . . .
10% done  
20% done  
30% done  
40% done  
50% done  
60% done  
70% done  
80% done  
90% done               (     12.597 sec)
Triples timings:
Total time for T0               ...    13.392 sec
Total time for Iterative (T)    ...     0.000 sec
Total time of overall (T)       ...    13.562 sec

Triples List generation         ...     0.000 sec
TNO generation                  ...     0.793 sec
Pair density generation         ...     0.002 sec
Look up tables                  ...     0.000 sec
Generating 3-index integrals    ...     5.164 sec
  Make 4-ind.int. from 3-ind.int...     3.067 sec
  Projecting amplitudes (D + S) ...     1.098 sec
  Downprojecting integrals      ...     0.001 sec
  Energy contr. (sum over a,b,c)...     0.988 sec
Fitting ET(->0)                 ...     0.000 sec

Everything after 3-index        ...     7.433 sec

Timing details:
 TNO integrals                  ...     7.839 sec
   Reading 3-index integrals    ...     0.013 sec
   Sorting integrals            ...     1.819 sec
       Sorting integrals 1      ...     0.000 sec
       Sorting integrals 2      ...     0.413 sec
       Sorting integrals 3      ...     0.091 sec
       Sorting integrals 4      ...     0.011 sec
       Sorting integrals 5      ...     0.024 sec
       Sorting integrals 6      ...     1.279 sec
   Calculating local VM**-1/2   ...     0.097 sec
   Orthogonal. integrals        ...     0.182 sec
   Multipl. 3-index integrals   ...     5.728 sec
   All concerning IRIab (w/TNO) ...     1.378 sec

 Calculate W0/W1                ...     2.273 sec
 W 3-ext contribution           ...     1.192 sec
 W 3-int contribution           ...     0.408 sec
 Sorting W                      ...     0.622 sec

 V exchange contribution        ...     0.369 sec

 Timings for Triples without generation
     of 3-index integrals       ...     7.430 sec
       0 weak pairs             ...     7.430 sec
       1 weak pair              ...     0.000 sec
       2 weak pairs             ...     0.000 sec
       3 weak pairs             ...     0.000 sec
  Extra time for extrapolation  ...     0.000 sec

Number of Triples   (0, 1, 2, 3 weak pairs; overall):    800       0       0       0  (   800)
Number of Atoms     (0, 1, 2, 3 weak pairs; overall):   11.0     0.0     0.0     0.0  (    11)
Number of PAOs      (0, 1, 2, 3 weak pairs; overall):  103.9     0.0     0.0     0.0  (   104)
Number of AuxFcns   (0, 1, 2, 3 weak pairs; overall):  221.6     0.0     0.0     0.0  (   384)
Number of TNOs      (0, 1, 2, 3 weak pairs         ):   56.7     0.0     0.0     0.0
Aver. Number of NTNO, Atoms, PAOs, AuxFcns / Triples:    800    56.7    11.0   103.9   221.6

Triples Correction (T)                     ...     -0.024232067
Final correlation energy                   ...     -0.865918459
E(CCSD)                                    ...   -627.239970171
E(CCSD(T))                                 ...   -627.264202238


Maximum memory used throughout the entire calculation: 2236.4 MB


------------------------------------------------------------------------------- 
                                     TIMINGS                                   
------------------------------------------------------------------------------- 


Total execution time                   ...       46.760 sec

Localization of occupied MO's          ...        0.418 sec (  0.9%)
Fock Matrix Formation                  ...        0.807 sec (  1.7%)
Global overlap, Fock, MKN matrices     ...        0.125 sec (  0.3%)
Differential overlap integrals         ...        0.063 sec (  0.1%)
Organizing maps                        ...        0.013 sec (  0.0%)
RI 3-index integral generations        ...        1.498 sec (  3.2%)
RI-PNO integral transformation         ...        9.300 sec ( 19.9%)
Initial Guess                          ...        1.903 sec (  4.1%)
DIIS Solver                            ...        0.348 sec (  0.7%)
State Vector Update                    ...        0.010 sec (  0.0%)
Sigma-vector construction              ...       17.839 sec ( 38.2%)
  <D|H|D>(0-ext)                       ...        1.215 sec (  6.8% of sigma)
  <D|H|D>(2-ext Fock)                  ...        0.011 sec (  0.1% of sigma)
  <D|H|D>(2-ext)                       ...        2.175 sec ( 12.2% of sigma)
  <D|H|D>(4-ext)                       ...        1.608 sec (  9.0% of sigma)
  <D|H|D>(4-ext-corr)                  ...        7.380 sec ( 41.4% of sigma)
  CCSD doubles correction              ...        0.122 sec (  0.7% of sigma)
  <S|H|S>                              ...        0.147 sec (  0.8% of sigma)
  <S|H|D>(1-ext)                       ...        0.168 sec (  0.9% of sigma)
  <D|H|S>(1-ext)                       ...        0.008 sec (  0.0% of sigma)
  <S|H|D>(3-ext)                       ...        0.119 sec (  0.7% of sigma)
  Fock-dressing                        ...        2.828 sec ( 15.9% of sigma)
  Singles amplitudes                   ...        0.123 sec (  0.7% of sigma)
  (ik|jl)-dressing                     ...        0.870 sec (  4.9% of sigma)
  (ij|ab),(ia|jb)-dressing             ...        1.000 sec (  5.6% of sigma)
  Pair energies                        ...        0.004 sec (  0.0% of sigma)
Total Time for computing (T)           ...       13.591 sec ( 29.1% of ALL)


-------------------------   --------------------
FINAL SINGLE POINT ENERGY      -627.264202238434
-------------------------   --------------------


                            ***************************************
                            *     ORCA property calculations      *
                            ***************************************

                                    ---------------------
                                    Active property flags
                                    ---------------------
   (+) Dipole Moment


------------------------------------------------------------------------------
                       ORCA ELECTRIC PROPERTIES CALCULATION
------------------------------------------------------------------------------

Dipole Moment Calculation                       ... on
Quadrupole Moment Calculation                   ... off
Polarizability Calculation                      ... off
GBWName                                         ... diMe_sulfone_ts.gbw
Electron density file                           ... diMe_sulfone_ts.scfp.tmp
The origin for moment calculation is the CENTER OF MASS  = (-0.006658, -0.132549 -0.000049)

-------------
DIPOLE MOMENT
-------------
                                X             Y             Z
Electronic contribution:     -0.22251      -4.60263      -0.00149
Nuclear contribution   :      0.33216       6.62614       0.00152
                        -----------------------------------------
Total Dipole Moment    :      0.10965       2.02351       0.00002
                        -----------------------------------------
Magnitude (a.u.)       :      2.02648
Magnitude (Debye)      :      5.15090



--------------------
Rotational spectrum 
--------------------
 
Rotational constants in cm-1:     0.151792     0.140762     0.137701 
Rotational constants in MHz :  4550.618218  4219.948913  4128.180025 

 Dipole components along the rotational axes: 
x,y,z [a.u.] :    -0.162759     2.019930    -0.003289 
x,y,z [Debye]:    -0.413699     5.134253    -0.008359 

 

Timings for individual modules:

Sum of individual times         ...      108.467 sec (=   1.808 min)
GTO integral calculation        ...       58.001 sec (=   0.967 min)  53.5 %
SCF iterations                  ...        3.519 sec (=   0.059 min)   3.2 %
MDCI module                     ...       46.948 sec (=   0.782 min)  43.3 %
                             ****ORCA TERMINATED NORMALLY****
TOTAL RUN TIME: 0 days 0 hours 1 minutes 48 seconds 713 msec
diMe_sulfone_ts.gbw -> /home1/pantazis/klk/VDZ/Energy_barrier/diMe_sulfone_ts.gbw
diMe_sulfone_ts.ges -> /home1/pantazis/klk/VDZ/Energy_barrier/diMe_sulfone_ts.ges
diMe_sulfone_ts.job -> /home1/pantazis/klk/VDZ/Energy_barrier/diMe_sulfone_ts.job
diMe_sulfone_ts.loc -> /home1/pantazis/klk/VDZ/Energy_barrier/diMe_sulfone_ts.loc
diMe_sulfone_ts.nodes -> /home1/pantazis/klk/VDZ/Energy_barrier/diMe_sulfone_ts.nodes
diMe_sulfone_ts.prop -> /home1/pantazis/klk/VDZ/Energy_barrier/diMe_sulfone_ts.prop
diMe_sulfone_ts_property.txt -> /home1/pantazis/klk/VDZ/Energy_barrier/diMe_sulfone_ts_property.txt
diMe_sulfone_ts.xyz -> /home1/pantazis/klk/VDZ/Energy_barrier/diMe_sulfone_ts.xyz
cp: cannot stat diMe_sulfone_ts.asa.inp: No such file or directory
