! Job execution by suborca V 6.07 on ZEUS !
Job started from zeus1, running /scratch/pantazis/dimethilsulfide_ecl__brJ4ts/orca/orca copied from /opt/orca on zeussn126 in /scratch/pantazis/dimethilsulfide_ecl__brJ4ts
Job execution start: Sat Jun 29 10:49:14 CEST 2019
Shared library path: /scratch/pantazis/dimethilsulfide_ecl__brJ4ts/orca:/opt/openmpi_1.10.2/lib:/opt/intel/mkl/lib/intel64:/opt/intel/lib/intel64:
PBS Job ID is: 158731.icqc
izeussn126
izeussn126
izeussn126
izeussn126

                                 *****************
                                 * O   R   C   A *
                                 *****************

           --- An Ab Initio, DFT and Semiempirical electronic structure package ---

                  #######################################################
                  #                        -***-                        #
                  #          Department of theory and spectroscopy      #
                  #               Directorship: Frank Neese             #
                  #        Max Planck Institute fuer Kohlenforschung    #
                  #                Kaiser Wilhelm Platz 1               #
                  #                 D-45470 Muelheim/Ruhr               #
                  #                      Germany                        #
                  #                                                     #
                  #                  All rights reserved                #
                  #                        -***-                        #
                  #######################################################


                         Program Version 4.1.x  -  STABLE  -
                                (SVN: $Rev: 14094$)
                ($Date: 2019-06-14 15:01:15 +0200 (Fri, 14 Jun 2019) $)

                         (BUILD: $Sun Jun 23 06:18:31 CEST 2019$)


 With contributions from (in alphabetic order):
   Daniel Aravena         : Magnetic Properties
   Michael Atanasov       : Ab Initio Ligand Field Theory
   Alexander A. Auer      : GIAO ZORA
   Ute Becker             : Parallelization
   Giovanni Bistoni       : ED, Open-shell LED
   Martin Brehm           : Molecular dynamics
   Dmytro Bykov           : SCF Hessian
   Vijay G. Chilkuri      : MRCI spin determinant printing
   Dipayan Datta          : RHF DLPNO-CCSD density
   Achintya Kumar Dutta   : EOM-CC, STEOM-CC
   Dmitry Ganyushin       : Spin-Orbit,Spin-Spin,Magnetic field MRCI
   Miquel Garcia          : C-PCM Hessian
   Yang Guo               : DLPNO-NEVPT2, CIM, IAO-localization
   Andreas Hansen         : Spin unrestricted coupled pair/coupled cluster methods
   Benjamin Helmich-Paris : CASSCF linear response (MC-RPA)
   Lee Huntington         : MR-EOM, pCC
   Robert Izsak           : Overlap fitted RIJCOSX, COSX-SCS-MP3, EOM
   Christian Kollmar      : KDIIS, OOCD, Brueckner-CCSD(T), CCSD density
   Simone Kossmann        : Meta GGA functionals, TD-DFT gradient, OOMP2, MP2 Hessian
   Martin Krupicka        : AUTO-CI
   Lucas Lang             : DCDCAS
   Dagmar Lenk            : GEPOL surface, SMD
   Dimitrios Liakos       : Extrapolation schemes; parallel MDCI
   Dimitrios Manganas     : ROCIS; embedding schemes
   Dimitrios Pantazis     : SARC Basis sets
   Taras Petrenko         : DFT Hessian,TD-DFT gradient, ASA, ECA, R-Raman, ABS, FL, XAS/XES, NRVS
   Peter Pinski           : DLPNO-MP2, DLPNO-MP2 Gradient
   Christoph Reimann      : Effective Core Potentials
   Marius Retegan         : Local ZFS, SOC
   Christoph Riplinger    : Optimizer, TS searches, QM/MM, DLPNO-CCSD(T), (RO)-DLPNO pert. Triples
   Tobias Risthaus        : Range-separated hybrids, TD-DFT gradient, RPA, STAB
   Michael Roemelt        : Restricted open shell CIS
   Masaaki Saitow         : Open-shell DLPNO
   Barbara Sandhoefer     : DKH picture change effects
   Avijit Sen             : IP-ROCIS
   Kantharuban Sivalingam : CASSCF convergence, NEVPT2, FIC-MRCI
   Bernardo de Souza      : ESD, SOC TD-DFT
   Georgi Stoychev        : AutoAux, RI-MP2 NMR
   Willem Van den Heuvel  : Paramagnetic NMR
   Boris Wezisla          : Elementary symmetry handling
   Frank Wennmohs         : Technical directorship


 We gratefully acknowledge several colleagues who have allowed us to
 interface, adapt or use parts of their codes:
   Stefan Grimme, W. Hujo, H. Kruse,             : VdW corrections, initial TS optimization,
                  C. Bannwarth                     DFT functionals, gCP, sTDA/sTD-DF
   Ed Valeev                                     : LibInt (2-el integral package), F12 methods
   Garnet Chan, S. Sharma, J. Yang, R. Olivares  : DMRG
   Ulf Ekstrom                                   : XCFun DFT Library
   Mihaly Kallay                                 : mrcc  (arbitrary order and MRCC methods)
   Andreas Klamt, Michael Diedenhofen            : otool_cosmo (COSMO solvation model)
   Jiri Pittner, Ondrej Demel                    : Mk-CCSD
   Frank Weinhold                                : gennbo (NPA and NBO analysis)
   Christopher J. Cramer and Donald G. Truhlar   : smd solvation model
   Lars Goerigk                                  : TD-DFT with DH, B97 family of functionals
   V. Asgeirsson, H. Jonsson                     : NEB implementation
   FAccTs GmbH                                   : IRC, NEB, NEB-TS, Multilevel


 Your calculation uses the libint2 library for the computation of 2-el integrals
 For citations please refer to: http://libint.valeyev.net

 This ORCA versions uses:
   CBLAS   interface :  Fast vector & matrix operations
   LAPACKE interface :  Fast linear algebra routines
   SCALAPACK package :  Parallel linear algebra routines




***************************************
The coordinates will be read from file: dimethilsulfide_ecl.xyz
***************************************


----- Orbital basis set information -----
Your calculation utilizes the basis: cc-pVDZ 
       H, B-Ne : Obtained from the ccRepo (grant-hill.group.shef.ac.uk/ccrepo) Feb. 2017
                 T. H. Dunning, Jr., J. Chem. Phys. 90, 1007 (1989)
            He : Obtained from the ccRepo (grant-hill.group.shef.ac.uk/ccrepo) Feb. 2017
                 D. E. Woon, T. H. Dunning, Jr., J. Chem. Phys. 100, 2975 (1994)
  Li-Be, Na-Mg : Obtained from the ccRepo (grant-hill.group.shef.ac.uk/ccrepo) Feb. 2017
                 B. P. Prascher, D. E. Woon, K. A. Peterson, T. H. Dunning, Jr., A. K. Wilson, Theor. Chem. Acc. 128, 69 (2011)
         Al-Ar : Obtained from the ccRepo (grant-hill.group.shef.ac.uk/ccrepo) Feb. 2017
                 D. E. Woon, T. H. Dunning, Jr., J. Chem. Phys. 98, 1358 (1993)
            Ca : Obtained from the Peterson Research Group Website (tyr0.chem.wsu.edu/~kipeters) Feb. 2017
                 J. Koput, K. A. Peterson, J. Phys. Chem. 106, 9595 (2002)
         Sc-Zn : Obtained from the ccRepo (grant-hill.group.shef.ac.uk/ccrepo) Feb. 2017
                 N. B. Balabanov, K. A. Peterson, J. Chem. Phys. 123, 064107 (2005)
                 N. B. Balabanov, K. A. Peterson, J. Chem. Phys. 125, 074110 (2006)
         Ga-Kr : Obtained from the ccRepo (grant-hill.group.shef.ac.uk/ccrepo) Feb. 2017
                 A. K. Wilson, D. E. Woon, K. A. Peterson, T. H. Dunning, Jr., J. Chem. Phys. 110, 7667 (1999)

----- AuxC basis set information -----
Your calculation utilizes the auxiliary basis: cc-pVDZ/C 
  H-He, B, Ne, Al-Ar, Ga-Br : Obtained from the EMSL Basis Set Exchange (bse.pnl.gov) Feb. 2017
                              F. Weigend, A. Kohn, C. Hattig, J. Chem. Phys. 116, 3175 (2002)
               Li-Be, Na-Mg : Obtained from the EMSL Basis Set Exchange (bse.pnl.gov) Feb. 2017
                              C. Haettig, Phys. Chem. Chem. Phys. 7, 59 (2005)
                        C-F : Obtained from the EMSL Basis Set Exchange (bse.pnl.gov) Feb. 2017
                              C. Haettig, Phys. Chem. Chem. Phys. 7, 59 (2005)
                              F. Weigend, A. Kohn, C. Hattig, J. Chem. Phys. 116, 3175 (2002)
                         Kr : Obtained from the TURBOMOLE 7.0 basis set library
                              F. Weigend, A. Kohn, C. Hattig, J. Chem. Phys. 116, 3175 (2002)
                              S function revised in Sep. 2009

----- AuxJK basis set information -----
Your calculation utilizes the auxiliary basis: cc-pVTZ/JK 
  H, B-F, Al-Cl, Ga-Br : Obtained from the TURBOMOLE 7.0 basis set library

================================================================================
                                        WARNINGS
                       Please study these warnings very carefully!
================================================================================


WARNING: MDCI localization with Augmented Hessian Foster-Boys
  ===> : Switching off randomization!

WARNING: Post HF methods need fully converged wavefunctions
  ===> : Setting SCFConvForced true
         You can overwrite this default with %scf ConvForced false 


INFO   : the flag for use of LIBINT has been found!

================================================================================
                                       INPUT FILE
================================================================================
NAME = dimethilsulfide_ecl.inp
|  1> ! RHF DLPNO-CCSD(T) cc-pVDZ RIJK cc-pVTZ/JK cc-pVDZ/C
|  2> ! KDIIS SOSCF TightSCF TightPNO
|  3> 
|  4> %pal nprocs 4 end
|  5> 
|  6> %maxcore 8000
|  7> 
|  8> %scf maxiter 300
|  9>      shift shift 0.2 erroff 0.1 end
| 10> end
| 11> 
| 12> * xyzfile 0 1 dimethilsulfide_ecl.xyz 
| 13> 
| 14> 
| 15>                          ****END OF INPUT****
================================================================================

                       ****************************
                       * Single Point Calculation *
                       ****************************

---------------------------------
CARTESIAN COORDINATES (ANGSTROEM)
---------------------------------
  C     -1.504200    0.421970    0.000000
  S      0.000400   -0.551710    0.000000
  C      1.504070    0.422650    0.000000
  H     -2.104540    0.185700    0.906800
  H     -1.256760    1.507100    0.000000
  H     -2.104540    0.185700   -0.906800
  H      1.535640    1.066620    0.907200
  H      2.388960   -0.252220   -0.000000
  H      1.535650    1.066640   -0.907190

----------------------------
CARTESIAN COORDINATES (A.U.)
----------------------------
  NO LB      ZA    FRAG     MASS         X           Y           Z
   0 C     6.0000    0    12.011   -2.842526    0.797408    0.000000
   1 S    16.0000    0    32.060    0.000756   -1.042581    0.000000
   2 C     6.0000    0    12.011    2.842280    0.798693    0.000000
   3 H     1.0000    0     1.008   -3.977004    0.350922    1.713604
   4 H     1.0000    0     1.008   -2.374932    2.848006    0.000000
   5 H     1.0000    0     1.008   -3.977004    0.350922   -1.713604
   6 H     1.0000    0     1.008    2.901939    2.015620    1.714360
   7 H     1.0000    0     1.008    4.514480   -0.476627   -0.000000
   8 H     1.0000    0     1.008    2.901958    2.015657   -1.714341

--------------------------------
INTERNAL COORDINATES (ANGSTROEM)
--------------------------------
 C      0   0   0     0.000000000000     0.00000000     0.00000000
 S      1   0   0     1.792170165581     0.00000000     0.00000000
 C      2   1   0     1.791759157504   114.14891233     0.00000000
 H      1   2   3     1.112887176896   109.72713944   239.95359152
 H      1   2   3     1.112984128593   110.06293089     0.00000000
 H      1   2   3     1.112887176896   109.72713944   120.04640848
 H      3   2   1     1.112971637464   109.78247463    60.02421490
 H      3   2   1     1.112870086308   109.72594138   180.00000000
 H      3   2   1     1.112975342314   109.78346017   299.97659616

---------------------------
INTERNAL COORDINATES (A.U.)
---------------------------
 C      0   0   0     0.000000000000     0.00000000     0.00000000
 S      1   0   0     3.386710798333     0.00000000     0.00000000
 C      2   1   0     3.385934105628   114.14891233     0.00000000
 H      1   2   3     2.103051982287   109.72713944   239.95359152
 H      1   2   3     2.103235194442   110.06293089     0.00000000
 H      1   2   3     2.103051982287   109.72713944   120.04640848
 H      3   2   1     2.103211589629   109.78247463    60.02421490
 H      3   2   1     2.103019685756   109.72594138   180.00000000
 H      3   2   1     2.103218590782   109.78346017   299.97659616

---------------------
BASIS SET INFORMATION
---------------------
There are 3 groups of distinct atoms

 Group   1 Type C   : 17s4p1d contracted to 3s2p1d pattern {881/31/1}
 Group   2 Type S   : 34s15p1d contracted to 4s3p1d pattern {1111111/771/1}
 Group   3 Type H   : 4s1p contracted to 2s1p pattern {31/1}

Atom   0C    basis set group =>   1
Atom   1S    basis set group =>   2
Atom   2C    basis set group =>   1
Atom   3H    basis set group =>   3
Atom   4H    basis set group =>   3
Atom   5H    basis set group =>   3
Atom   6H    basis set group =>   3
Atom   7H    basis set group =>   3
Atom   8H    basis set group =>   3
-------------------------------
AUXILIARY BASIS SET INFORMATION
-------------------------------
There are 3 groups of distinct atoms

 Group   1 Type C   : 7s5p4d2f contracted to 7s5p4d2f pattern {1111111/11111/1111/11}
 Group   2 Type S   : 9s7p5d3f contracted to 9s7p5d3f pattern {111111111/1111111/11111/111}
 Group   3 Type H   : 3s2p1d contracted to 3s2p1d pattern {111/11/1}

Atom   0C    basis set group =>   1
Atom   1S    basis set group =>   2
Atom   2C    basis set group =>   1
Atom   3H    basis set group =>   3
Atom   4H    basis set group =>   3
Atom   5H    basis set group =>   3
Atom   6H    basis set group =>   3
Atom   7H    basis set group =>   3
Atom   8H    basis set group =>   3
-------------------------------
AUXILIARY BASIS SET INFORMATION
-------------------------------
There are 3 groups of distinct atoms

 Group   1 Type C   : 10s7p5d2f1g contracted to 10s7p5d2f1g pattern {1111111111/1111111/11111/11/1}
 Group   2 Type S   : 13s11p9d3f1g contracted to 13s11p9d3f1g pattern {1111111111111/11111111111/111111111/111/1}
 Group   3 Type H   : 4s3p2d1f contracted to 4s3p2d1f pattern {1111/111/11/1}

Atom   0C    basis set group =>   1
Atom   1S    basis set group =>   2
Atom   2C    basis set group =>   1
Atom   3H    basis set group =>   3
Atom   4H    basis set group =>   3
Atom   5H    basis set group =>   3
Atom   6H    basis set group =>   3
Atom   7H    basis set group =>   3
Atom   8H    basis set group =>   3

Checking for AutoStart:
The File: dimethilsulfide_ecl.gbw exists
Trying to determine its content:
     ... Fine, the file contains calculation information
     ... Fine, the calculation information was read
     ... Fine, the file contains a basis set
     ... Fine, the basis set was read
     ... Fine, the file contains a geometry
     ... Fine, the geometry was read
     ... Fine, the file contains a set of orbitals
     ... Fine, the orbitals can be read
     => possible old guess file was deleted
     => GBW file was renamed to GES file
     => GES file is set as startup file
     => Guess is set to MORead
     ... now leaving AutoStart



           ************************************************************
           *        Program running with 4 parallel MPI-processes     *
           *              working on a common directory               *
           ************************************************************
------------------------------------------------------------------------------
                           ORCA GTO INTEGRAL CALCULATION
                           -- RI-GTO INTEGRALS CHOSEN --
------------------------------------------------------------------------------

                         BASIS SET STATISTICS AND STARTUP INFO

Gaussian basis set:
 # of primitive gaussian shells          ...  124
 # of primitive gaussian functions       ...  194
 # of contracted shells                  ...   38
 # of contracted basis functions         ...   76
 Highest angular momentum                ...    2
 Maximum contraction depth               ...   11
Auxiliary gaussian basis set:
 # of primitive gaussian shells          ...  147
 # of primitive gaussian functions       ...  459
 # of contracted shells                  ...  147
 # of contracted aux-basis functions     ...  459
 Highest angular momentum                ...    4
 Maximum contraction depth               ...    1
Ratio of auxiliary to basis functions    ...  6.04
Integral package used                  ... LIBINT
 One Electron integrals                  ... done
 Ordering auxiliary basis shells         ... done
 Integral threshhold             Thresh  ...  2.500e-11
 Primitive cut-off               TCut    ...  2.500e-12
 Pre-screening matrix                    ... done
 Shell pair data                         ... 
 Ordering of the shell pairs             ... done (   0.000 sec) 741 of 741 pairs
 Determination of significant pairs      ... done (   0.000 sec)
 Creation of shell pair data             ... done (   0.000 sec)
 Storage of shell pair data              ... done (   0.001 sec)
 Shell pair data done in (   0.002 sec)
 Computing two index integrals           ... done
 Cholesky decomposition of the V-matrix  ... done


Timings:
 Total evaluation time                   ...  57.686 sec (  0.961 min)
 One electron matrix time                ...  57.388 sec (  0.956 min) = 99.5%
 Schwartz matrix evaluation time         ...   0.164 sec (  0.003 min) =  0.3%
 Two index repulsion integral time       ...   0.076 sec (  0.001 min) =  0.1%
 Cholesky decomposition of V             ...   0.031 sec (  0.001 min) =  0.1%
 Three index repulsion integral time     ...   0.000 sec (  0.000 min) =  0.0%



           ************************************************************
           *        Program running with 4 parallel MPI-processes     *
           *              working on a common directory               *
           ************************************************************
-------------------------------------------------------------------------------
                                 ORCA SCF
-------------------------------------------------------------------------------

------------
SCF SETTINGS
------------
Hamiltonian:
 Ab initio Hamiltonian  Method          .... Hartree-Fock(GTOs)
 RI-approximation to the Coulomb term is turned on
   Number of auxiliary basis functions  .... 459
   RI-JK (J+K treated both via RI)      .... on


General Settings:
 Integral files         IntName         .... dimethilsulfide_ecl
 Hartree-Fock type      HFTyp           .... RHF
 Total Charge           Charge          ....    0
 Multiplicity           Mult            ....    1
 Number of Electrons    NEL             ....   34
 Basis Dimension        Dim             ....   76
 Nuclear Repulsion      ENuc            ....    109.7843447023 Eh

Convergence Acceleration:
 DIIS                   CNVDIIS         .... off
 Newton-Raphson         CNVNR           .... off
 SOSCF                  CNVSOSCF        .... on
   Start iteration      SOSCFMaxIt      ....   150
   Startup grad/error   SOSCFStart      ....  0.003300
 Level Shifting         CNVShift        .... on
   Level shift para.    LevelShift      ....    0.2000
   Turn off err/grad.   ShiftErr        ....    0.1000
 Zerner damping         CNVZerner       .... off
 Static damping         CNVDamp         .... off
 Fernandez-Rico         CNVRico         .... off

SCF Procedure:
 Maximum # iterations   MaxIter         ....   300
 SCF integral mode      SCFMode         .... Direct
   Integral package                     .... LIBINT
 Reset frequency        DirectResetFreq ....    20
 Integral Threshold     Thresh          ....  2.500e-11 Eh
 Primitive CutOff       TCut            ....  2.500e-12 Eh

Convergence Tolerance:
 Convergence Check Mode ConvCheckMode   .... Total+1el-Energy
 Convergence forced     ConvForced      .... 1
 Energy Change          TolE            ....  1.000e-08 Eh
 1-El. energy change                    ....  1.000e-05 Eh
 Orbital Gradient       TolG            ....  1.000e-05
 Orbital Rotation angle TolX            ....  1.000e-05


Diagonalization of the overlap matrix:
Smallest eigenvalue                        ... 9.660e-03
Time for diagonalization                   ...    0.004 sec
Threshold for overlap eigenvalues          ... 1.000e-08
Number of eigenvalues below threshold      ... 0
Time for construction of square roots      ...    0.023 sec
Total time needed                          ...    0.027 sec

---------------------
INITIAL GUESS: MOREAD
---------------------
Guess MOs are being read from file: dimethilsulfide_ecl.ges
Input Geometry matches current geometry (good)
Atom 0: N(Shells)= 6 and 10 - projection required
Input basis set needs projection
NBasis(read)= 178
NBasis(calc)= 76
Basis set overlap was calculated
Using GuessMode=FMatrix for the initial guess
C*T matrix was formed
Effective Fockian was calculated
Effective Fockian was diagonalized
Initial density was built
                      ------------------
                      INITIAL GUESS DONE (   0.0 sec)
                      ------------------
--------------
SCF ITERATIONS
--------------
ITER       Energy         Delta-E        Max-DP      RMS-DP      [F,P]   Gradient Norm
                             ****Turning on KDIIS(Cayley)****
  0   -476.7445363637   0.000000000000 0.00086744  0.00006540  0.0058589   0.005549801
  1   -476.7446331121  -0.000096748459 0.00189406  0.00014060  0.0053894   0.005070020
  2   -476.7448159177  -0.000182805594 0.00311332  0.00023088  0.0043160   0.004063319
                      *** Initiating the SOSCF procedure ***
                           *** Shutting down KDIIS ***
                      *** Re-Reading the Fockian *** 
                      *** Removing any level shift *** 
ITER      Energy       Delta-E        Grad      Rot      Max-DP    RMS-DP
  3   -476.74502960  -0.0002136783  0.002592  0.002592  0.004754  0.000350
  4   -476.74515042  -0.0001208257  0.000019  0.000031  0.000054  0.000002
  5   -476.74515043  -0.0000000079  0.000008  0.000026  0.000041  0.000002
                  ***Gradient check signals convergence***
              ***Rediagonalizing the Fockian in SOSCF/NRSCF***

               *****************************************************
               *                     SUCCESS                       *
               *           SCF CONVERGED AFTER   6 CYCLES          *
               *****************************************************


----------------
TOTAL SCF ENERGY
----------------

Total Energy       :         -476.74515043 Eh          -12972.89507 eV

Components:
Nuclear Repulsion  :          109.78434470 Eh            2987.38390 eV
Electronic Energy  :         -586.52949513 Eh          -15960.27897 eV
One Electron Energy:         -873.84764641 Eh          -23778.60334 eV
Two Electron Energy:          287.31815128 Eh            7818.32437 eV

Virial components:
Potential Energy   :         -953.31398560 Eh          -25940.99236 eV
Kinetic Energy     :          476.56883517 Eh           12968.09729 eV
Virial Ratio       :            2.00036997


---------------
SCF CONVERGENCE
---------------

  Last Energy change         ...   -2.0090e-09  Tolerance :   1.0000e-08
  Last MAX-Density change    ...    3.2030e-06  Tolerance :   1.0000e-07
  Last RMS-Density change    ...    1.5303e-07  Tolerance :   5.0000e-09
  Last Orbital Gradient      ...    1.6940e-06  Tolerance :   1.0000e-05
  Last Orbital Rotation      ...    1.4182e-06  Tolerance :   1.0000e-05

             **** THE GBW FILE WAS UPDATED (dimethilsulfide_ecl.gbw) ****
             **** DENSITY FILE WAS UPDATED (dimethilsulfide_ecl.scfp.tmp) ****
             **** ENERGY FILE WAS UPDATED (dimethilsulfide_ecl.en.tmp) ****
----------------
ORBITAL ENERGIES
----------------

  NO   OCC          E(Eh)            E(eV) 
   0   2.0000     -91.928750     -2501.5085 
   1   2.0000     -11.265461      -306.5488 
   2   2.0000     -11.264936      -306.5345 
   3   2.0000      -8.933581      -243.0951 
   4   2.0000      -6.615950      -180.0292 
   5   2.0000      -6.614000      -179.9761 
   6   2.0000      -6.611972      -179.9209 
   7   2.0000      -1.056140       -28.7390 
   8   2.0000      -0.953113       -25.9355 
   9   2.0000      -0.796007       -21.6605 
  10   2.0000      -0.595267       -16.1981 
  11   2.0000      -0.591181       -16.0869 
  12   2.0000      -0.571777       -15.5588 
  13   2.0000      -0.563746       -15.3403 
  14   2.0000      -0.514792       -14.0082 
  15   2.0000      -0.403957       -10.9922 
  16   2.0000      -0.325014        -8.8441 
  17   0.0000       0.171905         4.6778 
  18   0.0000       0.195979         5.3329 
  19   0.0000       0.216136         5.8813 
  20   0.0000       0.245018         6.6673 
  21   0.0000       0.246987         6.7208 
  22   0.0000       0.257349         7.0028 
  23   0.0000       0.263638         7.1740 
  24   0.0000       0.320493         8.7210 
  25   0.0000       0.516981        14.0678 
  26   0.0000       0.571342        15.5470 
  27   0.0000       0.582284        15.8447 
  28   0.0000       0.612027        16.6541 
  29   0.0000       0.636488        17.3197 
  30   0.0000       0.700655        19.0658 
  31   0.0000       0.728308        19.8183 
  32   0.0000       0.739073        20.1112 
  33   0.0000       0.805906        21.9298 
  34   0.0000       0.821558        22.3557 
  35   0.0000       0.842576        22.9277 
  36   0.0000       0.859917        23.3995 
  37   0.0000       0.866693        23.5839 
  38   0.0000       0.867283        23.6000 
  39   0.0000       0.889057        24.1925 
  40   0.0000       0.892081        24.2748 
  41   0.0000       0.900524        24.5045 
  42   0.0000       0.912226        24.8229 
  43   0.0000       0.936914        25.4947 
  44   0.0000       1.168425        31.7945 
  45   0.0000       1.257098        34.2074 
  46   0.0000       1.293554        35.1994 
  47   0.0000       1.331197        36.2237 
  48   0.0000       1.341702        36.5096 
  49   0.0000       1.358061        36.9547 
  50   0.0000       1.393953        37.9314 
  51   0.0000       1.535061        41.7711 
  52   0.0000       1.649979        44.8982 
  53   0.0000       1.650630        44.9159 
  54   0.0000       1.843779        50.1718 
  55   0.0000       1.861888        50.6646 
  56   0.0000       1.865506        50.7630 
  57   0.0000       1.867558        50.8188 
  58   0.0000       1.891575        51.4724 
  59   0.0000       1.964449        53.4554 
  60   0.0000       1.977173        53.8016 
  61   0.0000       1.985326        54.0235 
  62   0.0000       1.996675        54.3323 
  63   0.0000       2.057235        55.9802 
  64   0.0000       2.195691        59.7478 
  65   0.0000       2.207030        60.0563 
  66   0.0000       2.387732        64.9735 
  67   0.0000       2.394228        65.1503 
  68   0.0000       2.395346        65.1807 
  69   0.0000       2.417561        65.7852 
  70   0.0000       2.673439        72.7480 
  71   0.0000       2.703011        73.5527 
  72   0.0000       2.729363        74.2697 
  73   0.0000       2.730107        74.2900 
  74   0.0000       2.740658        74.5771 
  75   0.0000       2.755319        74.9760 

                    ********************************
                    * MULLIKEN POPULATION ANALYSIS *
                    ********************************

-----------------------
MULLIKEN ATOMIC CHARGES
-----------------------
   0 C :   -0.164704
   1 S :   -0.118050
   2 C :   -0.160508
   3 H :    0.079774
   4 H :    0.064202
   5 H :    0.079774
   6 H :    0.066342
   7 H :    0.086828
   8 H :    0.066342
Sum of atomic charges:   -0.0000000

--------------------------------
MULLIKEN REDUCED ORBITAL CHARGES
--------------------------------
  0 C s       :     3.145291  s :     3.145291
      pz      :     1.037846  p :     2.960734
      px      :     0.930581
      py      :     0.992306
      dz2     :     0.011204  d :     0.058680
      dxz     :     0.020361
      dyz     :     0.004304
      dx2y2   :     0.010817
      dxy     :     0.011995
  1 S s       :     5.811094  s :     5.811094
      pz      :     3.956385  p :    10.191822
      px      :     2.868815
      py      :     3.366622
      dz2     :     0.018781  d :     0.115134
      dxz     :     0.011287
      dyz     :     0.005010
      dx2y2   :     0.019679
      dxy     :     0.060377
  2 C s       :     3.144810  s :     3.144810
      pz      :     1.028022  p :     2.956371
      px      :     0.925531
      py      :     1.002818
      dz2     :     0.011605  d :     0.059327
      dxz     :     0.006722
      dyz     :     0.018403
      dx2y2   :     0.006597
      dxy     :     0.016001
  3 H s       :     0.889962  s :     0.889962
      pz      :     0.016165  p :     0.030263
      px      :     0.008776
      py      :     0.005322
  4 H s       :     0.904972  s :     0.904972
      pz      :     0.005134  p :     0.030826
      px      :     0.005091
      py      :     0.020600
  5 H s       :     0.889962  s :     0.889962
      pz      :     0.016165  p :     0.030263
      px      :     0.008776
      py      :     0.005322
  6 H s       :     0.903501  s :     0.903501
      pz      :     0.016032  p :     0.030157
      px      :     0.004066
      py      :     0.010060
  7 H s       :     0.882406  s :     0.882406
      pz      :     0.005156  p :     0.030766
      px      :     0.015278
      py      :     0.010332
  8 H s       :     0.903501  s :     0.903501
      pz      :     0.016032  p :     0.030157
      px      :     0.004066
      py      :     0.010060


                     *******************************
                     * LOEWDIN POPULATION ANALYSIS *
                     *******************************

----------------------
LOEWDIN ATOMIC CHARGES
----------------------
   0 C :   -0.172848
   1 S :    0.183104
   2 C :   -0.171756
   3 H :    0.028518
   4 H :    0.025541
   5 H :    0.028518
   6 H :    0.019467
   7 H :    0.039989
   8 H :    0.019468

-------------------------------
LOEWDIN REDUCED ORBITAL CHARGES
-------------------------------
  0 C s       :     2.868925  s :     2.868925
      pz      :     1.082941  p :     3.151743
      px      :     1.011617
      py      :     1.057185
      dz2     :     0.028839  d :     0.152180
      dxz     :     0.054409
      dyz     :     0.009216
      dx2y2   :     0.029513
      dxy     :     0.030203
  1 S s       :     5.457554  s :     5.457554
      pz      :     3.886239  p :    10.214767
      px      :     2.917478
      py      :     3.411049
      dz2     :     0.022986  d :     0.144575
      dxz     :     0.014319
      dyz     :     0.006303
      dx2y2   :     0.029007
      dxy     :     0.071961
  2 C s       :     2.869027  s :     2.869027
      pz      :     1.080140  p :     3.148709
      px      :     1.007302
      py      :     1.061268
      dz2     :     0.029142  d :     0.154020
      dxz     :     0.014486
      dyz     :     0.050460
      dx2y2   :     0.016527
      dxy     :     0.043405
  3 H s       :     0.892715  s :     0.892715
      pz      :     0.038424  p :     0.078767
      px      :     0.024629
      py      :     0.015714
  4 H s       :     0.895451  s :     0.895451
      pz      :     0.014788  p :     0.079008
      px      :     0.015537
      py      :     0.048684
  5 H s       :     0.892715  s :     0.892715
      pz      :     0.038424  p :     0.078767
      px      :     0.024629
      py      :     0.015714
  6 H s       :     0.901680  s :     0.901680
      pz      :     0.037873  p :     0.078853
      px      :     0.014290
      py      :     0.026689
  7 H s       :     0.881734  s :     0.881734
      pz      :     0.014600  p :     0.078277
      px      :     0.037590
      py      :     0.026087
  8 H s       :     0.901681  s :     0.901681
      pz      :     0.037872  p :     0.078852
      px      :     0.014290
      py      :     0.026690


                      *****************************
                      * MAYER POPULATION ANALYSIS *
                      *****************************

  NA   - Mulliken gross atomic population
  ZA   - Total nuclear charge
  QA   - Mulliken gross atomic charge
  VA   - Mayer's total valence
  BVA  - Mayer's bonded valence
  FA   - Mayer's free valence

  ATOM       NA         ZA         QA         VA         BVA        FA
  0 C      6.1647     6.0000    -0.1647     3.9387     3.9387     0.0000
  1 S     16.1180    16.0000    -0.1180     1.9888     1.9888    -0.0000
  2 C      6.1605     6.0000    -0.1605     3.9504     3.9504    -0.0000
  3 H      0.9202     1.0000     0.0798     0.9665     0.9665    -0.0000
  4 H      0.9358     1.0000     0.0642     0.9778     0.9778    -0.0000
  5 H      0.9202     1.0000     0.0798     0.9665     0.9665     0.0000
  6 H      0.9337     1.0000     0.0663     0.9634     0.9634    -0.0000
  7 H      0.9132     1.0000     0.0868     0.9767     0.9767    -0.0000
  8 H      0.9337     1.0000     0.0663     0.9634     0.9634     0.0000

  Mayer bond orders larger than 0.1
B(  0-C ,  1-S ) :   0.9916 B(  0-C ,  3-H ) :   0.9778 B(  0-C ,  4-H ) :   0.9792 
B(  0-C ,  5-H ) :   0.9778 B(  1-S ,  2-C ) :   1.0078 B(  2-C ,  6-H ) :   0.9763 
B(  2-C ,  7-H ) :   0.9773 B(  2-C ,  8-H ) :   0.9763 

-------
TIMINGS
-------

Total SCF time: 0 days 0 hours 0 min 1 sec 

Total time                  ....       1.730 sec
Sum of individual times     ....       1.579 sec  ( 91.3%)

Fock matrix formation       ....       1.516 sec  ( 87.7%)
Diagonalization             ....       0.023 sec  (  1.3%)
Density matrix formation    ....       0.001 sec  (  0.0%)
Population analysis         ....       0.007 sec  (  0.4%)
Initial guess               ....       0.014 sec  (  0.8%)
Orbital Transformation      ....       0.000 sec  (  0.0%)
Orbital Orthonormalization  ....       0.000 sec  (  0.0%)
DIIS solution               ....       0.000 sec  (  0.0%)
SOSCF solution              ....       0.017 sec  (  1.0%)


           ************************************************************
           *        Program running with 4 parallel MPI-processes     *
           *              working on a common directory               *
           ************************************************************


------------------------------------------------------------------------------- 
                              ORCA-MATRIX DRIVEN CI                            
------------------------------------------------------------------------------- 


Wavefunction type
-----------------
Correlation treatment                      ...      CCSD     
Single excitations                         ... ON
Orbital optimization                       ... OFF
Calculation of Z vector                    ... OFF
Calculation of Brueckner orbitals          ... OFF
Perturbative triple excitations            ... ON
Calculation of F12 correction              ... OFF
Frozen core treatment                      ... chemical core (14 el)
Reference Wavefunction                     ... RHF
  Internal Orbitals:     7 ...   16 ( 10 MO's/ 20 electrons)
  Virtual  Orbitals:    17 ...   75 ( 59 MO's              )
Number of AO's                             ...     76
Number of electrons                        ...     34
Number of correlated electrons             ...     20

Algorithmic settings
--------------------
Integral transformation                    ... All integrals via the RI transformation
K(C) Formation                             ... RI-DLPNO
   PNO-Integral Storage                    ... ON DISK
   PNO occupation number cut-off           ... 1.000e-07
   Singles PNO occupation number cut-off   ... 3.000e-09
   PNO Mulliken prescreening cut-off       ... 1.000e-03
   Domain cut-off (Mulliken population)    ... 1.000e-03
   PNO Normalization                       ...    1
Maximum number of iterations               ...        50
Convergence tolerance (max. residuum)      ... 1.000e-05
Level shift for amplitude update           ... 2.000e-01
Maximum number of DIIS vectors             ...         7
DIIS turned on at iteration                ...         0
Damping before turning on DIIS             ...     0.500
Damping after turning on DIIS              ...     0.000
Pair specific amplitude update             ... OFF
Natural orbital iterations                 ... OFF
Perturbative natural orbital generation    ... OFF
Printlevel                                 ... 2

Singles Fock matrix elements calculated using PNOs.

Memory handling:
----------------
Maximum memory for working arrays          ...   8000 MB
Data storage in matrix containers          ... UNCOMPRESSED
Data type for integral storage             ... DOUBLE
In-Core Storage of quantities:
   Amplitudes+Sigma Vector      ... NO
   J+K operators                ... NO
   DIIS vectors                 ... NO
   3-external integrals         ... NO
   4-external integrals         ... NO

Localization treatment:
-----------------------
Localization option                        ...    6
Localization threshhold                    ... -1.0e+00
Using relative localization threshhold     ... 1.0e-08
Neglect threshold for strong pairs         ... 1.000e-05 Eh
Prescreening threshold for very weak pairs ... 1.000e-07 Eh

Initializing the integral package          ... done
Localizing the valence orbitals
------------------------------------------------------------------------------
                           ORCA ORBITAL LOCALIZATION
------------------------------------------------------------------------------

Input orbitals are from                  ... dimethilsulfide_ecl.proc0.gbw
Output orbitals are to                   ... dimethilsulfide_ecl.proc0.loc
Max. number of iterations                ... 128
Localizations seeded randomly            ... off
Convergence tolerance                    ... 1.000e-06
Using relative localization threshhold   ... 1.000e-08
Treshold for strong local MOs            ... 9.500e-01
Treshold for bond MOs                    ... 8.500e-01
Operator                                 ... 0
Orbital range for localization           ... 7 to 16
Localization criterion                   ... FOSTER-BOYS (AUGMENTED HESSIAN)
Doing the dipole integrals     ... o.k.
Initial value of the localization sum :    72.070234
ITERATION   0 : L=   87.6906124939 DL=  1.56e+01 (AVERGE_DL)=    0.5891685030 
ITERATION   1 : L=   89.6275136537 DL=  1.94e+00 (AVERGE_DL)=    0.2074662575 
ITERATION   2 : L=   89.6444088219 DL=  1.69e-02 (AVERGE_DL)=    0.0193764853 
ITERATION   3 : L=   89.6444428894 DL=  3.41e-05 (AVERGE_DL)=    0.0008700899 
ITERATION   4 : L=   89.6444432841 DL=  3.95e-07 (AVERGE_DL)=    0.0000936544 
LOCALIZATION SUM CONVERGED

------------------------------------------------------
AUGMENTED HESSIAN OPTIMIZATION OF FOSTER-BOYS ORBITALS
------------------------------------------------------

Spin operator:           0
Orbital window:          7 to 16
Number of iterations:    128
Gradient tolerance:      1.000e-06
Number of pairs:         45
Davidson threshold:      2000
Diagonalization method:  LAPACK
Iter:    0   L: 89.6444432841   Grad. norm: 4.786724e-04
   *** Likely close to a maximum now. ***
       Augmented Hessian eigenvalues:  2.07e-08 -6.19e+00 -1.44e+01 -1.71e+01 ... 
Iter:    1   L: 89.6444432944   Grad. norm: 6.792567e-09
LOCALIZATION HAS CONVERGED.

Eigenvalues of the Hessian:
  0 -6.187e+00
  1 -1.440e+01
  2 -1.710e+01
  3 -1.725e+01
  4 -1.734e+01
  5 -1.926e+01
  6 -1.971e+01
  7 -1.995e+01
  8 -2.017e+01
  9 -2.035e+01
    ...


------------------------------------------------------------------------------- 
                    LOCALIZED MOLECULAR ORBITAL COMPOSITIONS                   
------------------------------------------------------------------------------- 

The Mulliken populations for each LMO on each atom are computed
The LMO`s will be ordered according to atom index and type
  (A) Strongly localized MO`s have populations of >=0.950 on one atom
  (B) Two center bond orbitals have populations of >=0.850 on two atoms
  (C) Other MO`s are considered to be `delocalized`

FOUND  -   2 strongly local MO`s
       -   8 two center bond MO`s
       -   0 significantly delocalized MO`s

Rather strongly localized orbitals:
MO   8:   1S  -   1.015630
MO   7:   1S  -   1.015630
Bond-like localized orbitals:
MO  16:   8H  -   0.486464  and   2C  -   0.530838
MO  15:   7H  -   0.469109  and   2C  -   0.541055
MO  14:   6H  -   0.486465  and   2C  -   0.530838
MO  13:   5H  -   0.477249  and   0C  -   0.539315
MO  12:   4H  -   0.482712  and   0C  -   0.528876
MO  11:   3H  -   0.477250  and   0C  -   0.539315
MO  10:   2C  -   0.494526  and   1S  -   0.532873
MO   9:   1S  -   0.530169  and   0C  -   0.496084
Localized MO's were stored in: dimethilsulfide_ecl.proc0.loc

Localizing the core orbitals
------------------------------------------------------------------------------
                           ORCA ORBITAL LOCALIZATION
------------------------------------------------------------------------------

Input orbitals are from                  ... dimethilsulfide_ecl.proc0.loc
Output orbitals are to                   ... dimethilsulfide_ecl.proc0.loc
Max. number of iterations                ... 128
Localizations seeded randomly            ... off
Convergence tolerance                    ... 1.000e-06
Using relative localization threshhold   ... 1.000e-08
Treshold for strong local MOs            ... 9.500e-01
Treshold for bond MOs                    ... 8.500e-01
Operator                                 ... 0
Orbital range for localization           ... 0 to 6
Localization criterion                   ... FOSTER-BOYS (AUGMENTED HESSIAN)
Doing the dipole integrals     ... o.k.
Initial value of the localization sum :    22.865195
ITERATION   0 : L=   23.0659324869 DL=  2.01e-01 (AVERGE_DL)=    0.0977698903 
ITERATION   1 : L=   23.0715093342 DL=  5.58e-03 (AVERGE_DL)=    0.0162961392 
ITERATION   2 : L=   23.0718532214 DL=  3.44e-04 (AVERGE_DL)=    0.0040466755 
ITERATION   3 : L=   23.0718744085 DL=  2.12e-05 (AVERGE_DL)=    0.0010044441 
ITERATION   4 : L=   23.0718758600 DL=  1.45e-06 (AVERGE_DL)=    0.0002629072 
ITERATION   5 : L=   23.0718759713 DL=  1.11e-07 (AVERGE_DL)=    0.0000727979 
LOCALIZATION SUM CONVERGED

------------------------------------------------------
AUGMENTED HESSIAN OPTIMIZATION OF FOSTER-BOYS ORBITALS
------------------------------------------------------

Spin operator:           0
Orbital window:          0 to 6
Number of iterations:    128
Gradient tolerance:      1.000e-06
Number of pairs:         21
Davidson threshold:      2000
Diagonalization method:  LAPACK
Iter:    0   L: 23.0718759713   Grad. norm: 1.437948e-04
   *** Detected a saddle point. ***
       Augmented Hessian eigenvalues:  1.08e-04  9.93e-05  2.66e-05 -7.06e-05 ... 
Iter:    1   L: 23.0718848995   Grad. norm: 1.371296e-04
Iter:    2   L: 23.0718892840   Grad. norm: 1.291117e-04
Iter:    3   L: 23.0719017212   Grad. norm: 1.067015e-04
Iter:    4   L: 23.0719105141   Grad. norm: 8.828076e-05
Iter:    5   L: 23.0719193295   Grad. norm: 6.356195e-05
Iter:    6   L: 23.0719255049   Grad. norm: 3.968569e-05
Iter:    7   L: 23.0719285430   Grad. norm: 1.649142e-05
Iter:    8   L: 23.0719287978   Grad. norm: 1.294135e-06
   *** Likely close to a maximum now. ***
       Augmented Hessian eigenvalues:  1.87e-10 -6.48e-05 -1.57e-04 -2.49e-04 ... 
Iter:    9   L: 23.0719287979   Grad. norm: 5.559230e-10
LOCALIZATION HAS CONVERGED.

Eigenvalues of the Hessian:
  0 -6.477e-05
  1 -1.570e-04
  2 -2.486e-04
  3 -1.375e-01
  4 -1.378e-01
  5 -1.382e-01
  6 -4.134e-01
  7 -5.504e-01
  8 -5.513e-01
  9 -5.523e-01
    ...


------------------------------------------------------------------------------- 
                    LOCALIZED MOLECULAR ORBITAL COMPOSITIONS                   
------------------------------------------------------------------------------- 

The Mulliken populations for each LMO on each atom are computed
The LMO`s will be ordered according to atom index and type
  (A) Strongly localized MO`s have populations of >=0.950 on one atom
  (B) Two center bond orbitals have populations of >=0.850 on two atoms
  (C) Other MO`s are considered to be `delocalized`

FOUND  -   7 strongly local MO`s
       -   0 two center bond MO`s
       -   0 significantly delocalized MO`s

Rather strongly localized orbitals:
MO   6:   2C  -   0.999603
MO   5:   1S  -   0.999651
MO   4:   1S  -   0.999998
MO   3:   1S  -   0.999810
MO   2:   1S  -   0.999668
MO   1:   1S  -   0.999810
MO   0:   0C  -   0.999598
Localized MO's were stored in: dimethilsulfide_ecl.proc0.loc

Warning: internal orbitals are localized - no re-canonicalization of internal orbitals

--------------------------
CLOSED-SHELL FOCK OPERATOR
--------------------------

RI-JK section for the Fock operator:
  RHF full Fock operator         ... done
  RHF frozen core Fock operator  ... done
Time needed for Fock operator              ...            0.557 sec
Reference energy                           ...   -476.745150432

--------------
DLPNO SETTINGS (2015 fully linear scaling implementation)
--------------

TCutMKN:           1.000e-03
TCutPAO:           1.000e-03
TCutPNO:           1.000e-07
TCutPNOSingles:    3.000e-09
TCutEN:            9.700e-01
TCutPAOExt:        1.000e-01
TCutPairs:         1.000e-05
TCutPre:           1.000e-07
TCutOSV:           1.000e-06
TCutDOij:          1.000e-05
TCutDO:            5.000e-03
TCutC:             1.000e-04
TCutCPAO:          1.000e-03
TCutCMO:           1.000e-03
TScaleDOMP2PreScr: 2.000e+00
TScaleMKNMP2PreScr:1.000e+01
TScalePNOMP2PreScr:1.000e+00
PAO overlap thresh 1.000e-08
Using PNOs for Singles Fock computation
Use new domains
Use fully linear algorithm
TCutTNO:           1.000e-09
TCutMP2Pairs:      1.000e-06
TCutDOStrong:      2.000e-03
TCutMKNStrong:     1.000e-02
TCutMKNWeak:       1.000e-01
TCutDOWeak:        4.000e-03
NTCutTNO:          1

--------------------------
Calculating differential overlap integrals ... ok
--------------------------
ELECTRON PAIR PRESCREENING
--------------------------

Dipole-based pair screening          .... used

   TCutDOij = 1.000000e-05
   TCutPre  = 1.000000e-07
   .... Finished loop over pairs
Total time spent in the prescreening                  ...     0.000 sec
sum of pair energies estimated for screened out pairs ...       0.000000000000 Eh
Thresholds for map construction and integral transformation for crude MP2:
   TCutMKN                    ...     1.0e-02
   TCutDO                     ...     1.0e-02
   TCutPairs                  ...     1.0e-05
   TCutPNO_CrudeMP2           ...     1.0e-07
   TCutPNOSingles_CrudeMP2    ...     3.0e-09
--------------------------------
LOCAL RI TRANSFORMATION (IAVPAO)
--------------------------------

Orbital window:       7 to 16
Number of PAOs:      76
Basis functions:     76 (38 shells)
Aux. functions:     272 (96 shells)

Processing maps (0.0 sec)
Average map sizes:
   Aux shells -> MOs              10.0
   Aux shells -> PAOs             76.0
   MOs        -> AO shells        38.0
   PAOs       -> AO shells        38.0

Calculating integrals (0.3 sec, 1.580 MB)
Sorting integrals (0.0 sec, 1.577 MB)
Total time for the integral transformation: 0.3 sec
--------------------------------
INITIAL GUESS AND PNO GENERATION
--------------------------------

PNO truncation parameters                   .... 
    PAOOverlapThresh   =        1.000e-08

    TCutPairs          =        1.000e-05
    TCutPNO            =        1.000e-07
    TCutPNOSingles     =        3.000e-09
    TCutMP2Pairs       =        1.000e-06
    TCutMKN            =        1.000e-02
    TCutDO             =        1.000e-02

Pair selection                          .... not used
Type of local MP2 treatment                 .... semi-local MP2
Strategy for PNO selection                  .... occupation number selection
Pair density normalization                  .... MP2 norm
Spin component scaling                      .... not used

   .... Finished loop over pairs
Making pair pair interaction lists          ... done

                       ===========================
                         55 OF   55 PAIRS ARE KEPT CCSD PAIRS
                          0 OF   55 PAIRS ARE KEPT MP2 PAIRS FOR (T)
                          0 OF   55 PAIRS ARE SKIPPED
                       ===========================

Total time spent in the initial guess                 ...     0.043 sec
SL-MP2 correlation energy (all non-screened pairs)    ...      -0.416501129496 Eh

Initial PNO correlation energy                        ...      -0.416424525526 Eh
sum of pair energies prescreened and skipped MP2 pairs...       0.000000000000 Eh
sum of pair energies of crude MP2 skipped pairs only  ...       0.000000000000 Eh
sum of MP2 pair energies for pairs that were not kept ...       0.000000000000 Eh
sum of PNO error estimates for the kept pairs         ...      -0.000076603970 Eh
                                                          --------------------
sum of all corrections                                         -0.000076603970
Initial total correlation energy                               -0.416501129496
Thresholds for map construction and integral transformation for fine MP2 and CCSD(T) calculation:
   TCutMKN   ...     1.0e-03
   TCutDO    ...     5.0e-03
   TCutPairs ...     1.0e-05
   TCutCMO   ...     1.0e-03
   TCutCPAO  ...     1.0e-03

Thresholds for map construction and integral transformation for strong Triples:
   TCutMKN   ...     1.0e-02
   TCutDO    ...     1.0e-02
   TCutCMO   ...     1.0e-03
   TCutCPAO  ...     1.0e-03

Thresholds for map construction and integral transformation for weak Triples:
   TCutMKN   ...     1.0e-01
   TCutDO    ...     2.0e-02
   TCutCMO   ...     1.0e-03
   TCutCPAO  ...     1.0e-03

--------------------------------
LOCAL RI TRANSFORMATION (IAVPAO)
--------------------------------

Orbital window:       7 to 16
Number of PAOs:      76
Basis functions:     76 (38 shells)
Aux. functions:     272 (96 shells)

Processing maps (0.0 sec)
Average map sizes:
   Aux shells -> MOs              10.0
   Aux shells -> PAOs             76.0
   MOs        -> AO shells        38.0
   PAOs       -> AO shells        38.0

Calculating integrals (0.3 sec, 1.580 MB)
Sorting integrals (0.0 sec, 1.577 MB)
Total time for the integral transformation: 0.3 sec
--------------------------------
INITIAL GUESS AND PNO GENERATION
--------------------------------

PNO truncation parameters                   .... 
    ScaleTCutPNO       =        1.000e-02
    PAOOverlapThresh   =        1.000e-08

    TCutPairs          =        1.000e-05
    TCutPNO            =        1.000e-07
    TCutPNOSingles     =        3.000e-09
    TCutMP2Pairs       =        1.000e-06
    TCutMKN            =        1.000e-03
    TCutDO             =        5.000e-03

Pair selection                          .... not used
Type of local MP2 treatment                 .... full local PMP2
Strategy for PNO selection                  .... occupation number selection
Pair density normalization                  .... MP2 norm
Spin component scaling                      .... not used

PASS-1: Formation of initial guess LMP2 amplitudes
Initial amplitudes guess done. Entering LMP2 iteration loop:
   Max. no of iterations          ...  50
   Energy convergence tolerance   ...    1.0e-07
   Residual convergence tolerance ...    5.0e-07
   Fock matrix cutoff             ...    1.0e-05 Eh
   DIIS convergence acceleration parameters:
        Max # vectors in DIIS     ... 7
        Start iteration of DIIS   ... 0
        Levelshift                ... 2.000e-01
        Damping factor 1          ... 5.000e-01
        Damping factor 2          ... 1.000e+00
   L-MP2 PNO cut-off              ...   1.0e-09
   L-MP2 PNO cut-off (core)       ...   1.0e-11
                           *** Turning on DIIS ***
LMP2-Iter=   0:  ELMP2= -0.424784471361  DE=   8.0e-03 RMAX=   5.6e-03
LMP2-Iter=   1:  ELMP2= -0.429570324729  DE=   4.8e-03 RMAX=   2.6e-03
LMP2-Iter=   2:  ELMP2= -0.430389708474  DE=   8.2e-04 RMAX=   3.5e-04
LMP2-Iter=   3:  ELMP2= -0.430462569748  DE=   7.3e-05 RMAX=   1.3e-04
LMP2-Iter=   4:  ELMP2= -0.430464956169  DE=   2.4e-06 RMAX=   1.8e-05
LMP2-Iter=   5:  ELMP2= -0.430464068383  DE=   8.9e-07 RMAX=   5.4e-06
LMP2-Iter=   6:  ELMP2= -0.430463986124  DE=   8.2e-08 RMAX=   8.1e-07
LMP2-Iter=   7:  ELMP2= -0.430463988628  DE=   2.5e-09 RMAX=   1.8e-07
LMP2-Iter=   8:  ELMP2= -0.430463991382  DE=   2.8e-09 RMAX=   2.9e-08 => CONVERGED
PASS-2: Formation of Pair natural orbitals
   .... Finished loop over pairs

 PNO Occupation Number Statistics: 
  | Av. % of trace(Dij) retained        ...  99.887250831124
  | sigma^2 in % of trace(Dij) retained ...   4.32e-02
  | Av. % of trace(Di) retained         ...  99.999942043378
  | sigma^2 in % of trace(Di) retained  ...   9.44e-10
 Distributions of % trace(Dij) recovered:
  |       >= 99.9  ...    44 ( 80.0 % of all pairs)
  |   [99.0, 99.9) ...    11 ( 20.0 % of all pairs)
 Distributions of % trace(Di) recovered :
  |       >= 99.9  ...    10 (100.0 % of all I-pairs )

Making pair pair interaction lists          ... done

                       ===========================
                         55 OF   55 PAIRS ARE KEPT
                       ===========================

Total time spent in the initial guess                 ...     0.392 sec
L-MP2 correlation energy (all non-screened pairs)     ...      -0.430463991382 Eh
L-MP2 PNO error correction                            ...      -0.000000557079 Eh
                                                          --------------------
Initial total L-MP2 energy (non-screened pairs)       ...      -0.430464548461 Eh

Initial PNO correlation energy                        ...      -0.430393595446 Eh
sum of pair energies estimated for screened out pairs ...       0.000000000000 Eh
sum of MP2 pair energies for pairs that were not kept ...       0.000000000000 Eh
sum of PNO error estimates for the kept pairs         ...      -0.000070953015 Eh
                                                          --------------------
sum of all corrections                                         -0.000070953015
Initial total correlation energy                               -0.430464548461
Thresholds for map construction and integral transformation for fine MP2 and CCSD(T) calculation:
   TCutMKN   ...     1.0e-03
   TCutDO    ...     5.0e-03
   TCutPairs ...     1.0e-05
   TCutCMO   ...     1.0e-03
   TCutCPAO  ...     1.0e-03

Time for aux screen maps:            0.000
Time for maps after fine MP2:            0.002
-----------------------------
LOCAL RI TRANSFORMATION (IJV)
-----------------------------

Orbital window:       7 to 16
Basis functions:     76 (38 shells)
Aux. functions:     272 (96 shells)

Processing maps (0.0 sec)
Average map sizes:
   Aux shells -> MOs(i)           10.0
   Aux shells -> MOs(j)           10.0
   MOs        -> AO shells        38.0

Calculating integrals (0.3 sec, 0.211 MB)
Sorting integrals (0.0 sec, 0.208 MB)
Total time for the integral transformation: 0.3 sec
--------------------------------
LOCAL RI TRANSFORMATION (VABPAO)
--------------------------------

Number of PAOs:      76
Basis functions:     76 (38 shells)
Aux. functions:     272 (96 shells)

Processing maps (0.0 sec)
Average map sizes:
   Aux shells -> PAOs             76.0
   PAOs       -> AO shells        38.0

Calculating integrals (0.3 sec, 21.246 MB)
Finished


-------------------------------------
Pair Pair Term precalculation with     
RI-(ij|mn) and (im|jn) transformation  
ON THE FLY                             
-------------------------------------

   IBatch   1 (of   1)              ... done (    1.135 sec)
Total EXT                           ...           1.159 sec

---------------------
RI-PNO TRANSFORMATION
---------------------

Total Number of PNOs                   ...  1600
Average number of PNOs per pair        ...    29
Maximal number of PNOs per pair        ...    38
   #pairs with  1 -  5 PNOs   :    0
   #pairs with  6 - 10 PNOs   :    0
   #pairs with 11 - 15 PNOs   :    0
   #pairs with 16 - 20 PNOs   :    6
   #pairs with 21 - 25 PNOs   :    4
   #pairs with 26 - 30 PNOs   :   21
   #pairs with 31 - 35 PNOs   :   23
   #pairs with 36 - 40 PNOs   :    1
   #pairs with 41 - 45 PNOs   :    0
   #pairs with 46 - 50 PNOs   :    0

Generation of (ij|ab)[P] integrals            ... on
Generation of (ia|bc)[P],(ja|bc)[P] integrals ... on
Storage of 3 and 4 external integrals         ... on
Generation of ALL (ka|bc)[P] integrals        ... on
Keep RI integrals in memory                   ... off

Ibatch:  1 (of  1)
Starting 2-4 index PNO integral generation ... done

Timings:
Total PNO integral transformation time     ...          0.496 sec
Size of the 3-external file                ...        11 MB
Size of the 4-external file                ...        45 MB
Size of the IKJL file                      ...         0 MB
Size of the all 3-external file            ...        57 MB
Size of the 1-external file                ...         0 MB

Making pair/pair overlap matrices          ... done (    0.050 sec)
Size of the pair overlap file              ... 15 MB
Redoing the guess amplitudes               ... done (    0.001 sec)

-------------------------
FINAL STARTUP INFORMATION
-------------------------

E(0)                                       ...   -476.745150432
E(L-MP2)                                   ...     -0.430464548
E(L-MP2) including corrections             ...     -0.430464548
Initial E(tot)                             ...   -477.175614980
<T|T>                                      ...      0.149260222
Number of pairs included                   ... 55
Total number of pairs                      ... 55

------------------------------------------------
                  RHF COUPLED CLUSTER ITERATIONS
------------------------------------------------

Number of PNO amplitudes to be optimized   ...        47714
Number of non-PNO amplitudes               ...       191455
Untruncated number of regular amplitudes   ...       191455

Iter       E(tot)           E(Corr)          Delta-E          Residual     Time
  0   -477.161858593     -0.416637209      0.013827340      0.020303304    0.50
                           *** Turning on DIIS ***
  1   -477.202381666     -0.457160281     -0.040523072      0.007751571    0.51
  2   -477.220541967     -0.475320582     -0.018160301      0.001911924    0.50
  3   -477.222884387     -0.477663002     -0.002342420      0.000953967    0.51
  4   -477.223380489     -0.478159104     -0.000496102      0.000214371    0.51
  5   -477.223475041     -0.478253656     -0.000094552      0.000068891    0.50
  6   -477.223494297     -0.478272913     -0.000019256      0.000028678    0.52
  7   -477.223496690     -0.478275305     -0.000002392      0.000017089    0.52
  8   -477.223496925     -0.478275540     -0.000000235      0.000007710    0.51
               --- The Coupled-Cluster iterations have converged ---

----------------------
COUPLED CLUSTER ENERGY
----------------------

E(0)                                       ...   -476.745150432
E(CORR)(strong-pairs)                      ...     -0.478275540
E(CORR)(weak-pairs)                        ...     -0.000070953
E(CORR)(corrected)                         ...     -0.478346493
E(TOT)                                     ...   -477.223496925
Singles Norm <S|S>**1/2                    ...      0.033783106  
T1 diagnostic                              ...      0.007554132  

------------------
LARGEST AMPLITUDES
------------------
  15-> 25  15-> 25       0.042837
   9-> 17   9-> 17       0.042691
  12-> 25  12-> 25       0.042024
  10-> 17  10-> 17       0.040514
  15-> 17  15-> 17       0.034757
  15-> 17  15-> 25       0.031093
  15-> 25  15-> 17       0.031093
  11-> 26  11-> 26       0.030611
  13-> 26  13-> 26       0.030611
  12-> 17  12-> 17       0.030379
   7-> 18   7-> 18       0.028557
   8-> 18   8-> 18       0.028557
  12-> 25  12-> 17       0.028034
  12-> 17  12-> 25       0.028034
  11-> 17  11-> 17       0.027700
  13-> 17  13-> 17       0.027700


-------------------------------------------
DLPNO BASED TRIPLES CORRECTION
-------------------------------------------

Singles multiplier          ...  1.000000
TCutTNO                     ... 1.000e-09
TCutMP2Pairs                ... 1.000e-06
TCutDOStrong                ... 1.000e-02
TCutMKNStrong               ... 1.000e-02
TCutDOWeak                  ... 2.000e-02
TCutMKNWeak                 ... 1.000e-01

Fragment selection                          .... not used
Number of Triples that are to be computed   ...       210

 . . . . . . . . .
10% done  
20% done  
30% done  
40% done  
50% done  
60% done  
70% done  
80% done  
90% done               (      1.711 sec)
Triples timings:
Total time for T0               ...     1.838 sec
Total time for Iterative (T)    ...     0.000 sec
Total time of overall (T)       ...     1.838 sec

Triples List generation         ...     0.000 sec
TNO generation                  ...     0.126 sec
Pair density generation         ...     0.001 sec
Look up tables                  ...     0.000 sec
Generating 3-index integrals    ...     0.622 sec
  Make 4-ind.int. from 3-ind.int...     0.436 sec
  Projecting amplitudes (D + S) ...     0.115 sec
  Downprojecting integrals      ...     0.000 sec
  Energy contr. (sum over a,b,c)...     0.178 sec
Fitting ET(->0)                 ...     0.000 sec

Everything after 3-index        ...     1.089 sec

Timing details:
 TNO integrals                  ...     1.004 sec
   Reading 3-index integrals    ...     0.005 sec
   Sorting integrals            ...     0.236 sec
       Sorting integrals 1      ...     0.000 sec
       Sorting integrals 2      ...     0.045 sec
       Sorting integrals 3      ...     0.015 sec
       Sorting integrals 4      ...     0.002 sec
       Sorting integrals 5      ...     0.004 sec
       Sorting integrals 6      ...     0.171 sec
   Calculating local VM**-1/2   ...     0.015 sec
   Orthogonal. integrals        ...     0.028 sec
   Multipl. 3-index integrals   ...     0.721 sec
   All concerning IRIab (w/TNO) ...     0.199 sec

 Calculate W0/W1                ...     0.358 sec
 W 3-ext contribution           ...     0.205 sec
 W 3-int contribution           ...     0.051 sec
 Sorting W                      ...     0.090 sec

 V exchange contribution        ...     0.071 sec

 Timings for Triples without generation
     of 3-index integrals       ...     1.089 sec
       0 weak pairs             ...     1.089 sec
       1 weak pair              ...     0.000 sec
       2 weak pairs             ...     0.000 sec
       3 weak pairs             ...     0.000 sec
  Extra time for extrapolation  ...     0.000 sec

Number of Triples   (0, 1, 2, 3 weak pairs; overall):    210       0       0       0  (   210)
Number of Atoms     (0, 1, 2, 3 weak pairs; overall):    8.9     0.0     0.0     0.0  (     9)
Number of PAOs      (0, 1, 2, 3 weak pairs; overall):   75.6     0.0     0.0     0.0  (    76)
Number of AuxFcns   (0, 1, 2, 3 weak pairs; overall):  164.8     0.0     0.0     0.0  (   272)
Number of TNOs      (0, 1, 2, 3 weak pairs         ):   50.2     0.0     0.0     0.0
Aver. Number of NTNO, Atoms, PAOs, AuxFcns / Triples:    210    50.2     8.9    75.6   164.8

Triples Correction (T)                     ...     -0.013008091
Final correlation energy                   ...     -0.491354584
E(CCSD)                                    ...   -477.223496925
E(CCSD(T))                                 ...   -477.236505016


Maximum memory used throughout the entire calculation: 522.0 MB


------------------------------------------------------------------------------- 
                                     TIMINGS                                   
------------------------------------------------------------------------------- 


Total execution time                   ...       11.222 sec

Localization of occupied MO's          ...        0.392 sec (  3.5%)
Fock Matrix Formation                  ...        0.557 sec (  5.0%)
Global overlap, Fock, MKN matrices     ...        0.112 sec (  1.0%)
Differential overlap integrals         ...        0.040 sec (  0.4%)
Organizing maps                        ...        0.005 sec (  0.0%)
RI 3-index integral generations        ...        1.140 sec ( 10.2%)
RI-PNO integral transformation         ...        1.884 sec ( 16.8%)
Initial Guess                          ...        0.441 sec (  3.9%)
DIIS Solver                            ...        0.117 sec (  1.0%)
State Vector Update                    ...        0.003 sec (  0.0%)
Sigma-vector construction              ...        4.557 sec ( 40.6%)
  <D|H|D>(0-ext)                       ...        0.179 sec (  3.9% of sigma)
  <D|H|D>(2-ext Fock)                  ...        0.004 sec (  0.1% of sigma)
  <D|H|D>(2-ext)                       ...        0.383 sec (  8.4% of sigma)
  <D|H|D>(4-ext)                       ...        0.548 sec ( 12.0% of sigma)
  <D|H|D>(4-ext-corr)                  ...        2.310 sec ( 50.7% of sigma)
  CCSD doubles correction              ...        0.025 sec (  0.6% of sigma)
  <S|H|S>                              ...        0.049 sec (  1.1% of sigma)
  <S|H|D>(1-ext)                       ...        0.035 sec (  0.8% of sigma)
  <D|H|S>(1-ext)                       ...        0.002 sec (  0.0% of sigma)
  <S|H|D>(3-ext)                       ...        0.042 sec (  0.9% of sigma)
  Fock-dressing                        ...        0.541 sec ( 11.9% of sigma)
  Singles amplitudes                   ...        0.029 sec (  0.6% of sigma)
  (ik|jl)-dressing                     ...        0.129 sec (  2.8% of sigma)
  (ij|ab),(ia|jb)-dressing             ...        0.258 sec (  5.7% of sigma)
  Pair energies                        ...        0.002 sec (  0.0% of sigma)
Total Time for computing (T)           ...        1.843 sec ( 16.4% of ALL)


-------------------------   --------------------
FINAL SINGLE POINT ENERGY      -477.236505016006
-------------------------   --------------------


                            ***************************************
                            *     ORCA property calculations      *
                            ***************************************

                                    ---------------------
                                    Active property flags
                                    ---------------------
   (+) Dipole Moment


------------------------------------------------------------------------------
                       ORCA ELECTRIC PROPERTIES CALCULATION
------------------------------------------------------------------------------

Dipole Moment Calculation                       ... on
Quadrupole Moment Calculation                   ... off
Polarizability Calculation                      ... off
GBWName                                         ... dimethilsulfide_ecl.gbw
Electron density file                           ... dimethilsulfide_ecl.scfp.tmp
The origin for moment calculation is the CENTER OF MASS  = ( 0.000171, -0.114165  0.000000)

-------------
DIPOLE MOMENT
-------------
                                X             Y             Z
Electronic contribution:      0.01288      -3.18971      -0.00001
Nuclear contribution   :     -0.00576       3.88140       0.00001
                        -----------------------------------------
Total Dipole Moment    :      0.00712       0.69169       0.00000
                        -----------------------------------------
Magnitude (a.u.)       :      0.69173
Magnitude (Debye)      :      1.75824



--------------------
Rotational spectrum 
--------------------
 
Rotational constants in cm-1:     0.771528     0.214221     0.179511 
Rotational constants in MHz : 23129.830555  6422.176696  5381.602023 

 Dipole components along the rotational axes: 
x,y,z [a.u.] :     0.007151     0.691693     0.000003 
x,y,z [Debye]:     0.018177     1.758144     0.000007 

 

Timings for individual modules:

Sum of individual times         ...       71.012 sec (=   1.184 min)
GTO integral calculation        ...       57.804 sec (=   0.963 min)  81.4 %
SCF iterations                  ...        1.852 sec (=   0.031 min)   2.6 %
MDCI module                     ...       11.355 sec (=   0.189 min)  16.0 %
                             ****ORCA TERMINATED NORMALLY****
TOTAL RUN TIME: 0 days 0 hours 1 minutes 11 seconds 246 msec
dimethilsulfide_ecl.gbw -> /home1/pantazis/klk/VDZ/Energy_barrier/dimethilsulfide_ecl.gbw
dimethilsulfide_ecl.ges -> /home1/pantazis/klk/VDZ/Energy_barrier/dimethilsulfide_ecl.ges
dimethilsulfide_ecl.job -> /home1/pantazis/klk/VDZ/Energy_barrier/dimethilsulfide_ecl.job
dimethilsulfide_ecl.loc -> /home1/pantazis/klk/VDZ/Energy_barrier/dimethilsulfide_ecl.loc
dimethilsulfide_ecl.nodes -> /home1/pantazis/klk/VDZ/Energy_barrier/dimethilsulfide_ecl.nodes
dimethilsulfide_ecl.prop -> /home1/pantazis/klk/VDZ/Energy_barrier/dimethilsulfide_ecl.prop
dimethilsulfide_ecl_property.txt -> /home1/pantazis/klk/VDZ/Energy_barrier/dimethilsulfide_ecl_property.txt
dimethilsulfide_ecl.xyz -> /home1/pantazis/klk/VDZ/Energy_barrier/dimethilsulfide_ecl.xyz
cp: cannot stat dimethilsulfide_ecl.asa.inp: No such file or directory
