! Job execution by suborca V 6.07 on ZEUS !
Job started from zeus1, running /scratch/pantazis/Et_P_Me2_a__ZdSYq7/orca/orca copied from /opt/orca on zeussn126 in /scratch/pantazis/Et_P_Me2_a__ZdSYq7
Job execution start: Sat Jun 29 11:53:39 CEST 2019
Shared library path: /scratch/pantazis/Et_P_Me2_a__ZdSYq7/orca:/opt/openmpi_1.10.2/lib:/opt/intel/mkl/lib/intel64:/opt/intel/lib/intel64:
PBS Job ID is: 158937.icqc
izeussn126
izeussn126
izeussn126
izeussn126

                                 *****************
                                 * O   R   C   A *
                                 *****************

           --- An Ab Initio, DFT and Semiempirical electronic structure package ---

                  #######################################################
                  #                        -***-                        #
                  #          Department of theory and spectroscopy      #
                  #               Directorship: Frank Neese             #
                  #        Max Planck Institute fuer Kohlenforschung    #
                  #                Kaiser Wilhelm Platz 1               #
                  #                 D-45470 Muelheim/Ruhr               #
                  #                      Germany                        #
                  #                                                     #
                  #                  All rights reserved                #
                  #                        -***-                        #
                  #######################################################


                         Program Version 4.1.x  -  STABLE  -
                                (SVN: $Rev: 14094$)
                ($Date: 2019-06-14 15:01:15 +0200 (Fri, 14 Jun 2019) $)

                         (BUILD: $Sun Jun 23 06:18:31 CEST 2019$)


 With contributions from (in alphabetic order):
   Daniel Aravena         : Magnetic Properties
   Michael Atanasov       : Ab Initio Ligand Field Theory
   Alexander A. Auer      : GIAO ZORA
   Ute Becker             : Parallelization
   Giovanni Bistoni       : ED, Open-shell LED
   Martin Brehm           : Molecular dynamics
   Dmytro Bykov           : SCF Hessian
   Vijay G. Chilkuri      : MRCI spin determinant printing
   Dipayan Datta          : RHF DLPNO-CCSD density
   Achintya Kumar Dutta   : EOM-CC, STEOM-CC
   Dmitry Ganyushin       : Spin-Orbit,Spin-Spin,Magnetic field MRCI
   Miquel Garcia          : C-PCM Hessian
   Yang Guo               : DLPNO-NEVPT2, CIM, IAO-localization
   Andreas Hansen         : Spin unrestricted coupled pair/coupled cluster methods
   Benjamin Helmich-Paris : CASSCF linear response (MC-RPA)
   Lee Huntington         : MR-EOM, pCC
   Robert Izsak           : Overlap fitted RIJCOSX, COSX-SCS-MP3, EOM
   Christian Kollmar      : KDIIS, OOCD, Brueckner-CCSD(T), CCSD density
   Simone Kossmann        : Meta GGA functionals, TD-DFT gradient, OOMP2, MP2 Hessian
   Martin Krupicka        : AUTO-CI
   Lucas Lang             : DCDCAS
   Dagmar Lenk            : GEPOL surface, SMD
   Dimitrios Liakos       : Extrapolation schemes; parallel MDCI
   Dimitrios Manganas     : ROCIS; embedding schemes
   Dimitrios Pantazis     : SARC Basis sets
   Taras Petrenko         : DFT Hessian,TD-DFT gradient, ASA, ECA, R-Raman, ABS, FL, XAS/XES, NRVS
   Peter Pinski           : DLPNO-MP2, DLPNO-MP2 Gradient
   Christoph Reimann      : Effective Core Potentials
   Marius Retegan         : Local ZFS, SOC
   Christoph Riplinger    : Optimizer, TS searches, QM/MM, DLPNO-CCSD(T), (RO)-DLPNO pert. Triples
   Tobias Risthaus        : Range-separated hybrids, TD-DFT gradient, RPA, STAB
   Michael Roemelt        : Restricted open shell CIS
   Masaaki Saitow         : Open-shell DLPNO
   Barbara Sandhoefer     : DKH picture change effects
   Avijit Sen             : IP-ROCIS
   Kantharuban Sivalingam : CASSCF convergence, NEVPT2, FIC-MRCI
   Bernardo de Souza      : ESD, SOC TD-DFT
   Georgi Stoychev        : AutoAux, RI-MP2 NMR
   Willem Van den Heuvel  : Paramagnetic NMR
   Boris Wezisla          : Elementary symmetry handling
   Frank Wennmohs         : Technical directorship


 We gratefully acknowledge several colleagues who have allowed us to
 interface, adapt or use parts of their codes:
   Stefan Grimme, W. Hujo, H. Kruse,             : VdW corrections, initial TS optimization,
                  C. Bannwarth                     DFT functionals, gCP, sTDA/sTD-DF
   Ed Valeev                                     : LibInt (2-el integral package), F12 methods
   Garnet Chan, S. Sharma, J. Yang, R. Olivares  : DMRG
   Ulf Ekstrom                                   : XCFun DFT Library
   Mihaly Kallay                                 : mrcc  (arbitrary order and MRCC methods)
   Andreas Klamt, Michael Diedenhofen            : otool_cosmo (COSMO solvation model)
   Jiri Pittner, Ondrej Demel                    : Mk-CCSD
   Frank Weinhold                                : gennbo (NPA and NBO analysis)
   Christopher J. Cramer and Donald G. Truhlar   : smd solvation model
   Lars Goerigk                                  : TD-DFT with DH, B97 family of functionals
   V. Asgeirsson, H. Jonsson                     : NEB implementation
   FAccTs GmbH                                   : IRC, NEB, NEB-TS, Multilevel


 Your calculation uses the libint2 library for the computation of 2-el integrals
 For citations please refer to: http://libint.valeyev.net

 This ORCA versions uses:
   CBLAS   interface :  Fast vector & matrix operations
   LAPACKE interface :  Fast linear algebra routines
   SCALAPACK package :  Parallel linear algebra routines




***************************************
The coordinates will be read from file: Et_P_Me2_a.xyz
***************************************


----- Orbital basis set information -----
Your calculation utilizes the basis: cc-pVDZ 
       H, B-Ne : Obtained from the ccRepo (grant-hill.group.shef.ac.uk/ccrepo) Feb. 2017
                 T. H. Dunning, Jr., J. Chem. Phys. 90, 1007 (1989)
            He : Obtained from the ccRepo (grant-hill.group.shef.ac.uk/ccrepo) Feb. 2017
                 D. E. Woon, T. H. Dunning, Jr., J. Chem. Phys. 100, 2975 (1994)
  Li-Be, Na-Mg : Obtained from the ccRepo (grant-hill.group.shef.ac.uk/ccrepo) Feb. 2017
                 B. P. Prascher, D. E. Woon, K. A. Peterson, T. H. Dunning, Jr., A. K. Wilson, Theor. Chem. Acc. 128, 69 (2011)
         Al-Ar : Obtained from the ccRepo (grant-hill.group.shef.ac.uk/ccrepo) Feb. 2017
                 D. E. Woon, T. H. Dunning, Jr., J. Chem. Phys. 98, 1358 (1993)
            Ca : Obtained from the Peterson Research Group Website (tyr0.chem.wsu.edu/~kipeters) Feb. 2017
                 J. Koput, K. A. Peterson, J. Phys. Chem. 106, 9595 (2002)
         Sc-Zn : Obtained from the ccRepo (grant-hill.group.shef.ac.uk/ccrepo) Feb. 2017
                 N. B. Balabanov, K. A. Peterson, J. Chem. Phys. 123, 064107 (2005)
                 N. B. Balabanov, K. A. Peterson, J. Chem. Phys. 125, 074110 (2006)
         Ga-Kr : Obtained from the ccRepo (grant-hill.group.shef.ac.uk/ccrepo) Feb. 2017
                 A. K. Wilson, D. E. Woon, K. A. Peterson, T. H. Dunning, Jr., J. Chem. Phys. 110, 7667 (1999)

----- AuxC basis set information -----
Your calculation utilizes the auxiliary basis: cc-pVDZ/C 
  H-He, B, Ne, Al-Ar, Ga-Br : Obtained from the EMSL Basis Set Exchange (bse.pnl.gov) Feb. 2017
                              F. Weigend, A. Kohn, C. Hattig, J. Chem. Phys. 116, 3175 (2002)
               Li-Be, Na-Mg : Obtained from the EMSL Basis Set Exchange (bse.pnl.gov) Feb. 2017
                              C. Haettig, Phys. Chem. Chem. Phys. 7, 59 (2005)
                        C-F : Obtained from the EMSL Basis Set Exchange (bse.pnl.gov) Feb. 2017
                              C. Haettig, Phys. Chem. Chem. Phys. 7, 59 (2005)
                              F. Weigend, A. Kohn, C. Hattig, J. Chem. Phys. 116, 3175 (2002)
                         Kr : Obtained from the TURBOMOLE 7.0 basis set library
                              F. Weigend, A. Kohn, C. Hattig, J. Chem. Phys. 116, 3175 (2002)
                              S function revised in Sep. 2009

----- AuxJK basis set information -----
Your calculation utilizes the auxiliary basis: cc-pVTZ/JK 
  H, B-F, Al-Cl, Ga-Br : Obtained from the TURBOMOLE 7.0 basis set library

================================================================================
                                        WARNINGS
                       Please study these warnings very carefully!
================================================================================


WARNING: MDCI localization with Augmented Hessian Foster-Boys
  ===> : Switching off randomization!

WARNING: Post HF methods need fully converged wavefunctions
  ===> : Setting SCFConvForced true
         You can overwrite this default with %scf ConvForced false 


INFO   : the flag for use of LIBINT has been found!

================================================================================
                                       INPUT FILE
================================================================================
NAME = Et_P_Me2_a.inp
|  1> ! RHF DLPNO-CCSD(T) cc-pVDZ RIJK cc-pVTZ/JK cc-pVDZ/C
|  2> ! KDIIS SOSCF TightSCF TightPNO
|  3> 
|  4> %pal nprocs 4 end
|  5> 
|  6> %maxcore 8000
|  7> 
|  8> %scf maxiter 300
|  9>      shift shift 0.2 erroff 0.1 end
| 10> end
| 11> 
| 12> * xyzfile 0 1 Et_P_Me2_a.xyz 
| 13> 
| 14> 
| 15>                          ****END OF INPUT****
================================================================================

                       ****************************
                       * Single Point Calculation *
                       ****************************

---------------------------------
CARTESIAN COORDINATES (ANGSTROEM)
---------------------------------
  C      1.017070    1.427050    0.496510
  P      0.669810   -0.000000   -0.657170
  C      1.017120   -1.427020    0.496530
  C     -1.209700   -0.000030   -0.708000
  C     -2.002520   -0.000000    0.605070
  H     -1.484850    0.873580   -1.313200
  H     -1.484830   -0.873680   -1.313150
  H     -3.080250   -0.000060    0.403070
  H     -1.786220   -0.884540    1.212980
  H     -1.786300    0.884610    1.212900
  H      2.097730    1.491710    0.659270
  H      0.698630    2.363470    0.026670
  H      0.525300    1.334950    1.471140
  H      2.097760   -1.491500    0.659450
  H      0.525180   -1.335020    1.471090
  H      0.698900   -2.363480    0.026630

----------------------------
CARTESIAN COORDINATES (A.U.)
----------------------------
  NO LB      ZA    FRAG     MASS         X           Y           Z
   0 C     6.0000    0    12.011    1.921984    2.696734    0.938268
   1 P    15.0000    0    30.974    1.265757   -0.000000   -1.241871
   2 C     6.0000    0    12.011    1.922078   -2.696677    0.938306
   3 C     6.0000    0    12.011   -2.286002   -0.000057   -1.337926
   4 C     6.0000    0    12.011   -3.784214   -0.000000    1.143417
   5 H     1.0000    0     1.008   -2.805960    1.650827   -2.481588
   6 H     1.0000    0     1.008   -2.805922   -1.651016   -2.481494
   7 H     1.0000    0     1.008   -5.820829   -0.000113    0.761692
   8 H     1.0000    0     1.008   -3.375467   -1.671538    2.292200
   9 H     1.0000    0     1.008   -3.375618    1.671671    2.292049
  10 H     1.0000    0     1.008    3.964135    2.818923    1.245840
  11 H     1.0000    0     1.008    1.320219    4.466311    0.050399
  12 H     1.0000    0     1.008    0.992673    2.522690    2.780052
  13 H     1.0000    0     1.008    3.964192   -2.818527    1.246180
  14 H     1.0000    0     1.008    0.992446   -2.522822    2.779957
  15 H     1.0000    0     1.008    1.320730   -4.466330    0.050323

--------------------------------
INTERNAL COORDINATES (ANGSTROEM)
--------------------------------
 C      0   0   0     0.000000000000     0.00000000     0.00000000
 P      1   0   0     1.867629179602     0.00000000     0.00000000
 C      2   1   0     1.867627909007    99.65208130     0.00000000
 C      2   1   3     1.880197205056   101.68788905   104.18336055
 C      4   2   1     1.533856700673   119.57406059   308.71629518
 H      4   2   1     1.097801892237   105.39289241    73.08607370
 H      4   2   1     1.097801148615   105.39325683   184.34604946
 H      5   4   2     1.096497130183   110.50737069   180.00207941
 H      5   4   2     1.094875001861   111.91199337   299.44571993
 H      5   4   2     1.094871339199   111.91249169    60.55779882
 H      1   2   3     1.094759228689   108.69376688    72.29354183
 H      1   2   3     1.095005057340   109.53077902   189.45229068
 H      1   2   3     1.095547251286   113.69364151   311.45875822
 H      3   2   1     1.094752669054   108.69319008   287.71819380
 H      3   2   1     1.095552900229   113.69354632    48.55292877
 H      3   2   1     1.095001054794   109.53118985   170.55892487

---------------------------
INTERNAL COORDINATES (A.U.)
---------------------------
 C      0   0   0     0.000000000000     0.00000000     0.00000000
 P      1   0   0     3.529307669167     0.00000000     0.00000000
 C      2   1   0     3.529305268090    99.65208130     0.00000000
 C      2   1   3     3.553057795320   101.68788905   104.18336055
 C      4   2   1     2.898569092952   119.57406059   308.71629518
 H      4   2   1     2.074544925629   105.39289241    73.08607370
 H      4   2   1     2.074543520386   105.39325683   184.34604946
 H      5   4   2     2.072079282677   110.50737069   180.00207941
 H      5   4   2     2.069013904394   111.91199337   299.44571993
 H      5   4   2     2.069006982966   111.91249169    60.55779882
 H      1   2   3     2.068795124805   108.69376688    72.29354183
 H      1   2   3     2.069259673631   109.53077902   189.45229068
 H      1   2   3     2.070284271700   113.69364151   311.45875822
 H      3   2   1     2.068782728891   108.69319008   287.71819380
 H      3   2   1     2.070294946656   113.69354632    48.55292877
 H      3   2   1     2.069252109916   109.53118985   170.55892487

---------------------
BASIS SET INFORMATION
---------------------
There are 3 groups of distinct atoms

 Group   1 Type C   : 17s4p1d contracted to 3s2p1d pattern {881/31/1}
 Group   2 Type P   : 34s15p1d contracted to 4s3p1d pattern {1111111/771/1}
 Group   3 Type H   : 4s1p contracted to 2s1p pattern {31/1}

Atom   0C    basis set group =>   1
Atom   1P    basis set group =>   2
Atom   2C    basis set group =>   1
Atom   3C    basis set group =>   1
Atom   4C    basis set group =>   1
Atom   5H    basis set group =>   3
Atom   6H    basis set group =>   3
Atom   7H    basis set group =>   3
Atom   8H    basis set group =>   3
Atom   9H    basis set group =>   3
Atom  10H    basis set group =>   3
Atom  11H    basis set group =>   3
Atom  12H    basis set group =>   3
Atom  13H    basis set group =>   3
Atom  14H    basis set group =>   3
Atom  15H    basis set group =>   3
-------------------------------
AUXILIARY BASIS SET INFORMATION
-------------------------------
There are 3 groups of distinct atoms

 Group   1 Type C   : 7s5p4d2f contracted to 7s5p4d2f pattern {1111111/11111/1111/11}
 Group   2 Type P   : 9s7p5d3f contracted to 9s7p5d3f pattern {111111111/1111111/11111/111}
 Group   3 Type H   : 3s2p1d contracted to 3s2p1d pattern {111/11/1}

Atom   0C    basis set group =>   1
Atom   1P    basis set group =>   2
Atom   2C    basis set group =>   1
Atom   3C    basis set group =>   1
Atom   4C    basis set group =>   1
Atom   5H    basis set group =>   3
Atom   6H    basis set group =>   3
Atom   7H    basis set group =>   3
Atom   8H    basis set group =>   3
Atom   9H    basis set group =>   3
Atom  10H    basis set group =>   3
Atom  11H    basis set group =>   3
Atom  12H    basis set group =>   3
Atom  13H    basis set group =>   3
Atom  14H    basis set group =>   3
Atom  15H    basis set group =>   3
-------------------------------
AUXILIARY BASIS SET INFORMATION
-------------------------------
There are 3 groups of distinct atoms

 Group   1 Type C   : 10s7p5d2f1g contracted to 10s7p5d2f1g pattern {1111111111/1111111/11111/11/1}
 Group   2 Type P   : 13s11p9d3f1g contracted to 13s11p9d3f1g pattern {1111111111111/11111111111/111111111/111/1}
 Group   3 Type H   : 4s3p2d1f contracted to 4s3p2d1f pattern {1111/111/11/1}

Atom   0C    basis set group =>   1
Atom   1P    basis set group =>   2
Atom   2C    basis set group =>   1
Atom   3C    basis set group =>   1
Atom   4C    basis set group =>   1
Atom   5H    basis set group =>   3
Atom   6H    basis set group =>   3
Atom   7H    basis set group =>   3
Atom   8H    basis set group =>   3
Atom   9H    basis set group =>   3
Atom  10H    basis set group =>   3
Atom  11H    basis set group =>   3
Atom  12H    basis set group =>   3
Atom  13H    basis set group =>   3
Atom  14H    basis set group =>   3
Atom  15H    basis set group =>   3

Checking for AutoStart:
The File: Et_P_Me2_a.gbw exists
Trying to determine its content:
     ... Fine, the file contains calculation information
     ... Fine, the calculation information was read
     ... Fine, the file contains a basis set
     ... Fine, the basis set was read
     ... Fine, the file contains a geometry
     ... Fine, the geometry was read
     ... Fine, the file contains a set of orbitals
     ... Fine, the orbitals can be read
     => possible old guess file was deleted
     => GBW file was renamed to GES file
     => GES file is set as startup file
     => Guess is set to MORead
     ... now leaving AutoStart



           ************************************************************
           *        Program running with 4 parallel MPI-processes     *
           *              working on a common directory               *
           ************************************************************
------------------------------------------------------------------------------
                           ORCA GTO INTEGRAL CALCULATION
                           -- RI-GTO INTEGRALS CHOSEN --
------------------------------------------------------------------------------

                         BASIS SET STATISTICS AND STARTUP INFO

Gaussian basis set:
 # of primitive gaussian shells          ...  193
 # of primitive gaussian functions       ...  297
 # of contracted shells                  ...   65
 # of contracted basis functions         ...  129
 Highest angular momentum                ...    2
 Maximum contraction depth               ...   11
Auxiliary gaussian basis set:
 # of primitive gaussian shells          ...  247
 # of primitive gaussian functions       ...  767
 # of contracted shells                  ...  247
 # of contracted aux-basis functions     ...  767
 Highest angular momentum                ...    4
 Maximum contraction depth               ...    1
Ratio of auxiliary to basis functions    ...  5.95
Integral package used                  ... LIBINT
 One Electron integrals                  ... done
 Ordering auxiliary basis shells         ... done
 Integral threshhold             Thresh  ...  2.500e-11
 Primitive cut-off               TCut    ...  2.500e-12
 Pre-screening matrix                    ... done
 Shell pair data                         ... 
 Ordering of the shell pairs             ... done (   0.000 sec) 2143 of 2145 pairs
 Determination of significant pairs      ... done (   0.000 sec)
 Creation of shell pair data             ... done (   0.001 sec)
 Storage of shell pair data              ... done (   0.001 sec)
 Shell pair data done in (   0.002 sec)
 Computing two index integrals           ... done
 Cholesky decomposition of the V-matrix  ... done


Timings:
 Total evaluation time                   ...   0.357 sec (  0.006 min)
 One electron matrix time                ...   0.026 sec (  0.000 min) =  7.3%
 Schwartz matrix evaluation time         ...   0.199 sec (  0.003 min) = 55.7%
 Two index repulsion integral time       ...   0.052 sec (  0.001 min) = 14.5%
 Cholesky decomposition of V             ...   0.052 sec (  0.001 min) = 14.6%
 Three index repulsion integral time     ...   0.000 sec (  0.000 min) =  0.0%



           ************************************************************
           *        Program running with 4 parallel MPI-processes     *
           *              working on a common directory               *
           ************************************************************
-------------------------------------------------------------------------------
                                 ORCA SCF
-------------------------------------------------------------------------------

------------
SCF SETTINGS
------------
Hamiltonian:
 Ab initio Hamiltonian  Method          .... Hartree-Fock(GTOs)
 RI-approximation to the Coulomb term is turned on
   Number of auxiliary basis functions  .... 767
   RI-JK (J+K treated both via RI)      .... on


General Settings:
 Integral files         IntName         .... Et_P_Me2_a
 Hartree-Fock type      HFTyp           .... RHF
 Total Charge           Charge          ....    0
 Multiplicity           Mult            ....    1
 Number of Electrons    NEL             ....   50
 Basis Dimension        Dim             ....  129
 Nuclear Repulsion      ENuc            ....    243.6155925536 Eh

Convergence Acceleration:
 DIIS                   CNVDIIS         .... off
 Newton-Raphson         CNVNR           .... off
 SOSCF                  CNVSOSCF        .... on
   Start iteration      SOSCFMaxIt      ....   150
   Startup grad/error   SOSCFStart      ....  0.003300
 Level Shifting         CNVShift        .... on
   Level shift para.    LevelShift      ....    0.2000
   Turn off err/grad.   ShiftErr        ....    0.1000
 Zerner damping         CNVZerner       .... off
 Static damping         CNVDamp         .... off
 Fernandez-Rico         CNVRico         .... off

SCF Procedure:
 Maximum # iterations   MaxIter         ....   300
 SCF integral mode      SCFMode         .... Direct
   Integral package                     .... LIBINT
 Reset frequency        DirectResetFreq ....    20
 Integral Threshold     Thresh          ....  2.500e-11 Eh
 Primitive CutOff       TCut            ....  2.500e-12 Eh

Convergence Tolerance:
 Convergence Check Mode ConvCheckMode   .... Total+1el-Energy
 Convergence forced     ConvForced      .... 1
 Energy Change          TolE            ....  1.000e-08 Eh
 1-El. energy change                    ....  1.000e-05 Eh
 Orbital Gradient       TolG            ....  1.000e-05
 Orbital Rotation angle TolX            ....  1.000e-05


Diagonalization of the overlap matrix:
Smallest eigenvalue                        ... 3.896e-03
Time for diagonalization                   ...    0.005 sec
Threshold for overlap eigenvalues          ... 1.000e-08
Number of eigenvalues below threshold      ... 0
Time for construction of square roots      ...    0.005 sec
Total time needed                          ...    0.010 sec

---------------------
INITIAL GUESS: MOREAD
---------------------
Guess MOs are being read from file: Et_P_Me2_a.ges
Input Geometry matches current geometry (good)
Atom 0: N(Shells)= 6 and 10 - projection required
Input basis set needs projection
NBasis(read)= 308
NBasis(calc)= 129
Basis set overlap was calculated
Using GuessMode=FMatrix for the initial guess
C*T matrix was formed
Effective Fockian was calculated
Effective Fockian was diagonalized
Initial density was built
                      ------------------
                      INITIAL GUESS DONE (   0.0 sec)
                      ------------------
--------------
SCF ITERATIONS
--------------
ITER       Energy         Delta-E        Max-DP      RMS-DP      [F,P]   Gradient Norm
                             ****Turning on KDIIS(Cayley)****
  0   -498.6222410952   0.000000000000 0.00314774  0.00005651  0.0052591   0.005472622
  1   -498.6223627956  -0.000121700401 0.00687061  0.00011619  0.0047556   0.004989027
  2   -498.6225868250  -0.000224029334 0.01131075  0.00018892  0.0038025   0.003998281
                      *** Initiating the SOSCF procedure ***
                           *** Shutting down KDIIS ***
                      *** Re-Reading the Fockian *** 
                      *** Removing any level shift *** 
ITER      Energy       Delta-E        Grad      Rot      Max-DP    RMS-DP
  3   -498.62284918  -0.0002623543  0.002270  0.002270  0.017450  0.000285
  4   -498.62299715  -0.0001479711  0.000014  0.000021  0.000043  0.000001
  5   -498.62299716  -0.0000000076  0.000005  0.000014  0.000030  0.000001
                  ***Gradient check signals convergence***
              ***Rediagonalizing the Fockian in SOSCF/NRSCF***

               *****************************************************
               *                     SUCCESS                       *
               *           SCF CONVERGED AFTER   6 CYCLES          *
               *****************************************************


----------------
TOTAL SCF ENERGY
----------------

Total Energy       :         -498.62299716 Eh          -13568.22155 eV

Components:
Nuclear Repulsion  :          243.61559255 Eh            6629.11729 eV
Electronic Energy  :         -742.23858971 Eh          -20197.33884 eV
One Electron Energy:        -1167.40852674 Eh          -31766.80101 eV
Two Electron Energy:          425.16993703 Eh           11569.46217 eV

Virial components:
Potential Energy   :         -996.92123544 Eh          -27127.60596 eV
Kinetic Energy     :          498.29823828 Eh           13559.38441 eV
Virial Ratio       :            2.00065174


---------------
SCF CONVERGENCE
---------------

  Last Energy change         ...   -1.5714e-09  Tolerance :   1.0000e-08
  Last MAX-Density change    ...    2.9269e-06  Tolerance :   1.0000e-07
  Last RMS-Density change    ...    1.0657e-07  Tolerance :   5.0000e-09
  Last Orbital Gradient      ...    1.3757e-06  Tolerance :   1.0000e-05
  Last Orbital Rotation      ...    1.6565e-06  Tolerance :   1.0000e-05

             **** THE GBW FILE WAS UPDATED (Et_P_Me2_a.gbw) ****
             **** DENSITY FILE WAS UPDATED (Et_P_Me2_a.scfp.tmp) ****
             **** ENERGY FILE WAS UPDATED (Et_P_Me2_a.en.tmp) ****
----------------
ORBITAL ENERGIES
----------------

  NO   OCC          E(Eh)            E(eV) 
   0   2.0000     -79.930176     -2175.0107 
   1   2.0000     -11.230803      -305.6057 
   2   2.0000     -11.226659      -305.4929 
   3   2.0000     -11.225545      -305.4626 
   4   2.0000     -11.225534      -305.4623 
   5   2.0000      -7.470865      -203.2926 
   6   2.0000      -5.364904      -145.9865 
   7   2.0000      -5.364888      -145.9860 
   8   2.0000      -5.362744      -145.9277 
   9   2.0000      -1.038706       -28.2646 
  10   2.0000      -0.976269       -26.5656 
  11   2.0000      -0.929730       -25.2992 
  12   2.0000      -0.855077       -23.2678 
  13   2.0000      -0.705023       -19.1846 
  14   2.0000      -0.610305       -16.6072 
  15   2.0000      -0.596433       -16.2298 
  16   2.0000      -0.574825       -15.6418 
  17   2.0000      -0.552111       -15.0237 
  18   2.0000      -0.542714       -14.7680 
  19   2.0000      -0.540036       -14.6951 
  20   2.0000      -0.521647       -14.1947 
  21   2.0000      -0.495365       -13.4796 
  22   2.0000      -0.443404       -12.0656 
  23   2.0000      -0.427439       -11.6312 
  24   2.0000      -0.323119        -8.7925 
  25   0.0000       0.169126         4.6021 
  26   0.0000       0.189590         5.1590 
  27   0.0000       0.199601         5.4314 
  28   0.0000       0.220609         6.0031 
  29   0.0000       0.240635         6.5480 
  30   0.0000       0.241689         6.5767 
  31   0.0000       0.245682         6.6854 
  32   0.0000       0.270490         7.3604 
  33   0.0000       0.274591         7.4720 
  34   0.0000       0.275468         7.4959 
  35   0.0000       0.294508         8.0140 
  36   0.0000       0.301736         8.2106 
  37   0.0000       0.309109         8.4113 
  38   0.0000       0.343144         9.3374 
  39   0.0000       0.396781        10.7970 
  40   0.0000       0.510682        13.8964 
  41   0.0000       0.527210        14.3461 
  42   0.0000       0.530399        14.4329 
  43   0.0000       0.585676        15.9370 
  44   0.0000       0.596627        16.2350 
  45   0.0000       0.623047        16.9540 
  46   0.0000       0.629627        17.1330 
  47   0.0000       0.666715        18.1422 
  48   0.0000       0.735892        20.0247 
  49   0.0000       0.753184        20.4952 
  50   0.0000       0.756881        20.5958 
  51   0.0000       0.787503        21.4290 
  52   0.0000       0.797831        21.7101 
  53   0.0000       0.807693        21.9784 
  54   0.0000       0.807699        21.9786 
  55   0.0000       0.830868        22.6091 
  56   0.0000       0.838944        22.8288 
  57   0.0000       0.867788        23.6137 
  58   0.0000       0.884216        24.0607 
  59   0.0000       0.885532        24.0965 
  60   0.0000       0.901584        24.5334 
  61   0.0000       0.906255        24.6605 
  62   0.0000       0.911830        24.8122 
  63   0.0000       0.934624        25.4324 
  64   0.0000       0.943960        25.6865 
  65   0.0000       0.955661        26.0049 
  66   0.0000       0.977668        26.6037 
  67   0.0000       0.980545        26.6820 
  68   0.0000       1.026044        27.9201 
  69   0.0000       1.038984        28.2722 
  70   0.0000       1.175566        31.9888 
  71   0.0000       1.187360        32.3097 
  72   0.0000       1.217839        33.1391 
  73   0.0000       1.230857        33.4933 
  74   0.0000       1.274880        34.6912 
  75   0.0000       1.350464        36.7480 
  76   0.0000       1.358920        36.9781 
  77   0.0000       1.375003        37.4157 
  78   0.0000       1.381381        37.5893 
  79   0.0000       1.460669        39.7468 
  80   0.0000       1.472928        40.0804 
  81   0.0000       1.515627        41.2423 
  82   0.0000       1.613776        43.9131 
  83   0.0000       1.632437        44.4209 
  84   0.0000       1.679472        45.7008 
  85   0.0000       1.706705        46.4418 
  86   0.0000       1.707117        46.4530 
  87   0.0000       1.839787        50.0632 
  88   0.0000       1.870713        50.9047 
  89   0.0000       1.883065        51.2408 
  90   0.0000       1.883908        51.2637 
  91   0.0000       1.902662        51.7741 
  92   0.0000       1.913935        52.0808 
  93   0.0000       1.916401        52.1479 
  94   0.0000       1.922528        52.3146 
  95   0.0000       1.956904        53.2501 
  96   0.0000       1.975947        53.7683 
  97   0.0000       1.987384        54.0795 
  98   0.0000       1.992763        54.2259 
  99   0.0000       2.001829        54.4725 
 100   0.0000       2.014488        54.8170 
 101   0.0000       2.020070        54.9689 
 102   0.0000       2.034909        55.3727 
 103   0.0000       2.060395        56.0662 
 104   0.0000       2.084801        56.7303 
 105   0.0000       2.126251        57.8582 
 106   0.0000       2.255400        61.3725 
 107   0.0000       2.261609        61.5415 
 108   0.0000       2.276884        61.9572 
 109   0.0000       2.314320        62.9758 
 110   0.0000       2.335621        63.5555 
 111   0.0000       2.425438        65.9995 
 112   0.0000       2.430268        66.1309 
 113   0.0000       2.451443        66.7071 
 114   0.0000       2.457492        66.8718 
 115   0.0000       2.489825        67.7516 
 116   0.0000       2.543785        69.2199 
 117   0.0000       2.554557        69.5130 
 118   0.0000       2.736175        74.4551 
 119   0.0000       2.760473        75.1163 
 120   0.0000       2.776510        75.5527 
 121   0.0000       2.791167        75.9515 
 122   0.0000       2.793529        76.0158 
 123   0.0000       2.819125        76.7123 
 124   0.0000       2.820612        76.7528 
 125   0.0000       2.850647        77.5700 
 126   0.0000       2.869705        78.0887 
 127   0.0000       2.890926        78.6661 
 128   0.0000       2.970906        80.8425 

                    ********************************
                    * MULLIKEN POPULATION ANALYSIS *
                    ********************************

-----------------------
MULLIKEN ATOMIC CHARGES
-----------------------
   0 C :   -0.229810
   1 P :    0.216151
   2 C :   -0.229806
   3 C :   -0.250675
   4 C :   -0.039391
   5 H :    0.052561
   6 H :    0.052561
   7 H :    0.035670
   8 H :    0.035618
   9 H :    0.035620
  10 H :    0.057466
  11 H :    0.054954
  12 H :    0.048331
  13 H :    0.057464
  14 H :    0.048331
  15 H :    0.054955
Sum of atomic charges:   -0.0000000

--------------------------------
MULLIKEN REDUCED ORBITAL CHARGES
--------------------------------
  0 C s       :     3.128992  s :     3.128992
      pz      :     1.012806  p :     3.058025
      px      :     1.022329
      py      :     1.022889
      dz2     :     0.009513  d :     0.042793
      dxz     :     0.007020
      dyz     :     0.010627
      dx2y2   :     0.012300
      dxy     :     0.003334
  1 P s       :     5.599338  s :     5.599338
      pz      :     3.294776  p :     8.947407
      px      :     2.903203
      py      :     2.749429
      dz2     :     0.028193  d :     0.237103
      dxz     :     0.018668
      dyz     :     0.084221
      dx2y2   :     0.078417
      dxy     :     0.027604
  2 C s       :     3.128989  s :     3.128989
      pz      :     1.012809  p :     3.058025
      px      :     1.022326
      py      :     1.022890
      dz2     :     0.009510  d :     0.042793
      dxz     :     0.007022
      dyz     :     0.010628
      dx2y2   :     0.012302
      dxy     :     0.003332
  3 C s       :     3.165853  s :     3.165853
      pz      :     0.995050  p :     3.018769
      px      :     1.002915
      py      :     1.020805
      dz2     :     0.011486  d :     0.066053
      dxz     :     0.014202
      dyz     :     0.020325
      dx2y2   :     0.016266
      dxy     :     0.003774
  4 C s       :     3.041481  s :     3.041481
      pz      :     0.960251  p :     2.934429
      px      :     0.974400
      py      :     0.999777
      dz2     :     0.011580  d :     0.063481
      dxz     :     0.011924
      dyz     :     0.020266
      dx2y2   :     0.017160
      dxy     :     0.002552
  5 H s       :     0.916882  s :     0.916882
      pz      :     0.009174  p :     0.030557
      px      :     0.006169
      py      :     0.015214
  6 H s       :     0.916882  s :     0.916882
      pz      :     0.009173  p :     0.030557
      px      :     0.006168
      py      :     0.015215
  7 H s       :     0.933942  s :     0.933942
      pz      :     0.004883  p :     0.030388
      px      :     0.020178
      py      :     0.005328
  8 H s       :     0.934056  s :     0.934056
      pz      :     0.009430  p :     0.030326
      px      :     0.005551
      py      :     0.015345
  9 H s       :     0.934054  s :     0.934054
      pz      :     0.009429  p :     0.030326
      px      :     0.005550
      py      :     0.015347
 10 H s       :     0.910650  s :     0.910650
      pz      :     0.005666  p :     0.031884
      px      :     0.020680
      py      :     0.005538
 11 H s       :     0.913224  s :     0.913224
      pz      :     0.008140  p :     0.031822
      px      :     0.006626
      py      :     0.017056
 12 H s       :     0.919928  s :     0.919928
      pz      :     0.017919  p :     0.031741
      px      :     0.008471
      py      :     0.005352
 13 H s       :     0.910652  s :     0.910652
      pz      :     0.005667  p :     0.031884
      px      :     0.020680
      py      :     0.005537
 14 H s       :     0.919929  s :     0.919929
      pz      :     0.017917  p :     0.031741
      px      :     0.008473
      py      :     0.005351
 15 H s       :     0.913223  s :     0.913223
      pz      :     0.008141  p :     0.031822
      px      :     0.006624
      py      :     0.017057


                     *******************************
                     * LOEWDIN POPULATION ANALYSIS *
                     *******************************

----------------------
LOEWDIN ATOMIC CHARGES
----------------------
   0 C :   -0.194675
   1 P :    0.402663
   2 C :   -0.194674
   3 C :   -0.172636
   4 C :   -0.065532
   5 H :    0.021012
   6 H :    0.021013
   7 H :    0.023864
   8 H :    0.020173
   9 H :    0.020173
  10 H :    0.023861
  11 H :    0.022966
  12 H :    0.012484
  13 H :    0.023860
  14 H :    0.012484
  15 H :    0.022965

-------------------------------
LOEWDIN REDUCED ORBITAL CHARGES
-------------------------------
  0 C s       :     2.852354  s :     2.852354
      pz      :     1.076248  p :     3.220498
      px      :     1.068049
      py      :     1.076201
      dz2     :     0.027782  d :     0.121823
      dxz     :     0.019939
      dyz     :     0.029262
      dx2y2   :     0.035394
      dxy     :     0.009445
  1 P s       :     5.237488  s :     5.237488
      pz      :     3.318242  p :     9.048816
      px      :     2.941604
      py      :     2.788970
      dz2     :     0.037558  d :     0.311033
      dxz     :     0.028221
      dyz     :     0.105666
      dx2y2   :     0.101744
      dxy     :     0.037843
  2 C s       :     2.852353  s :     2.852353
      pz      :     1.076249  p :     3.220498
      px      :     1.068049
      py      :     1.076201
      dz2     :     0.027773  d :     0.121823
      dxz     :     0.019948
      dyz     :     0.029265
      dx2y2   :     0.035399
      dxy     :     0.009438
  3 C s       :     2.846830  s :     2.846830
      pz      :     1.034189  p :     3.159449
      px      :     1.069922
      py      :     1.055338
      dz2     :     0.026876  d :     0.166357
      dxz     :     0.034878
      dyz     :     0.051259
      dx2y2   :     0.042514
      dxy     :     0.010829
  4 C s       :     2.797399  s :     2.797399
      pz      :     1.020280  p :     3.103649
      px      :     1.035172
      py      :     1.048198
      dz2     :     0.027749  d :     0.164484
      dxz     :     0.029783
      dyz     :     0.052955
      dx2y2   :     0.047485
      dxy     :     0.006511
  5 H s       :     0.895959  s :     0.895959
      pz      :     0.025899  p :     0.083028
      px      :     0.021257
      py      :     0.035872
  6 H s       :     0.895959  s :     0.895959
      pz      :     0.025898  p :     0.083029
      px      :     0.021257
      py      :     0.035874
  7 H s       :     0.897698  s :     0.897698
      pz      :     0.016669  p :     0.078438
      px      :     0.046166
      py      :     0.015603
  8 H s       :     0.901167  s :     0.901167
      pz      :     0.025311  p :     0.078661
      px      :     0.017026
      py      :     0.036323
  9 H s       :     0.901166  s :     0.901166
      pz      :     0.025309  p :     0.078662
      px      :     0.017026
      py      :     0.036327
 10 H s       :     0.892761  s :     0.892761
      pz      :     0.017291  p :     0.083378
      px      :     0.047933
      py      :     0.018154
 11 H s       :     0.893908  s :     0.893908
      pz      :     0.022135  p :     0.083127
      px      :     0.018670
      py      :     0.042321
 12 H s       :     0.903683  s :     0.903683
      pz      :     0.043963  p :     0.083833
      px      :     0.022486
      py      :     0.017384
 13 H s       :     0.892761  s :     0.892761
      pz      :     0.017293  p :     0.083379
      px      :     0.047933
      py      :     0.018154
 14 H s       :     0.903683  s :     0.903683
      pz      :     0.043959  p :     0.083832
      px      :     0.022491
      py      :     0.017383
 15 H s       :     0.893908  s :     0.893908
      pz      :     0.022137  p :     0.083128
      px      :     0.018667
      py      :     0.042324


                      *****************************
                      * MAYER POPULATION ANALYSIS *
                      *****************************

  NA   - Mulliken gross atomic population
  ZA   - Total nuclear charge
  QA   - Mulliken gross atomic charge
  VA   - Mayer's total valence
  BVA  - Mayer's bonded valence
  FA   - Mayer's free valence

  ATOM       NA         ZA         QA         VA         BVA        FA
  0 C      6.2298     6.0000    -0.2298     3.9258     3.9258    -0.0000
  1 P     14.7838    15.0000     0.2162     3.0462     3.0462    -0.0000
  2 C      6.2298     6.0000    -0.2298     3.9258     3.9258    -0.0000
  3 C      6.2507     6.0000    -0.2507     3.9563     3.9563     0.0000
  4 C      6.0394     6.0000    -0.0394     3.9680     3.9680    -0.0000
  5 H      0.9474     1.0000     0.0526     0.9677     0.9677     0.0000
  6 H      0.9474     1.0000     0.0526     0.9677     0.9677     0.0000
  7 H      0.9643     1.0000     0.0357     0.9742     0.9742    -0.0000
  8 H      0.9644     1.0000     0.0356     0.9743     0.9743     0.0000
  9 H      0.9644     1.0000     0.0356     0.9743     0.9743    -0.0000
 10 H      0.9425     1.0000     0.0575     0.9786     0.9786    -0.0000
 11 H      0.9450     1.0000     0.0550     0.9789     0.9789    -0.0000
 12 H      0.9517     1.0000     0.0483     0.9779     0.9779    -0.0000
 13 H      0.9425     1.0000     0.0575     0.9786     0.9786    -0.0000
 14 H      0.9517     1.0000     0.0483     0.9779     0.9779     0.0000
 15 H      0.9450     1.0000     0.0550     0.9789     0.9789    -0.0000

  Mayer bond orders larger than 0.1
B(  0-C ,  1-P ) :   1.0084 B(  0-C , 10-H ) :   0.9792 B(  0-C , 11-H ) :   0.9790 
B(  0-C , 12-H ) :   0.9741 B(  1-P ,  2-C ) :   1.0085 B(  1-P ,  3-C ) :   0.9992 
B(  2-C , 13-H ) :   0.9792 B(  2-C , 14-H ) :   0.9741 B(  2-C , 15-H ) :   0.9790 
B(  3-C ,  4-C ) :   1.0378 B(  3-C ,  5-H ) :   0.9671 B(  3-C ,  6-H ) :   0.9671 
B(  4-C ,  7-H ) :   0.9815 B(  4-C ,  8-H ) :   0.9821 B(  4-C ,  9-H ) :   0.9821 


-------
TIMINGS
-------

Total SCF time: 0 days 0 hours 0 min 3 sec 

Total time                  ....       3.702 sec
Sum of individual times     ....       3.533 sec  ( 95.4%)

Fock matrix formation       ....       3.478 sec  ( 93.9%)
Diagonalization             ....       0.008 sec  (  0.2%)
Density matrix formation    ....       0.001 sec  (  0.0%)
Population analysis         ....       0.005 sec  (  0.1%)
Initial guess               ....       0.036 sec  (  1.0%)
Orbital Transformation      ....       0.000 sec  (  0.0%)
Orbital Orthonormalization  ....       0.000 sec  (  0.0%)
DIIS solution               ....       0.000 sec  (  0.0%)
SOSCF solution              ....       0.004 sec  (  0.1%)


           ************************************************************
           *        Program running with 4 parallel MPI-processes     *
           *              working on a common directory               *
           ************************************************************


------------------------------------------------------------------------------- 
                              ORCA-MATRIX DRIVEN CI                            
------------------------------------------------------------------------------- 


Wavefunction type
-----------------
Correlation treatment                      ...      CCSD     
Single excitations                         ... ON
Orbital optimization                       ... OFF
Calculation of Z vector                    ... OFF
Calculation of Brueckner orbitals          ... OFF
Perturbative triple excitations            ... ON
Calculation of F12 correction              ... OFF
Frozen core treatment                      ... chemical core (18 el)
Reference Wavefunction                     ... RHF
  Internal Orbitals:     9 ...   24 ( 16 MO's/ 32 electrons)
  Virtual  Orbitals:    25 ...  128 (104 MO's              )
Number of AO's                             ...    129
Number of electrons                        ...     50
Number of correlated electrons             ...     32

Algorithmic settings
--------------------
Integral transformation                    ... All integrals via the RI transformation
K(C) Formation                             ... RI-DLPNO
   PNO-Integral Storage                    ... ON DISK
   PNO occupation number cut-off           ... 1.000e-07
   Singles PNO occupation number cut-off   ... 3.000e-09
   PNO Mulliken prescreening cut-off       ... 1.000e-03
   Domain cut-off (Mulliken population)    ... 1.000e-03
   PNO Normalization                       ...    1
Maximum number of iterations               ...        50
Convergence tolerance (max. residuum)      ... 1.000e-05
Level shift for amplitude update           ... 2.000e-01
Maximum number of DIIS vectors             ...         7
DIIS turned on at iteration                ...         0
Damping before turning on DIIS             ...     0.500
Damping after turning on DIIS              ...     0.000
Pair specific amplitude update             ... OFF
Natural orbital iterations                 ... OFF
Perturbative natural orbital generation    ... OFF
Printlevel                                 ... 2

Singles Fock matrix elements calculated using PNOs.

Memory handling:
----------------
Maximum memory for working arrays          ...   8000 MB
Data storage in matrix containers          ... UNCOMPRESSED
Data type for integral storage             ... DOUBLE
In-Core Storage of quantities:
   Amplitudes+Sigma Vector      ... NO
   J+K operators                ... NO
   DIIS vectors                 ... NO
   3-external integrals         ... NO
   4-external integrals         ... NO

Localization treatment:
-----------------------
Localization option                        ...    6
Localization threshhold                    ... -1.0e+00
Using relative localization threshhold     ... 1.0e-08
Neglect threshold for strong pairs         ... 1.000e-05 Eh
Prescreening threshold for very weak pairs ... 1.000e-07 Eh

Initializing the integral package          ... done
Localizing the valence orbitals
------------------------------------------------------------------------------
                           ORCA ORBITAL LOCALIZATION
------------------------------------------------------------------------------

Input orbitals are from                  ... Et_P_Me2_a.proc0.gbw
Output orbitals are to                   ... Et_P_Me2_a.proc0.loc
Max. number of iterations                ... 128
Localizations seeded randomly            ... off
Convergence tolerance                    ... 1.000e-06
Using relative localization threshhold   ... 1.000e-08
Treshold for strong local MOs            ... 9.500e-01
Treshold for bond MOs                    ... 8.500e-01
Operator                                 ... 0
Orbital range for localization           ... 9 to 24
Localization criterion                   ... FOSTER-BOYS (AUGMENTED HESSIAN)
Doing the dipole integrals     ... o.k.
Initial value of the localization sum :   204.260830
ITERATION   0 : L=  216.5131507059 DL=  1.23e+01 (AVERGE_DL)=    0.3195350939 
ITERATION   1 : L=  216.8201277841 DL=  3.07e-01 (AVERGE_DL)=    0.0505780814 
ITERATION   2 : L=  216.8237379254 DL=  3.61e-03 (AVERGE_DL)=    0.0054849349 
ITERATION   3 : L=  216.8237535553 DL=  1.56e-05 (AVERGE_DL)=    0.0003609010 
ITERATION   4 : L=  216.8237536118 DL=  5.65e-08 (AVERGE_DL)=    0.0000216989 
LOCALIZATION SUM CONVERGED

------------------------------------------------------
AUGMENTED HESSIAN OPTIMIZATION OF FOSTER-BOYS ORBITALS
------------------------------------------------------

Spin operator:           0
Orbital window:          9 to 24
Number of iterations:    128
Gradient tolerance:      1.000e-06
Number of pairs:         120
Davidson threshold:      2000
Diagonalization method:  LAPACK
Iter:    0   L: 216.8237536118   Grad. norm: 7.804156e-04
   *** Likely close to a maximum now. ***
       Augmented Hessian eigenvalues:  4.19e-09 -1.68e+01 -1.68e+01 -1.69e+01 ... 
Iter:    1   L: 216.8237536139   Grad. norm: 1.682977e-10
LOCALIZATION HAS CONVERGED.

Eigenvalues of the Hessian:
  0 -1.682e+01
  1 -1.682e+01
  2 -1.692e+01
  3 -1.719e+01
  4 -1.730e+01
  5 -1.730e+01
  6 -1.781e+01
  7 -1.783e+01
  8 -1.804e+01
  9 -1.830e+01
    ...


------------------------------------------------------------------------------- 
                    LOCALIZED MOLECULAR ORBITAL COMPOSITIONS                   
------------------------------------------------------------------------------- 

The Mulliken populations for each LMO on each atom are computed
The LMO`s will be ordered according to atom index and type
  (A) Strongly localized MO`s have populations of >=0.950 on one atom
  (B) Two center bond orbitals have populations of >=0.850 on two atoms
  (C) Other MO`s are considered to be `delocalized`

FOUND  -   1 strongly local MO`s
       -  15 two center bond MO`s
       -   0 significantly delocalized MO`s

Rather strongly localized orbitals:
MO   9:   1P  -   1.019647
Bond-like localized orbitals:
MO  24:  15H  -   0.487873  and   2C  -   0.521136
MO  23:  14H  -   0.491622  and   2C  -   0.519135
MO  22:  13H  -   0.486625  and   2C  -   0.522423
MO  21:  12H  -   0.491622  and   0C  -   0.519135
MO  20:  11H  -   0.487874  and   0C  -   0.521135
MO  19:  10H  -   0.486624  and   0C  -   0.522426
MO  18:   9H  -   0.500077  and   4C  -   0.514101
MO  17:   8H  -   0.500078  and   4C  -   0.514100
MO  16:   7H  -   0.499150  and   4C  -   0.513433
MO  15:   6H  -   0.493017  and   3C  -   0.517427
MO  14:   5H  -   0.493016  and   3C  -   0.517428
MO  13:   4C  -   0.501236  and   3C  -   0.531963
MO  12:   3C  -   0.582934  and   1P  -   0.463977
MO  11:   2C  -   0.577773  and   1P  -   0.458312
MO  10:   1P  -   0.458311  and   0C  -   0.577774
Localized MO's were stored in: Et_P_Me2_a.proc0.loc

Localizing the core orbitals
------------------------------------------------------------------------------
                           ORCA ORBITAL LOCALIZATION
------------------------------------------------------------------------------

Input orbitals are from                  ... Et_P_Me2_a.proc0.loc
Output orbitals are to                   ... Et_P_Me2_a.proc0.loc
Max. number of iterations                ... 128
Localizations seeded randomly            ... off
Convergence tolerance                    ... 1.000e-06
Using relative localization threshhold   ... 1.000e-08
Treshold for strong local MOs            ... 9.500e-01
Treshold for bond MOs                    ... 8.500e-01
Operator                                 ... 0
Orbital range for localization           ... 0 to 8
Localization criterion                   ... FOSTER-BOYS (AUGMENTED HESSIAN)
Doing the dipole integrals     ... o.k.
Initial value of the localization sum :    62.056927
ITERATION   0 : L=   62.2952146895 DL=  2.38e-01 (AVERGE_DL)=    0.0813577864 
ITERATION   1 : L=   62.3023994024 DL=  7.18e-03 (AVERGE_DL)=    0.0141271142 
ITERATION   2 : L=   62.3026808494 DL=  2.81e-04 (AVERGE_DL)=    0.0027960636 
ITERATION   3 : L=   62.3026993019 DL=  1.85e-05 (AVERGE_DL)=    0.0007159401 
ITERATION   4 : L=   62.3027007106 DL=  1.41e-06 (AVERGE_DL)=    0.0001978157 
ITERATION   5 : L=   62.3027009251 DL=  2.14e-07 (AVERGE_DL)=    0.0000771838 
LOCALIZATION SUM CONVERGED

------------------------------------------------------
AUGMENTED HESSIAN OPTIMIZATION OF FOSTER-BOYS ORBITALS
------------------------------------------------------

Spin operator:           0
Orbital window:          0 to 8
Number of iterations:    128
Gradient tolerance:      1.000e-06
Number of pairs:         36
Davidson threshold:      2000
Diagonalization method:  LAPACK
Iter:    0   L: 62.3027009251   Grad. norm: 3.013117e-04
   *** Detected a saddle point. ***
       Augmented Hessian eigenvalues:  3.68e-04  7.82e-05  5.43e-05 -3.03e-04 ... 
Iter:    1   L: 62.3027127036   Grad. norm: 3.031635e-04
Iter:    2   L: 62.3027375927   Grad. norm: 2.944756e-04
Iter:    3   L: 62.3027699643   Grad. norm: 2.563829e-04
Iter:    4   L: 62.3028010032   Grad. norm: 1.824109e-04
Iter:    5   L: 62.3028211496   Grad. norm: 8.549404e-05
Iter:    6   L: 62.3028261710   Grad. norm: 8.443437e-06
   *** Likely close to a maximum now. ***
       Augmented Hessian eigenvalues:  1.58e-09 -3.92e-04 -3.95e-04 -5.18e-04 ... 
Iter:    7   L: 62.3028261718   Grad. norm: 1.428005e-09
LOCALIZATION HAS CONVERGED.

Eigenvalues of the Hessian:
  0 -3.925e-04
  1 -3.953e-04
  2 -5.178e-04
  3 -1.635e-01
  4 -1.642e-01
  5 -1.642e-01
  6 -4.916e-01
  7 -6.547e-01
  8 -6.563e-01
  9 -6.563e-01
    ...


------------------------------------------------------------------------------- 
                    LOCALIZED MOLECULAR ORBITAL COMPOSITIONS                   
------------------------------------------------------------------------------- 

The Mulliken populations for each LMO on each atom are computed
The LMO`s will be ordered according to atom index and type
  (A) Strongly localized MO`s have populations of >=0.950 on one atom
  (B) Two center bond orbitals have populations of >=0.850 on two atoms
  (C) Other MO`s are considered to be `delocalized`

FOUND  -   9 strongly local MO`s
       -   0 two center bond MO`s
       -   0 significantly delocalized MO`s

Rather strongly localized orbitals:
MO   8:   4C  -   0.999531
MO   7:   3C  -   0.999379
MO   6:   2C  -   0.999583
MO   5:   1P  -   0.999994
MO   4:   1P  -   0.999341
MO   3:   1P  -   0.999671
MO   2:   1P  -   0.999246
MO   1:   1P  -   0.999246
MO   0:   0C  -   0.999583
Localized MO's were stored in: Et_P_Me2_a.proc0.loc

Warning: internal orbitals are localized - no re-canonicalization of internal orbitals

--------------------------
CLOSED-SHELL FOCK OPERATOR
--------------------------

RI-JK section for the Fock operator:
  RHF full Fock operator         ... done
  RHF frozen core Fock operator  ... done
Time needed for Fock operator              ...            1.073 sec
Reference energy                           ...   -498.622997160

--------------
DLPNO SETTINGS (2015 fully linear scaling implementation)
--------------

TCutMKN:           1.000e-03
TCutPAO:           1.000e-03
TCutPNO:           1.000e-07
TCutPNOSingles:    3.000e-09
TCutEN:            9.700e-01
TCutPAOExt:        1.000e-01
TCutPairs:         1.000e-05
TCutPre:           1.000e-07
TCutOSV:           1.000e-06
TCutDOij:          1.000e-05
TCutDO:            5.000e-03
TCutC:             1.000e-04
TCutCPAO:          1.000e-03
TCutCMO:           1.000e-03
TScaleDOMP2PreScr: 2.000e+00
TScaleMKNMP2PreScr:1.000e+01
TScalePNOMP2PreScr:1.000e+00
PAO overlap thresh 1.000e-08
Using PNOs for Singles Fock computation
Use new domains
Use fully linear algorithm
TCutTNO:           1.000e-09
TCutMP2Pairs:      1.000e-06
TCutDOStrong:      2.000e-03
TCutMKNStrong:     1.000e-02
TCutMKNWeak:       1.000e-01
TCutDOWeak:        4.000e-03
NTCutTNO:          1

--------------------------
Calculating differential overlap integrals ... ok
--------------------------
ELECTRON PAIR PRESCREENING
--------------------------

Dipole-based pair screening          .... used

   TCutDOij = 1.000000e-05
   TCutPre  = 1.000000e-07
   .... Finished loop over pairs
Total time spent in the prescreening                  ...     0.000 sec
sum of pair energies estimated for screened out pairs ...       0.000000000000 Eh
Thresholds for map construction and integral transformation for crude MP2:
   TCutMKN                    ...     1.0e-02
   TCutDO                     ...     1.0e-02
   TCutPairs                  ...     1.0e-05
   TCutPNO_CrudeMP2           ...     1.0e-07
   TCutPNOSingles_CrudeMP2    ...     3.0e-09
--------------------------------
LOCAL RI TRANSFORMATION (IAVPAO)
--------------------------------

Orbital window:       9 to 24
Number of PAOs:     129
Basis functions:    129 (65 shells)
Aux. functions:     454 (162 shells)

Processing maps (0.0 sec)
Average map sizes:
   Aux shells -> MOs              16.0
   Aux shells -> PAOs            129.0
   MOs        -> AO shells        63.5
   PAOs       -> AO shells        65.0

Calculating integrals (0.4 sec, 7.154 MB)
Sorting integrals (0.0 sec, 7.149 MB)
Total time for the integral transformation: 0.4 sec
--------------------------------
INITIAL GUESS AND PNO GENERATION
--------------------------------

PNO truncation parameters                   .... 
    PAOOverlapThresh   =        1.000e-08

    TCutPairs          =        1.000e-05
    TCutPNO            =        1.000e-07
    TCutPNOSingles     =        3.000e-09
    TCutMP2Pairs       =        1.000e-06
    TCutMKN            =        1.000e-02
    TCutDO             =        1.000e-02

Pair selection                          .... not used
Type of local MP2 treatment                 .... semi-local MP2
Strategy for PNO selection                  .... occupation number selection
Pair density normalization                  .... MP2 norm
Spin component scaling                      .... not used

   .... Finished loop over pairs
Making pair pair interaction lists          ... done

                       ===========================
                        136 OF  136 PAIRS ARE KEPT CCSD PAIRS
                          0 OF  136 PAIRS ARE KEPT MP2 PAIRS FOR (T)
                          0 OF  136 PAIRS ARE SKIPPED
                       ===========================

Total time spent in the initial guess                 ...     0.250 sec
SL-MP2 correlation energy (all non-screened pairs)    ...      -0.689324618491 Eh

Initial PNO correlation energy                        ...      -0.689088189847 Eh
sum of pair energies prescreened and skipped MP2 pairs...       0.000000000000 Eh
sum of pair energies of crude MP2 skipped pairs only  ...       0.000000000000 Eh
sum of MP2 pair energies for pairs that were not kept ...       0.000000000000 Eh
sum of PNO error estimates for the kept pairs         ...      -0.000236428644 Eh
                                                          --------------------
sum of all corrections                                         -0.000236428644
Initial total correlation energy                               -0.689324618491
Thresholds for map construction and integral transformation for fine MP2 and CCSD(T) calculation:
   TCutMKN   ...     1.0e-03
   TCutDO    ...     5.0e-03
   TCutPairs ...     1.0e-05
   TCutCMO   ...     1.0e-03
   TCutCPAO  ...     1.0e-03

Thresholds for map construction and integral transformation for strong Triples:
   TCutMKN   ...     1.0e-02
   TCutDO    ...     1.0e-02
   TCutCMO   ...     1.0e-03
   TCutCPAO  ...     1.0e-03

Thresholds for map construction and integral transformation for weak Triples:
   TCutMKN   ...     1.0e-01
   TCutDO    ...     2.0e-02
   TCutCMO   ...     1.0e-03
   TCutCPAO  ...     1.0e-03

--------------------------------
LOCAL RI TRANSFORMATION (IAVPAO)
--------------------------------

Orbital window:       9 to 24
Number of PAOs:     129
Basis functions:    129 (65 shells)
Aux. functions:     454 (162 shells)

Processing maps (0.0 sec)
Average map sizes:
   Aux shells -> MOs              16.0
   Aux shells -> PAOs            129.0
   MOs        -> AO shells        63.5
   PAOs       -> AO shells        65.0

Calculating integrals (0.4 sec, 7.154 MB)
Sorting integrals (0.0 sec, 7.149 MB)
Total time for the integral transformation: 0.4 sec
--------------------------------
INITIAL GUESS AND PNO GENERATION
--------------------------------

PNO truncation parameters                   .... 
    ScaleTCutPNO       =        1.000e-02
    PAOOverlapThresh   =        1.000e-08

    TCutPairs          =        1.000e-05
    TCutPNO            =        1.000e-07
    TCutPNOSingles     =        3.000e-09
    TCutMP2Pairs       =        1.000e-06
    TCutMKN            =        1.000e-03
    TCutDO             =        5.000e-03

Pair selection                          .... not used
Type of local MP2 treatment                 .... full local PMP2
Strategy for PNO selection                  .... occupation number selection
Pair density normalization                  .... MP2 norm
Spin component scaling                      .... not used

PASS-1: Formation of initial guess LMP2 amplitudes
Initial amplitudes guess done. Entering LMP2 iteration loop:
   Max. no of iterations          ...  50
   Energy convergence tolerance   ...    1.0e-07
   Residual convergence tolerance ...    5.0e-07
   Fock matrix cutoff             ...    1.0e-05 Eh
   DIIS convergence acceleration parameters:
        Max # vectors in DIIS     ... 7
        Start iteration of DIIS   ... 0
        Levelshift                ... 2.000e-01
        Damping factor 1          ... 5.000e-01
        Damping factor 2          ... 1.000e+00
   L-MP2 PNO cut-off              ...   1.0e-09
   L-MP2 PNO cut-off (core)       ...   1.0e-11
                           *** Turning on DIIS ***
LMP2-Iter=   0:  ELMP2= -0.702103778619  DE=   1.2e-02 RMAX=   4.0e-03
LMP2-Iter=   1:  ELMP2= -0.709022354521  DE=   6.9e-03 RMAX=   1.7e-03
LMP2-Iter=   2:  ELMP2= -0.710119416973  DE=   1.1e-03 RMAX=   2.5e-04
LMP2-Iter=   3:  ELMP2= -0.710212548089  DE=   9.3e-05 RMAX=   1.1e-04
LMP2-Iter=   4:  ELMP2= -0.710214767825  DE=   2.2e-06 RMAX=   2.0e-05
LMP2-Iter=   5:  ELMP2= -0.710213753380  DE=   1.0e-06 RMAX=   5.6e-06
LMP2-Iter=   6:  ELMP2= -0.710213674319  DE=   7.9e-08 RMAX=   7.4e-07
LMP2-Iter=   7:  ELMP2= -0.710213674867  DE=   5.5e-10 RMAX=   1.7e-07
LMP2-Iter=   8:  ELMP2= -0.710213676224  DE=   1.4e-09 RMAX=   1.7e-08 => CONVERGED
PASS-2: Formation of Pair natural orbitals
   .... Finished loop over pairs

 PNO Occupation Number Statistics: 
  | Av. % of trace(Dij) retained        ...  99.695382798192
  | sigma^2 in % of trace(Dij) retained ...   1.58e-01
  | Av. % of trace(Di) retained         ...  99.999920003822
  | sigma^2 in % of trace(Di) retained  ...   1.86e-09
 Distributions of % trace(Dij) recovered:
  |       >= 99.9  ...    70 ( 51.5 % of all pairs)
  |   [90.0, 99.0) ...     8 (  5.9 % of all pairs)
  |   [99.0, 99.9) ...    58 ( 42.6 % of all pairs)
 Distributions of % trace(Di) recovered :
  |       >= 99.9  ...    16 (100.0 % of all I-pairs )

Making pair pair interaction lists          ... done

                       ===========================
                        136 OF  136 PAIRS ARE KEPT
                       ===========================

Total time spent in the initial guess                 ...     2.251 sec
L-MP2 correlation energy (all non-screened pairs)     ...      -0.710213676224 Eh
L-MP2 PNO error correction                            ...      -0.000003307675 Eh
                                                          --------------------
Initial total L-MP2 energy (non-screened pairs)       ...      -0.710216983899 Eh

Initial PNO correlation energy                        ...      -0.709996100146 Eh
sum of pair energies estimated for screened out pairs ...       0.000000000000 Eh
sum of MP2 pair energies for pairs that were not kept ...       0.000000000000 Eh
sum of PNO error estimates for the kept pairs         ...      -0.000220883753 Eh
                                                          --------------------
sum of all corrections                                         -0.000220883753
Initial total correlation energy                               -0.710216983899
Thresholds for map construction and integral transformation for fine MP2 and CCSD(T) calculation:
   TCutMKN   ...     1.0e-03
   TCutDO    ...     5.0e-03
   TCutPairs ...     1.0e-05
   TCutCMO   ...     1.0e-03
   TCutCPAO  ...     1.0e-03

Time for aux screen maps:            0.001
Time for maps after fine MP2:            0.005
-----------------------------
LOCAL RI TRANSFORMATION (IJV)
-----------------------------

Orbital window:       9 to 24
Basis functions:    129 (65 shells)
Aux. functions:     454 (162 shells)

Processing maps (0.0 sec)
Average map sizes:
   Aux shells -> MOs(i)           16.0
   Aux shells -> MOs(j)           16.0
   MOs        -> AO shells        63.5

Calculating integrals (0.4 sec, 0.892 MB)
Sorting integrals (0.0 sec, 0.887 MB)
Total time for the integral transformation: 0.4 sec
--------------------------------
LOCAL RI TRANSFORMATION (VABPAO)
--------------------------------

Number of PAOs:     129
Basis functions:    129 (65 shells)
Aux. functions:     454 (162 shells)

Processing maps (0.0 sec)
Average map sizes:
   Aux shells -> PAOs            129.0
   PAOs       -> AO shells        65.0

Calculating integrals (0.5 sec, 102.213 MB)
Finished


-------------------------------------
Pair Pair Term precalculation with     
RI-(ij|mn) and (im|jn) transformation  
ON THE FLY                             
-------------------------------------

   IBatch   1 (of   1)              ... done (    7.886 sec)
Total EXT                           ...           7.887 sec

---------------------
RI-PNO TRANSFORMATION
---------------------

Total Number of PNOs                   ...  3745
Average number of PNOs per pair        ...    27
Maximal number of PNOs per pair        ...    44
   #pairs with  1 -  5 PNOs   :    0
   #pairs with  6 - 10 PNOs   :    6
   #pairs with 11 - 15 PNOs   :    8
   #pairs with 16 - 20 PNOs   :   21
   #pairs with 21 - 25 PNOs   :   13
   #pairs with 26 - 30 PNOs   :   21
   #pairs with 31 - 35 PNOs   :   39
   #pairs with 36 - 40 PNOs   :   21
   #pairs with 41 - 45 PNOs   :    7
   #pairs with 46 - 50 PNOs   :    0

Generation of (ij|ab)[P] integrals            ... on
Generation of (ia|bc)[P],(ja|bc)[P] integrals ... on
Storage of 3 and 4 external integrals         ... on
Generation of ALL (ka|bc)[P] integrals        ... on
Keep RI integrals in memory                   ... off

Ibatch:  1 (of  1)
Starting 2-4 index PNO integral generation ... done

Timings:
Total PNO integral transformation time     ...          2.326 sec
Size of the 3-external file                ...        29 MB
Size of the 4-external file                ...       128 MB
Size of the IKJL file                      ...         0 MB
Size of the all 3-external file            ...       234 MB
Size of the 1-external file                ...         1 MB

Making pair/pair overlap matrices          ... done (    0.386 sec)
Size of the pair overlap file              ... 74 MB
Redoing the guess amplitudes               ... done (    0.001 sec)

-------------------------
FINAL STARTUP INFORMATION
-------------------------

E(0)                                       ...   -498.622997160
E(L-MP2)                                   ...     -0.710216984
E(L-MP2) including corrections             ...     -0.710216984
Initial E(tot)                             ...   -499.333214144
<T|T>                                      ...      0.243248919
Number of pairs included                   ... 136
Total number of pairs                      ... 136

------------------------------------------------
                  RHF COUPLED CLUSTER ITERATIONS
------------------------------------------------

Number of PNO amplitudes to be optimized   ...       114359
Number of non-PNO amplitudes               ...      1470976
Untruncated number of regular amplitudes   ...      1470976

Iter       E(tot)           E(Corr)          Delta-E          Residual     Time
  0   -499.312614640     -0.689396596      0.020820388      0.020435968    1.76
                           *** Turning on DIIS ***
  1   -499.377275932     -0.754057889     -0.064661293      0.007577839    1.77
  2   -499.405398284     -0.782180241     -0.028122352      0.002066270    1.76
  3   -499.409049941     -0.785831898     -0.003651657      0.000908412    1.76
  4   -499.409838569     -0.786620525     -0.000788627      0.000383883    1.76
  5   -499.409994055     -0.786776012     -0.000155486      0.000186590    1.79
  6   -499.410033298     -0.786815255     -0.000039243      0.000090289    1.80
  7   -499.410038692     -0.786820648     -0.000005394      0.000038055    1.80
  8   -499.410039841     -0.786821798     -0.000001150      0.000013118    8.93
  9   -499.410039895     -0.786821851     -0.000000053      0.000004495    1.84
               --- The Coupled-Cluster iterations have converged ---

----------------------
COUPLED CLUSTER ENERGY
----------------------

E(0)                                       ...   -498.622997160
E(CORR)(strong-pairs)                      ...     -0.786821851
E(CORR)(weak-pairs)                        ...     -0.000220884
E(CORR)(corrected)                         ...     -0.787042735
E(TOT)                                     ...   -499.410039895
Singles Norm <S|S>**1/2                    ...      0.046960613  
T1 diagnostic                              ...      0.008301542  

------------------
LARGEST AMPLITUDES
------------------
   9-> 26   9-> 26       0.060361
   9-> 25   9-> 25       0.059530
  19-> 34  19-> 34       0.042533
  22-> 34  22-> 34       0.042531
  17-> 34  17-> 34       0.042181
  18-> 34  18-> 34       0.042180
  24-> 34  24-> 34       0.037977
  20-> 34  20-> 34       0.037974
  16-> 34  16-> 34       0.036581
  14-> 25  14-> 25       0.036439
  15-> 25  15-> 25       0.036439
  18-> 25  18-> 25       0.034739
  17-> 25  17-> 25       0.034739
  16-> 25  16-> 25       0.034503
  23-> 35  23-> 35       0.033550
  21-> 35  21-> 35       0.033549


-------------------------------------------
DLPNO BASED TRIPLES CORRECTION
-------------------------------------------

Singles multiplier          ...  1.000000
TCutTNO                     ... 1.000e-09
TCutMP2Pairs                ... 1.000e-06
TCutDOStrong                ... 1.000e-02
TCutMKNStrong               ... 1.000e-02
TCutDOWeak                  ... 2.000e-02
TCutMKNWeak                 ... 1.000e-01

Fragment selection                          .... not used
Number of Triples that are to be computed   ...       800

 . . . . . . . . .
10% done  
20% done  
30% done  
40% done  
50% done  
60% done  
70% done  
80% done  
90% done               (     15.298 sec)
Triples timings:
Total time for T0               ...    16.495 sec
Total time for Iterative (T)    ...     0.000 sec
Total time of overall (T)       ...    16.495 sec

Triples List generation         ...     0.000 sec
TNO generation                  ...     1.195 sec
Pair density generation         ...     0.002 sec
Look up tables                  ...     0.000 sec
Generating 3-index integrals    ...     6.967 sec
  Make 4-ind.int. from 3-ind.int...     3.197 sec
  Projecting amplitudes (D + S) ...     1.429 sec
  Downprojecting integrals      ...     0.001 sec
  Energy contr. (sum over a,b,c)...     1.105 sec
Fitting ET(->0)                 ...     0.000 sec

Everything after 3-index        ...     8.330 sec

Timing details:
 TNO integrals                  ...     9.743 sec
   Reading 3-index integrals    ...     0.022 sec
   Sorting integrals            ...     2.177 sec
       Sorting integrals 1      ...     0.000 sec
       Sorting integrals 2      ...     0.566 sec
       Sorting integrals 3      ...     0.096 sec
       Sorting integrals 4      ...     0.010 sec
       Sorting integrals 5      ...     0.027 sec
       Sorting integrals 6      ...     1.478 sec
   Calculating local VM**-1/2   ...     0.080 sec
   Orthogonal. integrals        ...     0.161 sec
   Multipl. 3-index integrals   ...     7.303 sec
   All concerning IRIab (w/TNO) ...     1.349 sec

 Calculate W0/W1                ...     2.593 sec
 W 3-ext contribution           ...     1.464 sec
 W 3-int contribution           ...     0.435 sec
 Sorting W                      ...     0.634 sec

 V exchange contribution        ...     0.450 sec

 Timings for Triples without generation
     of 3-index integrals       ...     8.328 sec
       0 weak pairs             ...     8.328 sec
       1 weak pair              ...     0.000 sec
       2 weak pairs             ...     0.000 sec
       3 weak pairs             ...     0.000 sec
  Extra time for extrapolation  ...     0.000 sec

Number of Triples   (0, 1, 2, 3 weak pairs; overall):    800       0       0       0  (   800)
Number of Atoms     (0, 1, 2, 3 weak pairs; overall):   15.3     0.0     0.0     0.0  (    16)
Number of PAOs      (0, 1, 2, 3 weak pairs; overall):  125.4     0.0     0.0     0.0  (   129)
Number of AuxFcns   (0, 1, 2, 3 weak pairs; overall):  199.4     0.0     0.0     0.0  (   454)
Number of TNOs      (0, 1, 2, 3 weak pairs         ):   59.9     0.0     0.0     0.0
Aver. Number of NTNO, Atoms, PAOs, AuxFcns / Triples:    800    59.9    15.3   125.4   199.4

Triples Correction (T)                     ...     -0.023046488
Final correlation energy                   ...     -0.810089223
E(CCSD)                                    ...   -499.410039895
E(CCSD(T))                                 ...   -499.433086383


Maximum memory used throughout the entire calculation: 2179.5 MB


------------------------------------------------------------------------------- 
                                     TIMINGS                                   
------------------------------------------------------------------------------- 


Total execution time                   ...       58.413 sec

Localization of occupied MO's          ...        0.438 sec (  0.7%)
Fock Matrix Formation                  ...        1.073 sec (  1.8%)
Global overlap, Fock, MKN matrices     ...        0.128 sec (  0.2%)
Differential overlap integrals         ...        0.093 sec (  0.2%)
Organizing maps                        ...        0.015 sec (  0.0%)
RI 3-index integral generations        ...        1.636 sec (  2.8%)
RI-PNO integral transformation         ...       10.805 sec ( 18.5%)
Initial Guess                          ...        2.513 sec (  4.3%)
DIIS Solver                            ...        0.343 sec (  0.6%)
State Vector Update                    ...        0.009 sec (  0.0%)
Sigma-vector construction              ...       24.870 sec ( 42.6%)
  <D|H|D>(0-ext)                       ...        1.091 sec (  4.4% of sigma)
  <D|H|D>(2-ext Fock)                  ...        0.008 sec (  0.0% of sigma)
  <D|H|D>(2-ext)                       ...        2.457 sec (  9.9% of sigma)
  <D|H|D>(4-ext)                       ...        1.493 sec (  6.0% of sigma)
  <D|H|D>(4-ext-corr)                  ...        7.453 sec ( 30.0% of sigma)
  CCSD doubles correction              ...        0.107 sec (  0.4% of sigma)
  <S|H|S>                              ...        0.179 sec (  0.7% of sigma)
  <S|H|D>(1-ext)                       ...        0.159 sec (  0.6% of sigma)
  <D|H|S>(1-ext)                       ...        0.007 sec (  0.0% of sigma)
  <S|H|D>(3-ext)                       ...        0.122 sec (  0.5% of sigma)
  Fock-dressing                        ...        2.741 sec ( 11.0% of sigma)
  Singles amplitudes                   ...        0.117 sec (  0.5% of sigma)
  (ik|jl)-dressing                     ...        0.762 sec (  3.1% of sigma)
  (ij|ab),(ia|jb)-dressing             ...        8.087 sec ( 32.5% of sigma)
  Pair energies                        ...        0.004 sec (  0.0% of sigma)
Total Time for computing (T)           ...       16.529 sec ( 28.3% of ALL)


-------------------------   --------------------
FINAL SINGLE POINT ENERGY      -499.433086383006
-------------------------   --------------------


                            ***************************************
                            *     ORCA property calculations      *
                            ***************************************

                                    ---------------------
                                    Active property flags
                                    ---------------------
   (+) Dipole Moment


------------------------------------------------------------------------------
                       ORCA ELECTRIC PROPERTIES CALCULATION
------------------------------------------------------------------------------

Dipole Moment Calculation                       ... on
Quadrupole Moment Calculation                   ... off
Polarizability Calculation                      ... off
GBWName                                         ... Et_P_Me2_a.gbw
Electron density file                           ... Et_P_Me2_a.scfp.tmp
The origin for moment calculation is the CENTER OF MASS  = ( 0.075387,  0.000001 -0.107191)

-------------
DIPOLE MOMENT
-------------
                                X             Y             Z
Electronic contribution:      3.49839      -0.00003      -4.93419
Nuclear contribution   :     -3.76930       0.00003       5.35948
                        -----------------------------------------
Total Dipole Moment    :     -0.27091       0.00000       0.42529
                        -----------------------------------------
Magnitude (a.u.)       :      0.50425
Magnitude (Debye)      :      1.28169



--------------------
Rotational spectrum 
--------------------
 
Rotational constants in cm-1:     0.149764     0.095526     0.081572 
Rotational constants in MHz :  4489.808358  2863.788674  2445.455966 

 Dipole components along the rotational axes: 
x,y,z [a.u.] :     0.283762     0.000001     0.416825 
x,y,z [Debye]:     0.721267     0.000003     1.059486 

 

Timings for individual modules:

Sum of individual times         ...       62.802 sec (=   1.047 min)
GTO integral calculation        ...        0.455 sec (=   0.008 min)   0.7 %
SCF iterations                  ...        3.792 sec (=   0.063 min)   6.0 %
MDCI module                     ...       58.555 sec (=   0.976 min)  93.2 %
                             ****ORCA TERMINATED NORMALLY****
TOTAL RUN TIME: 0 days 0 hours 1 minutes 3 seconds 44 msec
Et_P_Me2_a.gbw -> /home1/pantazis/klk/VDZ/Phosphorus_compounds/Et_P_Me2_a.gbw
Et_P_Me2_a.ges -> /home1/pantazis/klk/VDZ/Phosphorus_compounds/Et_P_Me2_a.ges
Et_P_Me2_a.job -> /home1/pantazis/klk/VDZ/Phosphorus_compounds/Et_P_Me2_a.job
Et_P_Me2_a.loc -> /home1/pantazis/klk/VDZ/Phosphorus_compounds/Et_P_Me2_a.loc
Et_P_Me2_a.nodes -> /home1/pantazis/klk/VDZ/Phosphorus_compounds/Et_P_Me2_a.nodes
Et_P_Me2_a.prop -> /home1/pantazis/klk/VDZ/Phosphorus_compounds/Et_P_Me2_a.prop
Et_P_Me2_a_property.txt -> /home1/pantazis/klk/VDZ/Phosphorus_compounds/Et_P_Me2_a_property.txt
Et_P_Me2_a.xyz -> /home1/pantazis/klk/VDZ/Phosphorus_compounds/Et_P_Me2_a.xyz
cp: cannot stat Et_P_Me2_a.asa.inp: No such file or directory
