! Job execution by suborca V 6.07 on ZEUS !
Job started from zeus1, running /scratch/pantazis/ethanol_a__HbWxeS/orca/orca copied from /opt/orca on zeussn119 in /scratch/pantazis/ethanol_a__HbWxeS
Job execution start: Sat Jun 29 11:48:03 CEST 2019
Shared library path: /scratch/pantazis/ethanol_a__HbWxeS/orca:/opt/openmpi_1.10.2/lib:/opt/intel/mkl/lib/intel64:/opt/intel/lib/intel64:
PBS Job ID is: 158905.icqc
izeussn119
izeussn119
izeussn119
izeussn119

                                 *****************
                                 * O   R   C   A *
                                 *****************

           --- An Ab Initio, DFT and Semiempirical electronic structure package ---

                  #######################################################
                  #                        -***-                        #
                  #          Department of theory and spectroscopy      #
                  #               Directorship: Frank Neese             #
                  #        Max Planck Institute fuer Kohlenforschung    #
                  #                Kaiser Wilhelm Platz 1               #
                  #                 D-45470 Muelheim/Ruhr               #
                  #                      Germany                        #
                  #                                                     #
                  #                  All rights reserved                #
                  #                        -***-                        #
                  #######################################################


                         Program Version 4.1.x  -  STABLE  -
                                (SVN: $Rev: 14094$)
                ($Date: 2019-06-14 15:01:15 +0200 (Fri, 14 Jun 2019) $)

                         (BUILD: $Sun Jun 23 06:18:31 CEST 2019$)


 With contributions from (in alphabetic order):
   Daniel Aravena         : Magnetic Properties
   Michael Atanasov       : Ab Initio Ligand Field Theory
   Alexander A. Auer      : GIAO ZORA
   Ute Becker             : Parallelization
   Giovanni Bistoni       : ED, Open-shell LED
   Martin Brehm           : Molecular dynamics
   Dmytro Bykov           : SCF Hessian
   Vijay G. Chilkuri      : MRCI spin determinant printing
   Dipayan Datta          : RHF DLPNO-CCSD density
   Achintya Kumar Dutta   : EOM-CC, STEOM-CC
   Dmitry Ganyushin       : Spin-Orbit,Spin-Spin,Magnetic field MRCI
   Miquel Garcia          : C-PCM Hessian
   Yang Guo               : DLPNO-NEVPT2, CIM, IAO-localization
   Andreas Hansen         : Spin unrestricted coupled pair/coupled cluster methods
   Benjamin Helmich-Paris : CASSCF linear response (MC-RPA)
   Lee Huntington         : MR-EOM, pCC
   Robert Izsak           : Overlap fitted RIJCOSX, COSX-SCS-MP3, EOM
   Christian Kollmar      : KDIIS, OOCD, Brueckner-CCSD(T), CCSD density
   Simone Kossmann        : Meta GGA functionals, TD-DFT gradient, OOMP2, MP2 Hessian
   Martin Krupicka        : AUTO-CI
   Lucas Lang             : DCDCAS
   Dagmar Lenk            : GEPOL surface, SMD
   Dimitrios Liakos       : Extrapolation schemes; parallel MDCI
   Dimitrios Manganas     : ROCIS; embedding schemes
   Dimitrios Pantazis     : SARC Basis sets
   Taras Petrenko         : DFT Hessian,TD-DFT gradient, ASA, ECA, R-Raman, ABS, FL, XAS/XES, NRVS
   Peter Pinski           : DLPNO-MP2, DLPNO-MP2 Gradient
   Christoph Reimann      : Effective Core Potentials
   Marius Retegan         : Local ZFS, SOC
   Christoph Riplinger    : Optimizer, TS searches, QM/MM, DLPNO-CCSD(T), (RO)-DLPNO pert. Triples
   Tobias Risthaus        : Range-separated hybrids, TD-DFT gradient, RPA, STAB
   Michael Roemelt        : Restricted open shell CIS
   Masaaki Saitow         : Open-shell DLPNO
   Barbara Sandhoefer     : DKH picture change effects
   Avijit Sen             : IP-ROCIS
   Kantharuban Sivalingam : CASSCF convergence, NEVPT2, FIC-MRCI
   Bernardo de Souza      : ESD, SOC TD-DFT
   Georgi Stoychev        : AutoAux, RI-MP2 NMR
   Willem Van den Heuvel  : Paramagnetic NMR
   Boris Wezisla          : Elementary symmetry handling
   Frank Wennmohs         : Technical directorship


 We gratefully acknowledge several colleagues who have allowed us to
 interface, adapt or use parts of their codes:
   Stefan Grimme, W. Hujo, H. Kruse,             : VdW corrections, initial TS optimization,
                  C. Bannwarth                     DFT functionals, gCP, sTDA/sTD-DF
   Ed Valeev                                     : LibInt (2-el integral package), F12 methods
   Garnet Chan, S. Sharma, J. Yang, R. Olivares  : DMRG
   Ulf Ekstrom                                   : XCFun DFT Library
   Mihaly Kallay                                 : mrcc  (arbitrary order and MRCC methods)
   Andreas Klamt, Michael Diedenhofen            : otool_cosmo (COSMO solvation model)
   Jiri Pittner, Ondrej Demel                    : Mk-CCSD
   Frank Weinhold                                : gennbo (NPA and NBO analysis)
   Christopher J. Cramer and Donald G. Truhlar   : smd solvation model
   Lars Goerigk                                  : TD-DFT with DH, B97 family of functionals
   V. Asgeirsson, H. Jonsson                     : NEB implementation
   FAccTs GmbH                                   : IRC, NEB, NEB-TS, Multilevel


 Your calculation uses the libint2 library for the computation of 2-el integrals
 For citations please refer to: http://libint.valeyev.net

 This ORCA versions uses:
   CBLAS   interface :  Fast vector & matrix operations
   LAPACKE interface :  Fast linear algebra routines
   SCALAPACK package :  Parallel linear algebra routines




***************************************
The coordinates will be read from file: ethanol_a.xyz
***************************************


----- Orbital basis set information -----
Your calculation utilizes the basis: cc-pVDZ 
       H, B-Ne : Obtained from the ccRepo (grant-hill.group.shef.ac.uk/ccrepo) Feb. 2017
                 T. H. Dunning, Jr., J. Chem. Phys. 90, 1007 (1989)
            He : Obtained from the ccRepo (grant-hill.group.shef.ac.uk/ccrepo) Feb. 2017
                 D. E. Woon, T. H. Dunning, Jr., J. Chem. Phys. 100, 2975 (1994)
  Li-Be, Na-Mg : Obtained from the ccRepo (grant-hill.group.shef.ac.uk/ccrepo) Feb. 2017
                 B. P. Prascher, D. E. Woon, K. A. Peterson, T. H. Dunning, Jr., A. K. Wilson, Theor. Chem. Acc. 128, 69 (2011)
         Al-Ar : Obtained from the ccRepo (grant-hill.group.shef.ac.uk/ccrepo) Feb. 2017
                 D. E. Woon, T. H. Dunning, Jr., J. Chem. Phys. 98, 1358 (1993)
            Ca : Obtained from the Peterson Research Group Website (tyr0.chem.wsu.edu/~kipeters) Feb. 2017
                 J. Koput, K. A. Peterson, J. Phys. Chem. 106, 9595 (2002)
         Sc-Zn : Obtained from the ccRepo (grant-hill.group.shef.ac.uk/ccrepo) Feb. 2017
                 N. B. Balabanov, K. A. Peterson, J. Chem. Phys. 123, 064107 (2005)
                 N. B. Balabanov, K. A. Peterson, J. Chem. Phys. 125, 074110 (2006)
         Ga-Kr : Obtained from the ccRepo (grant-hill.group.shef.ac.uk/ccrepo) Feb. 2017
                 A. K. Wilson, D. E. Woon, K. A. Peterson, T. H. Dunning, Jr., J. Chem. Phys. 110, 7667 (1999)

----- AuxC basis set information -----
Your calculation utilizes the auxiliary basis: cc-pVDZ/C 
  H-He, B, Ne, Al-Ar, Ga-Br : Obtained from the EMSL Basis Set Exchange (bse.pnl.gov) Feb. 2017
                              F. Weigend, A. Kohn, C. Hattig, J. Chem. Phys. 116, 3175 (2002)
               Li-Be, Na-Mg : Obtained from the EMSL Basis Set Exchange (bse.pnl.gov) Feb. 2017
                              C. Haettig, Phys. Chem. Chem. Phys. 7, 59 (2005)
                        C-F : Obtained from the EMSL Basis Set Exchange (bse.pnl.gov) Feb. 2017
                              C. Haettig, Phys. Chem. Chem. Phys. 7, 59 (2005)
                              F. Weigend, A. Kohn, C. Hattig, J. Chem. Phys. 116, 3175 (2002)
                         Kr : Obtained from the TURBOMOLE 7.0 basis set library
                              F. Weigend, A. Kohn, C. Hattig, J. Chem. Phys. 116, 3175 (2002)
                              S function revised in Sep. 2009

----- AuxJK basis set information -----
Your calculation utilizes the auxiliary basis: cc-pVTZ/JK 
  H, B-F, Al-Cl, Ga-Br : Obtained from the TURBOMOLE 7.0 basis set library

================================================================================
                                        WARNINGS
                       Please study these warnings very carefully!
================================================================================


WARNING: MDCI localization with Augmented Hessian Foster-Boys
  ===> : Switching off randomization!

WARNING: Post HF methods need fully converged wavefunctions
  ===> : Setting SCFConvForced true
         You can overwrite this default with %scf ConvForced false 


INFO   : the flag for use of LIBINT has been found!

================================================================================
                                       INPUT FILE
================================================================================
NAME = ethanol_a.inp
|  1> ! RHF DLPNO-CCSD(T) cc-pVDZ RIJK cc-pVTZ/JK cc-pVDZ/C
|  2> ! KDIIS SOSCF TightSCF TightPNO
|  3> 
|  4> %pal nprocs 4 end
|  5> 
|  6> %maxcore 8000
|  7> 
|  8> %scf maxiter 300
|  9>      shift shift 0.2 erroff 0.1 end
| 10> end
| 11> 
| 12> * xyzfile 0 1 ethanol_a.xyz 
| 13> 
| 14> 
| 15>                          ****END OF INPUT****
================================================================================

                       ****************************
                       * Single Point Calculation *
                       ****************************

---------------------------------
CARTESIAN COORDINATES (ANGSTROEM)
---------------------------------
  C     -1.225110   -0.223750    0.000010
  C      0.081930    0.550400   -0.000010
  O      1.155680   -0.396400   -0.000020
  H      1.997020    0.076890    0.000160
  H      0.139930    1.195790   -0.889470
  H      0.139940    1.195810    0.889440
  H     -1.293330   -0.861280    0.887020
  H     -1.293340   -0.861320   -0.886980
  H     -2.076600    0.465400    0.000000

----------------------------
CARTESIAN COORDINATES (A.U.)
----------------------------
  NO LB      ZA    FRAG     MASS         X           Y           Z
   0 C     6.0000    0    12.011   -2.315122   -0.422826    0.000019
   1 C     6.0000    0    12.011    0.154825    1.040105   -0.000019
   2 O     8.0000    0    15.999    2.183919   -0.749087   -0.000038
   3 H     1.0000    0     1.008    3.773821    0.145301    0.000302
   4 H     1.0000    0     1.008    0.264429    2.259716   -1.680855
   5 H     1.0000    0     1.008    0.264448    2.259753    1.680798
   6 H     1.0000    0     1.008   -2.444040   -1.627583    1.676225
   7 H     1.0000    0     1.008   -2.444058   -1.627659   -1.676149
   8 H     1.0000    0     1.008   -3.924205    0.879479    0.000000

--------------------------------
INTERNAL COORDINATES (ANGSTROEM)
--------------------------------
 C      0   0   0     0.000000000000     0.00000000     0.00000000
 C      1   0   0     1.519099004180     0.00000000     0.00000000
 O      2   1   0     1.431561840299   107.95719406     0.00000000
 H      3   2   1     0.965327121809   109.23550613   180.01211829
 H      2   1   3     1.100468692740   110.13473692   120.58631283
 H      2   1   3     1.100472866862   110.13440080   239.41275575
 H      1   2   3     1.094479423927   110.51711430    59.92003330
 H      1   2   3     1.094487139212   110.51727799   300.08201466
 H      1   2   3     1.095428200614   110.37722073   180.00101441

---------------------------
INTERNAL COORDINATES (A.U.)
---------------------------
 C      0   0   0     0.000000000000     0.00000000     0.00000000
 C      1   0   0     2.870681088212     0.00000000     0.00000000
 O      2   1   0     2.705259821937   107.95719406     0.00000000
 H      3   2   1     1.824203889865   109.23550613   180.01211829
 H      2   1   3     2.079584448232   110.13473692   120.58631283
 H      2   1   3     2.079592336181   110.13440080   239.41275575
 H      1   2   3     2.068266370434   110.51711430    59.92003330
 H      1   2   3     2.068280950209   110.51727799   300.08201466
 H      1   2   3     2.070059298534   110.37722073   180.00101441

---------------------
BASIS SET INFORMATION
---------------------
There are 3 groups of distinct atoms

 Group   1 Type C   : 17s4p1d contracted to 3s2p1d pattern {881/31/1}
 Group   2 Type O   : 17s4p1d contracted to 3s2p1d pattern {881/31/1}
 Group   3 Type H   : 4s1p contracted to 2s1p pattern {31/1}

Atom   0C    basis set group =>   1
Atom   1C    basis set group =>   1
Atom   2O    basis set group =>   2
Atom   3H    basis set group =>   3
Atom   4H    basis set group =>   3
Atom   5H    basis set group =>   3
Atom   6H    basis set group =>   3
Atom   7H    basis set group =>   3
Atom   8H    basis set group =>   3
-------------------------------
AUXILIARY BASIS SET INFORMATION
-------------------------------
There are 3 groups of distinct atoms

 Group   1 Type C   : 7s5p4d2f contracted to 7s5p4d2f pattern {1111111/11111/1111/11}
 Group   2 Type O   : 7s5p4d2f contracted to 7s5p4d2f pattern {1111111/11111/1111/11}
 Group   3 Type H   : 3s2p1d contracted to 3s2p1d pattern {111/11/1}

Atom   0C    basis set group =>   1
Atom   1C    basis set group =>   1
Atom   2O    basis set group =>   2
Atom   3H    basis set group =>   3
Atom   4H    basis set group =>   3
Atom   5H    basis set group =>   3
Atom   6H    basis set group =>   3
Atom   7H    basis set group =>   3
Atom   8H    basis set group =>   3
-------------------------------
AUXILIARY BASIS SET INFORMATION
-------------------------------
There are 3 groups of distinct atoms

 Group   1 Type C   : 10s7p5d2f1g contracted to 10s7p5d2f1g pattern {1111111111/1111111/11111/11/1}
 Group   2 Type O   : 10s7p5d2f1g contracted to 10s7p5d2f1g pattern {1111111111/1111111/11111/11/1}
 Group   3 Type H   : 4s3p2d1f contracted to 4s3p2d1f pattern {1111/111/11/1}

Atom   0C    basis set group =>   1
Atom   1C    basis set group =>   1
Atom   2O    basis set group =>   2
Atom   3H    basis set group =>   3
Atom   4H    basis set group =>   3
Atom   5H    basis set group =>   3
Atom   6H    basis set group =>   3
Atom   7H    basis set group =>   3
Atom   8H    basis set group =>   3

Checking for AutoStart:
The File: ethanol_a.gbw exists
Trying to determine its content:
     ... Fine, the file contains calculation information
     ... Fine, the calculation information was read
     ... Fine, the file contains a basis set
     ... Fine, the basis set was read
     ... Fine, the file contains a geometry
     ... Fine, the geometry was read
     ... Fine, the file contains a set of orbitals
     ... Fine, the orbitals can be read
     => possible old guess file was deleted
     => GBW file was renamed to GES file
     => GES file is set as startup file
     => Guess is set to MORead
     ... now leaving AutoStart



           ************************************************************
           *        Program running with 4 parallel MPI-processes     *
           *              working on a common directory               *
           ************************************************************
------------------------------------------------------------------------------
                           ORCA GTO INTEGRAL CALCULATION
                           -- RI-GTO INTEGRALS CHOSEN --
------------------------------------------------------------------------------

                         BASIS SET STATISTICS AND STARTUP INFO

Gaussian basis set:
 # of primitive gaussian shells          ...   96
 # of primitive gaussian functions       ...  144
 # of contracted shells                  ...   36
 # of contracted basis functions         ...   72
 Highest angular momentum                ...    2
 Maximum contraction depth               ...    8
Auxiliary gaussian basis set:
 # of primitive gaussian shells          ...  135
 # of primitive gaussian functions       ...  417
 # of contracted shells                  ...  135
 # of contracted aux-basis functions     ...  417
 Highest angular momentum                ...    4
 Maximum contraction depth               ...    1
Ratio of auxiliary to basis functions    ...  5.79
Integral package used                  ... LIBINT
 One Electron integrals                  ... done
 Ordering auxiliary basis shells         ... done
 Integral threshhold             Thresh  ...  2.500e-11
 Primitive cut-off               TCut    ...  2.500e-12
 Pre-screening matrix                    ... done
 Shell pair data                         ... 
 Ordering of the shell pairs             ... done (   0.000 sec) 666 of 666 pairs
 Determination of significant pairs      ... done (   0.000 sec)
 Creation of shell pair data             ... done (   0.000 sec)
 Storage of shell pair data              ... done (   0.002 sec)
 Shell pair data done in (   0.002 sec)
 Computing two index integrals           ... done
 Cholesky decomposition of the V-matrix  ... done


Timings:
 Total evaluation time                   ...   3.074 sec (  0.051 min)
 One electron matrix time                ...   2.858 sec (  0.048 min) = 93.0%
 Schwartz matrix evaluation time         ...   0.132 sec (  0.002 min) =  4.3%
 Two index repulsion integral time       ...   0.022 sec (  0.000 min) =  0.7%
 Cholesky decomposition of V             ...   0.034 sec (  0.001 min) =  1.1%
 Three index repulsion integral time     ...   0.000 sec (  0.000 min) =  0.0%



           ************************************************************
           *        Program running with 4 parallel MPI-processes     *
           *              working on a common directory               *
           ************************************************************
-------------------------------------------------------------------------------
                                 ORCA SCF
-------------------------------------------------------------------------------

------------
SCF SETTINGS
------------
Hamiltonian:
 Ab initio Hamiltonian  Method          .... Hartree-Fock(GTOs)
 RI-approximation to the Coulomb term is turned on
   Number of auxiliary basis functions  .... 417
   RI-JK (J+K treated both via RI)      .... on


General Settings:
 Integral files         IntName         .... ethanol_a
 Hartree-Fock type      HFTyp           .... RHF
 Total Charge           Charge          ....    0
 Multiplicity           Mult            ....    1
 Number of Electrons    NEL             ....   26
 Basis Dimension        Dim             ....   72
 Nuclear Repulsion      ENuc            ....     81.5013710152 Eh

Convergence Acceleration:
 DIIS                   CNVDIIS         .... off
 Newton-Raphson         CNVNR           .... off
 SOSCF                  CNVSOSCF        .... on
   Start iteration      SOSCFMaxIt      ....   150
   Startup grad/error   SOSCFStart      ....  0.003300
 Level Shifting         CNVShift        .... on
   Level shift para.    LevelShift      ....    0.2000
   Turn off err/grad.   ShiftErr        ....    0.1000
 Zerner damping         CNVZerner       .... off
 Static damping         CNVDamp         .... off
 Fernandez-Rico         CNVRico         .... off

SCF Procedure:
 Maximum # iterations   MaxIter         ....   300
 SCF integral mode      SCFMode         .... Direct
   Integral package                     .... LIBINT
 Reset frequency        DirectResetFreq ....    20
 Integral Threshold     Thresh          ....  2.500e-11 Eh
 Primitive CutOff       TCut            ....  2.500e-12 Eh

Convergence Tolerance:
 Convergence Check Mode ConvCheckMode   .... Total+1el-Energy
 Convergence forced     ConvForced      .... 1
 Energy Change          TolE            ....  1.000e-08 Eh
 1-El. energy change                    ....  1.000e-05 Eh
 Orbital Gradient       TolG            ....  1.000e-05
 Orbital Rotation angle TolX            ....  1.000e-05


Diagonalization of the overlap matrix:
Smallest eigenvalue                        ... 6.302e-03
Time for diagonalization                   ...    0.003 sec
Threshold for overlap eigenvalues          ... 1.000e-08
Number of eigenvalues below threshold      ... 0
Time for construction of square roots      ...    0.004 sec
Total time needed                          ...    0.007 sec

---------------------
INITIAL GUESS: MOREAD
---------------------
Guess MOs are being read from file: ethanol_a.ges
Input Geometry matches current geometry (good)
Atom 0: N(Shells)= 6 and 10 - projection required
Input basis set needs projection
NBasis(read)= 174
NBasis(calc)= 72
Basis set overlap was calculated
Using GuessMode=FMatrix for the initial guess
C*T matrix was formed
Effective Fockian was calculated
Effective Fockian was diagonalized
Initial density was built
                      ------------------
                      INITIAL GUESS DONE (   0.0 sec)
                      ------------------
--------------
SCF ITERATIONS
--------------
ITER       Energy         Delta-E        Max-DP      RMS-DP      [F,P]   Gradient Norm
                             ****Turning on KDIIS(Cayley)****
  0   -154.0913310415   0.000000000000 0.00107915  0.00006627  0.0053026   0.005776494
  1   -154.0913994287  -0.000068387187 0.00223211  0.00013005  0.0047992   0.005211505
  2   -154.0915061257  -0.000106697081 0.00389945  0.00022546  0.0038523   0.004246337
                      *** Initiating the SOSCF procedure ***
                           *** Shutting down KDIIS ***
                      *** Re-Reading the Fockian *** 
                      *** Removing any level shift *** 
ITER      Energy       Delta-E        Grad      Rot      Max-DP    RMS-DP
  3   -154.09164455  -0.0001384206  0.002306  0.002306  0.005932  0.000344
  4   -154.09172457  -0.0000800254  0.000026  0.000020  0.000054  0.000003
  5   -154.09172459  -0.0000000137  0.000009  0.000011  0.000042  0.000002
                  ***Gradient check signals convergence***
              ***Rediagonalizing the Fockian in SOSCF/NRSCF***

               *****************************************************
               *                     SUCCESS                       *
               *           SCF CONVERGED AFTER   6 CYCLES          *
               *****************************************************


----------------
TOTAL SCF ENERGY
----------------

Total Energy       :         -154.09172459 Eh           -4193.04900 eV

Components:
Nuclear Repulsion  :           81.50137102 Eh            2217.76505 eV
Electronic Energy  :         -235.59309560 Eh           -6410.81405 eV
One Electron Energy:         -371.01846036 Eh          -10095.92557 eV
Two Electron Energy:          135.42536476 Eh            3685.11152 eV

Virial components:
Potential Energy   :         -307.98540892 Eh           -8380.70904 eV
Kinetic Energy     :          153.89368434 Eh            4187.66005 eV
Virial Ratio       :            2.00128686


---------------
SCF CONVERGENCE
---------------

  Last Energy change         ...   -3.0458e-09  Tolerance :   1.0000e-08
  Last MAX-Density change    ...    6.9611e-06  Tolerance :   1.0000e-07
  Last RMS-Density change    ...    3.3164e-07  Tolerance :   5.0000e-09
  Last Orbital Gradient      ...    1.7425e-06  Tolerance :   1.0000e-05
  Last Orbital Rotation      ...    2.6508e-06  Tolerance :   1.0000e-05

             **** THE GBW FILE WAS UPDATED (ethanol_a.gbw) ****
             **** DENSITY FILE WAS UPDATED (ethanol_a.scfp.tmp) ****
             **** ENERGY FILE WAS UPDATED (ethanol_a.en.tmp) ****
----------------
ORBITAL ENERGIES
----------------

  NO   OCC          E(Eh)            E(eV) 
   0   2.0000     -20.547056      -559.1138 
   1   2.0000     -11.278261      -306.8971 
   2   2.0000     -11.219575      -305.3002 
   3   2.0000      -1.345267       -36.6066 
   4   2.0000      -1.008232       -27.4354 
   5   2.0000      -0.830604       -22.6019 
   6   2.0000      -0.688493       -18.7348 
   7   2.0000      -0.638136       -17.3646 
   8   2.0000      -0.562556       -15.3079 
   9   2.0000      -0.528355       -14.3773 
  10   2.0000      -0.520136       -14.1536 
  11   2.0000      -0.481868       -13.1123 
  12   2.0000      -0.435295       -11.8450 
  13   0.0000       0.182215         4.9583 
  14   0.0000       0.215193         5.8557 
  15   0.0000       0.246414         6.7053 
  16   0.0000       0.248549         6.7634 
  17   0.0000       0.268298         7.3008 
  18   0.0000       0.293316         7.9815 
  19   0.0000       0.378158        10.2902 
  20   0.0000       0.395948        10.7743 
  21   0.0000       0.605407        16.4740 
  22   0.0000       0.615097        16.7376 
  23   0.0000       0.660484        17.9727 
  24   0.0000       0.747717        20.3464 
  25   0.0000       0.753201        20.4956 
  26   0.0000       0.806480        21.9454 
  27   0.0000       0.860507        23.4156 
  28   0.0000       0.870242        23.6805 
  29   0.0000       0.887910        24.1613 
  30   0.0000       0.897256        24.4156 
  31   0.0000       0.907205        24.6863 
  32   0.0000       0.939238        25.5580 
  33   0.0000       1.129192        30.7269 
  34   0.0000       1.152731        31.3674 
  35   0.0000       1.175708        31.9927 
  36   0.0000       1.262427        34.3524 
  37   0.0000       1.328556        36.1519 
  38   0.0000       1.427753        38.8511 
  39   0.0000       1.468219        39.9523 
  40   0.0000       1.527377        41.5620 
  41   0.0000       1.570030        42.7227 
  42   0.0000       1.602642        43.6101 
  43   0.0000       1.690630        46.0044 
  44   0.0000       1.773908        48.2705 
  45   0.0000       1.869406        50.8691 
  46   0.0000       1.884963        51.2924 
  47   0.0000       1.889059        51.4039 
  48   0.0000       1.912179        52.0330 
  49   0.0000       1.936886        52.7053 
  50   0.0000       1.966841        53.5205 
  51   0.0000       1.977231        53.8032 
  52   0.0000       1.997319        54.3498 
  53   0.0000       2.090676        56.8902 
  54   0.0000       2.185150        59.4609 
  55   0.0000       2.239189        60.9314 
  56   0.0000       2.275329        61.9149 
  57   0.0000       2.314485        62.9804 
  58   0.0000       2.480260        67.4913 
  59   0.0000       2.512875        68.3788 
  60   0.0000       2.524027        68.6823 
  61   0.0000       2.580207        70.2110 
  62   0.0000       2.752144        74.8896 
  63   0.0000       2.763333        75.1941 
  64   0.0000       2.800288        76.1997 
  65   0.0000       2.889329        78.6226 
  66   0.0000       2.905528        79.0634 
  67   0.0000       3.321178        90.3738 
  68   0.0000       3.404726        92.6473 
  69   0.0000       3.450201        93.8847 
  70   0.0000       3.607794        98.1731 
  71   0.0000       4.115729       111.9947 

                    ********************************
                    * MULLIKEN POPULATION ANALYSIS *
                    ********************************

-----------------------
MULLIKEN ATOMIC CHARGES
-----------------------
   0 C :   -0.063978
   1 C :    0.152804
   2 O :   -0.393216
   3 H :    0.163471
   4 H :    0.015646
   5 H :    0.015645
   6 H :    0.042227
   7 H :    0.042230
   8 H :    0.025172
Sum of atomic charges:    0.0000000

--------------------------------
MULLIKEN REDUCED ORBITAL CHARGES
--------------------------------
  0 C s       :     3.055396  s :     3.055396
      pz      :     1.020535  p :     2.949125
      px      :     0.942107
      py      :     0.986483
      dz2     :     0.011618  d :     0.059458
      dxz     :     0.004599
      dyz     :     0.017880
      dx2y2   :     0.006806
      dxy     :     0.018554
  1 C s       :     3.040250  s :     3.040250
      pz      :     0.975123  p :     2.676765
      px      :     0.830202
      py      :     0.871440
      dz2     :     0.018220  d :     0.130181
      dxz     :     0.015039
      dyz     :     0.032480
      dx2y2   :     0.025714
      dxy     :     0.038727
  2 O s       :     3.729725  s :     3.729725
      pz      :     1.925605  p :     4.649388
      px      :     1.162156
      py      :     1.561627
      dz2     :     0.002355  d :     0.014103
      dxz     :     0.000573
      dyz     :     0.001461
      dx2y2   :     0.001685
      dxy     :     0.008030
  3 H s       :     0.755602  s :     0.755602
      pz      :     0.021256  p :     0.080927
      px      :     0.038896
      py      :     0.020775
  4 H s       :     0.956251  s :     0.956251
      pz      :     0.015770  p :     0.028102
      px      :     0.002661
      py      :     0.009672
  5 H s       :     0.956253  s :     0.956253
      pz      :     0.015769  p :     0.028102
      px      :     0.002661
      py      :     0.009672
  6 H s       :     0.927132  s :     0.927132
      pz      :     0.015482  p :     0.030642
      px      :     0.004593
      py      :     0.010567
  7 H s       :     0.927129  s :     0.927129
      pz      :     0.015481  p :     0.030641
      px      :     0.004593
      py      :     0.010568
  8 H s       :     0.944262  s :     0.944262
      pz      :     0.005349  p :     0.030566
      px      :     0.014468
      py      :     0.010749


                     *******************************
                     * LOEWDIN POPULATION ANALYSIS *
                     *******************************

----------------------
LOEWDIN ATOMIC CHARGES
----------------------
   0 C :   -0.055906
   1 C :    0.015624
   2 O :   -0.092445
   3 H :    0.046377
   4 H :    0.005433
   5 H :    0.005433
   6 H :    0.026026
   7 H :    0.026028
   8 H :    0.023432

-------------------------------
LOEWDIN REDUCED ORBITAL CHARGES
-------------------------------
  0 C s       :     2.800445  s :     2.800445
      pz      :     1.053330  p :     3.097747
      px      :     1.009537
      py      :     1.034879
      dz2     :     0.031217  d :     0.157715
      dxz     :     0.010122
      dyz     :     0.048738
      dx2y2   :     0.019000
      dxy     :     0.048638
  1 C s       :     2.807412  s :     2.807412
      pz      :     1.044718  p :     2.874605
      px      :     0.889291
      py      :     0.940596
      dz2     :     0.041602  d :     0.302360
      dxz     :     0.033686
      dyz     :     0.087335
      dx2y2   :     0.053799
      dxy     :     0.085937
  2 O s       :     3.406014  s :     3.406014
      pz      :     1.857715  p :     4.661447
      px      :     1.222478
      py      :     1.581254
      dz2     :     0.004020  d :     0.024984
      dxz     :     0.001097
      dyz     :     0.001435
      dx2y2   :     0.003946
      dxy     :     0.014485
  3 H s       :     0.746345  s :     0.746345
      pz      :     0.060498  p :     0.207279
      px      :     0.085078
      py      :     0.061703
  4 H s       :     0.919388  s :     0.919388
      pz      :     0.037502  p :     0.075179
      px      :     0.012814
      py      :     0.024864
  5 H s       :     0.919388  s :     0.919388
      pz      :     0.037500  p :     0.075179
      px      :     0.012814
      py      :     0.024864
  6 H s       :     0.895232  s :     0.895232
      pz      :     0.036626  p :     0.078743
      px      :     0.015348
      py      :     0.026769
  7 H s       :     0.895231  s :     0.895231
      pz      :     0.036624  p :     0.078741
      px      :     0.015348
      py      :     0.026769
  8 H s       :     0.898637  s :     0.898637
      pz      :     0.015779  p :     0.077931
      px      :     0.034705
      py      :     0.027447


                      *****************************
                      * MAYER POPULATION ANALYSIS *
                      *****************************

  NA   - Mulliken gross atomic population
  ZA   - Total nuclear charge
  QA   - Mulliken gross atomic charge
  VA   - Mayer's total valence
  BVA  - Mayer's bonded valence
  FA   - Mayer's free valence

  ATOM       NA         ZA         QA         VA         BVA        FA
  0 C      6.0640     6.0000    -0.0640     3.9975     3.9975     0.0000
  1 C      5.8472     6.0000     0.1528     4.0246     4.0246    -0.0000
  2 O      8.3932     8.0000    -0.3932     1.9962     1.9962     0.0000
  3 H      0.8365     1.0000     0.1635     1.0215     1.0215    -0.0000
  4 H      0.9844     1.0000     0.0156     0.9589     0.9589    -0.0000
  5 H      0.9844     1.0000     0.0156     0.9589     0.9589    -0.0000
  6 H      0.9578     1.0000     0.0422     0.9794     0.9794    -0.0000
  7 H      0.9578     1.0000     0.0422     0.9794     0.9794     0.0000
  8 H      0.9748     1.0000     0.0252     0.9752     0.9752    -0.0000

  Mayer bond orders larger than 0.1
B(  0-C ,  1-C ) :   1.0710 B(  0-C ,  6-H ) :   0.9799 B(  0-C ,  7-H ) :   0.9799 
B(  0-C ,  8-H ) :   0.9789 B(  1-C ,  2-O ) :   0.9933 B(  1-C ,  4-H ) :   0.9703 
B(  1-C ,  5-H ) :   0.9703 B(  2-O ,  3-H ) :   1.0002 

-------
TIMINGS
-------

Total SCF time: 0 days 0 hours 0 min 1 sec 

Total time                  ....       1.398 sec
Sum of individual times     ....       1.267 sec  ( 90.6%)

Fock matrix formation       ....       1.217 sec  ( 87.1%)
Diagonalization             ....       0.022 sec  (  1.6%)
Density matrix formation    ....       0.000 sec  (  0.0%)
Population analysis         ....       0.003 sec  (  0.2%)
Initial guess               ....       0.012 sec  (  0.8%)
Orbital Transformation      ....       0.000 sec  (  0.0%)
Orbital Orthonormalization  ....       0.000 sec  (  0.0%)
DIIS solution               ....       0.000 sec  (  0.0%)
SOSCF solution              ....       0.012 sec  (  0.9%)


           ************************************************************
           *        Program running with 4 parallel MPI-processes     *
           *              working on a common directory               *
           ************************************************************


------------------------------------------------------------------------------- 
                              ORCA-MATRIX DRIVEN CI                            
------------------------------------------------------------------------------- 


Wavefunction type
-----------------
Correlation treatment                      ...      CCSD     
Single excitations                         ... ON
Orbital optimization                       ... OFF
Calculation of Z vector                    ... OFF
Calculation of Brueckner orbitals          ... OFF
Perturbative triple excitations            ... ON
Calculation of F12 correction              ... OFF
Frozen core treatment                      ... chemical core (6 el)
Reference Wavefunction                     ... RHF
  Internal Orbitals:     3 ...   12 ( 10 MO's/ 20 electrons)
  Virtual  Orbitals:    13 ...   71 ( 59 MO's              )
Number of AO's                             ...     72
Number of electrons                        ...     26
Number of correlated electrons             ...     20

Algorithmic settings
--------------------
Integral transformation                    ... All integrals via the RI transformation
K(C) Formation                             ... RI-DLPNO
   PNO-Integral Storage                    ... ON DISK
   PNO occupation number cut-off           ... 1.000e-07
   Singles PNO occupation number cut-off   ... 3.000e-09
   PNO Mulliken prescreening cut-off       ... 1.000e-03
   Domain cut-off (Mulliken population)    ... 1.000e-03
   PNO Normalization                       ...    1
Maximum number of iterations               ...        50
Convergence tolerance (max. residuum)      ... 1.000e-05
Level shift for amplitude update           ... 2.000e-01
Maximum number of DIIS vectors             ...         7
DIIS turned on at iteration                ...         0
Damping before turning on DIIS             ...     0.500
Damping after turning on DIIS              ...     0.000
Pair specific amplitude update             ... OFF
Natural orbital iterations                 ... OFF
Perturbative natural orbital generation    ... OFF
Printlevel                                 ... 2

Singles Fock matrix elements calculated using PNOs.

Memory handling:
----------------
Maximum memory for working arrays          ...   8000 MB
Data storage in matrix containers          ... UNCOMPRESSED
Data type for integral storage             ... DOUBLE
In-Core Storage of quantities:
   Amplitudes+Sigma Vector      ... NO
   J+K operators                ... NO
   DIIS vectors                 ... NO
   3-external integrals         ... NO
   4-external integrals         ... NO

Localization treatment:
-----------------------
Localization option                        ...    6
Localization threshhold                    ... -1.0e+00
Using relative localization threshhold     ... 1.0e-08
Neglect threshold for strong pairs         ... 1.000e-05 Eh
Prescreening threshold for very weak pairs ... 1.000e-07 Eh

Initializing the integral package          ... done
Localizing the valence orbitals
------------------------------------------------------------------------------
                           ORCA ORBITAL LOCALIZATION
------------------------------------------------------------------------------

Input orbitals are from                  ... ethanol_a.proc0.gbw
Output orbitals are to                   ... ethanol_a.proc0.loc
Max. number of iterations                ... 128
Localizations seeded randomly            ... off
Convergence tolerance                    ... 1.000e-06
Using relative localization threshhold   ... 1.000e-08
Treshold for strong local MOs            ... 9.500e-01
Treshold for bond MOs                    ... 8.500e-01
Operator                                 ... 0
Orbital range for localization           ... 3 to 12
Localization criterion                   ... FOSTER-BOYS (AUGMENTED HESSIAN)
Doing the dipole integrals     ... o.k.
Initial value of the localization sum :    59.012784
ITERATION   0 : L=   62.6581974481 DL=  3.65e+00 (AVERGE_DL)=    0.2846211415 
ITERATION   1 : L=   63.3042708196 DL=  6.46e-01 (AVERGE_DL)=    0.1198214757 
ITERATION   2 : L=   63.3251473026 DL=  2.09e-02 (AVERGE_DL)=    0.0215388450 
ITERATION   3 : L=   63.3268317672 DL=  1.68e-03 (AVERGE_DL)=    0.0061182143 
ITERATION   4 : L=   63.3269663707 DL=  1.35e-04 (AVERGE_DL)=    0.0017295053 
ITERATION   5 : L=   63.3269791832 DL=  1.28e-05 (AVERGE_DL)=    0.0005335935 
ITERATION   6 : L=   63.3269803198 DL=  1.14e-06 (AVERGE_DL)=    0.0001589285 
ITERATION   7 : L=   63.3269804169 DL=  9.71e-08 (AVERGE_DL)=    0.0000464567 
LOCALIZATION SUM CONVERGED

------------------------------------------------------
AUGMENTED HESSIAN OPTIMIZATION OF FOSTER-BOYS ORBITALS
------------------------------------------------------

Spin operator:           0
Orbital window:          3 to 12
Number of iterations:    128
Gradient tolerance:      1.000e-06
Number of pairs:         45
Davidson threshold:      2000
Diagonalization method:  LAPACK
Iter:    0   L: 63.3269804169   Grad. norm: 4.352654e-04
   *** Likely close to a maximum now. ***
       Augmented Hessian eigenvalues:  1.91e-08 -1.39e+00 -3.66e+00 -5.31e+00 ... 
Iter:    1   L: 63.3269804265   Grad. norm: 4.994577e-09
LOCALIZATION HAS CONVERGED.

Eigenvalues of the Hessian:
  0 -1.387e+00
  1 -3.661e+00
  2 -5.306e+00
  3 -5.610e+00
  4 -7.608e+00
  5 -1.052e+01
  6 -1.730e+01
  7 -1.791e+01
  8 -1.791e+01
  9 -1.868e+01
    ...


------------------------------------------------------------------------------- 
                    LOCALIZED MOLECULAR ORBITAL COMPOSITIONS                   
------------------------------------------------------------------------------- 

The Mulliken populations for each LMO on each atom are computed
The LMO`s will be ordered according to atom index and type
  (A) Strongly localized MO`s have populations of >=0.950 on one atom
  (B) Two center bond orbitals have populations of >=0.850 on two atoms
  (C) Other MO`s are considered to be `delocalized`

FOUND  -   2 strongly local MO`s
       -   8 two center bond MO`s
       -   0 significantly delocalized MO`s

Rather strongly localized orbitals:
MO   4:   2O  -   0.988241
MO   3:   2O  -   0.988242
Bond-like localized orbitals:
MO  12:   8H  -   0.505948  and   0C  -   0.503666
MO  11:   7H  -   0.494015  and   0C  -   0.518020
MO  10:   6H  -   0.494016  and   0C  -   0.518019
MO   9:   5H  -   0.515317  and   1C  -   0.504476
MO   8:   4H  -   0.515315  and   1C  -   0.504478
MO   7:   3H  -   0.419139  and   2O  -   0.582419
MO   6:   2O  -   0.661280  and   1C  -   0.353648
MO   5:   1C  -   0.537553  and   0C  -   0.502469
Localized MO's were stored in: ethanol_a.proc0.loc

Localizing the core orbitals
------------------------------------------------------------------------------
                           ORCA ORBITAL LOCALIZATION
------------------------------------------------------------------------------

Input orbitals are from                  ... ethanol_a.proc0.loc
Output orbitals are to                   ... ethanol_a.proc0.loc
Max. number of iterations                ... 128
Localizations seeded randomly            ... off
Convergence tolerance                    ... 1.000e-06
Using relative localization threshhold   ... 1.000e-08
Treshold for strong local MOs            ... 9.500e-01
Treshold for bond MOs                    ... 8.500e-01
Operator                                 ... 0
Orbital range for localization           ... 0 to 2
Localization criterion                   ... FOSTER-BOYS (AUGMENTED HESSIAN)
Doing the dipole integrals     ... o.k.
Initial value of the localization sum :    11.974831
ITERATION   0 : L=   11.9748313070 DL=  6.07e-07 (AVERGE_DL)=    0.0004498411 
LOCALIZATION SUM CONVERGED

------------------------------------------------------
AUGMENTED HESSIAN OPTIMIZATION OF FOSTER-BOYS ORBITALS
------------------------------------------------------

Spin operator:           0
Orbital window:          0 to 2
Number of iterations:    128
Gradient tolerance:      1.000e-06
Number of pairs:         3
Davidson threshold:      2000
Diagonalization method:  LAPACK
Iter:    0   L: 11.9748313070   Grad. norm: 1.016175e-08
   *** Likely close to a maximum now. ***
       Augmented Hessian eigenvalues:  3.11e-18 -2.93e+01 -3.30e+01 -8.14e+01
Iter:    1   L: 11.9748313070   Grad. norm: 2.083120e-21
LOCALIZATION HAS CONVERGED.

Eigenvalues of the Hessian:
  0 -2.927e+01
  1 -3.296e+01
  2 -8.139e+01


------------------------------------------------------------------------------- 
                    LOCALIZED MOLECULAR ORBITAL COMPOSITIONS                   
------------------------------------------------------------------------------- 

The Mulliken populations for each LMO on each atom are computed
The LMO`s will be ordered according to atom index and type
  (A) Strongly localized MO`s have populations of >=0.950 on one atom
  (B) Two center bond orbitals have populations of >=0.850 on two atoms
  (C) Other MO`s are considered to be `delocalized`

FOUND  -   3 strongly local MO`s
       -   0 two center bond MO`s
       -   0 significantly delocalized MO`s

Rather strongly localized orbitals:
MO   2:   2O  -   0.999839
MO   1:   1C  -   0.999540
MO   0:   0C  -   0.999534
Localized MO's were stored in: ethanol_a.proc0.loc

Warning: internal orbitals are localized - no re-canonicalization of internal orbitals

--------------------------
CLOSED-SHELL FOCK OPERATOR
--------------------------

RI-JK section for the Fock operator:
  RHF full Fock operator         ... done
  RHF frozen core Fock operator  ... done
Time needed for Fock operator              ...            0.468 sec
Reference energy                           ...   -154.091724589

--------------
DLPNO SETTINGS (2015 fully linear scaling implementation)
--------------

TCutMKN:           1.000e-03
TCutPAO:           1.000e-03
TCutPNO:           1.000e-07
TCutPNOSingles:    3.000e-09
TCutEN:            9.700e-01
TCutPAOExt:        1.000e-01
TCutPairs:         1.000e-05
TCutPre:           1.000e-07
TCutOSV:           1.000e-06
TCutDOij:          1.000e-05
TCutDO:            5.000e-03
TCutC:             1.000e-04
TCutCPAO:          1.000e-03
TCutCMO:           1.000e-03
TScaleDOMP2PreScr: 2.000e+00
TScaleMKNMP2PreScr:1.000e+01
TScalePNOMP2PreScr:1.000e+00
PAO overlap thresh 1.000e-08
Using PNOs for Singles Fock computation
Use new domains
Use fully linear algorithm
TCutTNO:           1.000e-09
TCutMP2Pairs:      1.000e-06
TCutDOStrong:      2.000e-03
TCutMKNStrong:     1.000e-02
TCutMKNWeak:       1.000e-01
TCutDOWeak:        4.000e-03
NTCutTNO:          1

--------------------------
Calculating differential overlap integrals ... ok
--------------------------
ELECTRON PAIR PRESCREENING
--------------------------

Dipole-based pair screening          .... used

   TCutDOij = 1.000000e-05
   TCutPre  = 1.000000e-07
   .... Finished loop over pairs
Total time spent in the prescreening                  ...     0.000 sec
sum of pair energies estimated for screened out pairs ...       0.000000000000 Eh
Thresholds for map construction and integral transformation for crude MP2:
   TCutMKN                    ...     1.0e-02
   TCutDO                     ...     1.0e-02
   TCutPairs                  ...     1.0e-05
   TCutPNO_CrudeMP2           ...     1.0e-07
   TCutPNOSingles_CrudeMP2    ...     3.0e-09
--------------------------------
LOCAL RI TRANSFORMATION (IAVPAO)
--------------------------------

Orbital window:       3 to 12
Number of PAOs:      72
Basis functions:     72 (36 shells)
Aux. functions:     252 (90 shells)

Processing maps (0.0 sec)
Average map sizes:
   Aux shells -> MOs              10.0
   Aux shells -> PAOs             72.0
   MOs        -> AO shells        36.0
   PAOs       -> AO shells        36.0

Calculating integrals (0.2 sec, 1.387 MB)
Sorting integrals (0.0 sec, 1.384 MB)
Total time for the integral transformation: 0.2 sec
--------------------------------
INITIAL GUESS AND PNO GENERATION
--------------------------------

PNO truncation parameters                   .... 
    PAOOverlapThresh   =        1.000e-08

    TCutPairs          =        1.000e-05
    TCutPNO            =        1.000e-07
    TCutPNOSingles     =        3.000e-09
    TCutMP2Pairs       =        1.000e-06
    TCutMKN            =        1.000e-02
    TCutDO             =        1.000e-02

Pair selection                          .... not used
Type of local MP2 treatment                 .... semi-local MP2
Strategy for PNO selection                  .... occupation number selection
Pair density normalization                  .... MP2 norm
Spin component scaling                      .... not used

   .... Finished loop over pairs
Making pair pair interaction lists          ... done

                       ===========================
                         55 OF   55 PAIRS ARE KEPT CCSD PAIRS
                          0 OF   55 PAIRS ARE KEPT MP2 PAIRS FOR (T)
                          0 OF   55 PAIRS ARE SKIPPED
                       ===========================

Total time spent in the initial guess                 ...     0.041 sec
SL-MP2 correlation energy (all non-screened pairs)    ...      -0.465688337668 Eh

Initial PNO correlation energy                        ...      -0.465590162682 Eh
sum of pair energies prescreened and skipped MP2 pairs...       0.000000000000 Eh
sum of pair energies of crude MP2 skipped pairs only  ...       0.000000000000 Eh
sum of MP2 pair energies for pairs that were not kept ...       0.000000000000 Eh
sum of PNO error estimates for the kept pairs         ...      -0.000098174986 Eh
                                                          --------------------
sum of all corrections                                         -0.000098174986
Initial total correlation energy                               -0.465688337668
Thresholds for map construction and integral transformation for fine MP2 and CCSD(T) calculation:
   TCutMKN   ...     1.0e-03
   TCutDO    ...     5.0e-03
   TCutPairs ...     1.0e-05
   TCutCMO   ...     1.0e-03
   TCutCPAO  ...     1.0e-03

Thresholds for map construction and integral transformation for strong Triples:
   TCutMKN   ...     1.0e-02
   TCutDO    ...     1.0e-02
   TCutCMO   ...     1.0e-03
   TCutCPAO  ...     1.0e-03

Thresholds for map construction and integral transformation for weak Triples:
   TCutMKN   ...     1.0e-01
   TCutDO    ...     2.0e-02
   TCutCMO   ...     1.0e-03
   TCutCPAO  ...     1.0e-03

--------------------------------
LOCAL RI TRANSFORMATION (IAVPAO)
--------------------------------

Orbital window:       3 to 12
Number of PAOs:      72
Basis functions:     72 (36 shells)
Aux. functions:     252 (90 shells)

Processing maps (0.0 sec)
Average map sizes:
   Aux shells -> MOs              10.0
   Aux shells -> PAOs             72.0
   MOs        -> AO shells        36.0
   PAOs       -> AO shells        36.0

Calculating integrals (0.2 sec, 1.387 MB)
Sorting integrals (0.0 sec, 1.384 MB)
Total time for the integral transformation: 0.2 sec
--------------------------------
INITIAL GUESS AND PNO GENERATION
--------------------------------

PNO truncation parameters                   .... 
    ScaleTCutPNO       =        1.000e-02
    PAOOverlapThresh   =        1.000e-08

    TCutPairs          =        1.000e-05
    TCutPNO            =        1.000e-07
    TCutPNOSingles     =        3.000e-09
    TCutMP2Pairs       =        1.000e-06
    TCutMKN            =        1.000e-03
    TCutDO             =        5.000e-03

Pair selection                          .... not used
Type of local MP2 treatment                 .... full local PMP2
Strategy for PNO selection                  .... occupation number selection
Pair density normalization                  .... MP2 norm
Spin component scaling                      .... not used

PASS-1: Formation of initial guess LMP2 amplitudes
Initial amplitudes guess done. Entering LMP2 iteration loop:
   Max. no of iterations          ...  50
   Energy convergence tolerance   ...    1.0e-07
   Residual convergence tolerance ...    5.0e-07
   Fock matrix cutoff             ...    1.0e-05 Eh
   DIIS convergence acceleration parameters:
        Max # vectors in DIIS     ... 7
        Start iteration of DIIS   ... 0
        Levelshift                ... 2.000e-01
        Damping factor 1          ... 5.000e-01
        Damping factor 2          ... 1.000e+00
   L-MP2 PNO cut-off              ...   1.0e-09
   L-MP2 PNO cut-off (core)       ...   1.0e-11
                           *** Turning on DIIS ***
LMP2-Iter=   0:  ELMP2= -0.475303142468  DE=   9.5e-03 RMAX=   6.7e-03
LMP2-Iter=   1:  ELMP2= -0.480112674600  DE=   4.8e-03 RMAX=   3.8e-03
LMP2-Iter=   2:  ELMP2= -0.480805728306  DE=   6.9e-04 RMAX=   6.1e-04
LMP2-Iter=   3:  ELMP2= -0.480880075200  DE=   7.4e-05 RMAX=   2.2e-04
LMP2-Iter=   4:  ELMP2= -0.480884994546  DE=   4.9e-06 RMAX=   2.4e-05
LMP2-Iter=   5:  ELMP2= -0.480884531393  DE=   4.6e-07 RMAX=   9.1e-06
LMP2-Iter=   6:  ELMP2= -0.480884436356  DE=   9.5e-08 RMAX=   8.8e-07
LMP2-Iter=   7:  ELMP2= -0.480884427907  DE=   8.4e-09 RMAX=   2.6e-07
LMP2-Iter=   8:  ELMP2= -0.480884433119  DE=   5.2e-09 RMAX=   3.2e-08 => CONVERGED
PASS-2: Formation of Pair natural orbitals
   .... Finished loop over pairs

 PNO Occupation Number Statistics: 
  | Av. % of trace(Dij) retained        ...  99.898463714458
  | sigma^2 in % of trace(Dij) retained ...   2.62e-02
  | Av. % of trace(Di) retained         ...  99.999912726469
  | sigma^2 in % of trace(Di) retained  ...   2.58e-09
 Distributions of % trace(Dij) recovered:
  |       >= 99.9  ...    43 ( 78.2 % of all pairs)
  |   [99.0, 99.9) ...    12 ( 21.8 % of all pairs)
 Distributions of % trace(Di) recovered :
  |       >= 99.9  ...    10 (100.0 % of all I-pairs )

Making pair pair interaction lists          ... done

                       ===========================
                         55 OF   55 PAIRS ARE KEPT
                       ===========================

Total time spent in the initial guess                 ...     0.358 sec
L-MP2 correlation energy (all non-screened pairs)     ...      -0.480884433119 Eh
L-MP2 PNO error correction                            ...      -0.000000642201 Eh
                                                          --------------------
Initial total L-MP2 energy (non-screened pairs)       ...      -0.480885075320 Eh

Initial PNO correlation energy                        ...      -0.480797343300 Eh
sum of pair energies estimated for screened out pairs ...       0.000000000000 Eh
sum of MP2 pair energies for pairs that were not kept ...       0.000000000000 Eh
sum of PNO error estimates for the kept pairs         ...      -0.000087732021 Eh
                                                          --------------------
sum of all corrections                                         -0.000087732021
Initial total correlation energy                               -0.480885075320
Thresholds for map construction and integral transformation for fine MP2 and CCSD(T) calculation:
   TCutMKN   ...     1.0e-03
   TCutDO    ...     5.0e-03
   TCutPairs ...     1.0e-05
   TCutCMO   ...     1.0e-03
   TCutCPAO  ...     1.0e-03

Time for aux screen maps:            0.000
Time for maps after fine MP2:            0.001
-----------------------------
LOCAL RI TRANSFORMATION (IJV)
-----------------------------

Orbital window:       3 to 12
Basis functions:     72 (36 shells)
Aux. functions:     252 (90 shells)

Processing maps (0.0 sec)
Average map sizes:
   Aux shells -> MOs(i)           10.0
   Aux shells -> MOs(j)           10.0
   MOs        -> AO shells        36.0

Calculating integrals (0.2 sec, 0.195 MB)
Sorting integrals (0.0 sec, 0.192 MB)
Total time for the integral transformation: 0.2 sec
--------------------------------
LOCAL RI TRANSFORMATION (VABPAO)
--------------------------------

Number of PAOs:      72
Basis functions:     72 (36 shells)
Aux. functions:     252 (90 shells)

Processing maps (0.0 sec)
Average map sizes:
   Aux shells -> PAOs             72.0
   PAOs       -> AO shells        36.0

Calculating integrals (0.2 sec, 17.605 MB)
Finished


-------------------------------------
Pair Pair Term precalculation with     
RI-(ij|mn) and (im|jn) transformation  
ON THE FLY                             
-------------------------------------

   IBatch   1 (of   1)              ... done (    1.005 sec)
Total EXT                           ...           1.005 sec

---------------------
RI-PNO TRANSFORMATION
---------------------

Total Number of PNOs                   ...  1582
Average number of PNOs per pair        ...    28
Maximal number of PNOs per pair        ...    38
   #pairs with  1 -  5 PNOs   :    0
   #pairs with  6 - 10 PNOs   :    0
   #pairs with 11 - 15 PNOs   :    0
   #pairs with 16 - 20 PNOs   :    3
   #pairs with 21 - 25 PNOs   :   16
   #pairs with 26 - 30 PNOs   :    9
   #pairs with 31 - 35 PNOs   :   20
   #pairs with 36 - 40 PNOs   :    7
   #pairs with 41 - 45 PNOs   :    0
   #pairs with 46 - 50 PNOs   :    0

Generation of (ij|ab)[P] integrals            ... on
Generation of (ia|bc)[P],(ja|bc)[P] integrals ... on
Storage of 3 and 4 external integrals         ... on
Generation of ALL (ka|bc)[P] integrals        ... on
Keep RI integrals in memory                   ... off

Ibatch:  1 (of  1)
Starting 2-4 index PNO integral generation ... done

Timings:
Total PNO integral transformation time     ...          0.437 sec
Size of the 3-external file                ...        11 MB
Size of the 4-external file                ...        45 MB
Size of the IKJL file                      ...         0 MB
Size of the all 3-external file            ...        56 MB
Size of the 1-external file                ...         0 MB

Making pair/pair overlap matrices          ... done (    0.044 sec)
Size of the pair overlap file              ... 14 MB
Redoing the guess amplitudes               ... done (    0.000 sec)

-------------------------
FINAL STARTUP INFORMATION
-------------------------

E(0)                                       ...   -154.091724589
E(L-MP2)                                   ...     -0.480885075
E(L-MP2) including corrections             ...     -0.480885075
Initial E(tot)                             ...   -154.572609664
<T|T>                                      ...      0.134567150
Number of pairs included                   ... 55
Total number of pairs                      ... 55

------------------------------------------------
                  RHF COUPLED CLUSTER ITERATIONS
------------------------------------------------

Number of PNO amplitudes to be optimized   ...        46978
Number of non-PNO amplitudes               ...       191455
Untruncated number of regular amplitudes   ...       191455

Iter       E(tot)           E(Corr)          Delta-E          Residual     Time
  0   -154.557486796     -0.465674476      0.015210600      0.018827164    0.44
                           *** Turning on DIIS ***
  1   -154.591755469     -0.499943148     -0.034268673      0.008707029    0.43
  2   -154.607878900     -0.516066579     -0.016123431      0.001957539    0.44
  3   -154.610120017     -0.518307697     -0.002241117      0.001346719    0.44
  4   -154.610676041     -0.518863720     -0.000556024      0.000273315    0.44
  5   -154.610786150     -0.518973829     -0.000110109      0.000136236    0.44
  6   -154.610806827     -0.518994507     -0.000020677      0.000059276    0.44
  7   -154.610810576     -0.518998255     -0.000003748      0.000030579    0.44
  8   -154.610811327     -0.518999006     -0.000000751      0.000010440    0.44
  9   -154.610811184     -0.518998863      0.000000143      0.000003530    0.43
               --- The Coupled-Cluster iterations have converged ---

----------------------
COUPLED CLUSTER ENERGY
----------------------

E(0)                                       ...   -154.091724589
E(CORR)(strong-pairs)                      ...     -0.518998863
E(CORR)(weak-pairs)                        ...     -0.000087732
E(CORR)(corrected)                         ...     -0.519086595
E(TOT)                                     ...   -154.610811184
Singles Norm <S|S>**1/2                    ...      0.034630415  
T1 diagnostic                              ...      0.007743596  

------------------
LARGEST AMPLITUDES
------------------
  12-> 22  12-> 22       0.041749
   6-> 14   6-> 14       0.040469
   9-> 13   9-> 13       0.037510
   8-> 13   8-> 13       0.037509
   8-> 21   8-> 21       0.037310
   9-> 21   9-> 21       0.037310
  12-> 13  12-> 13       0.036839
  10-> 22  10-> 22       0.036567
  11-> 22  11-> 22       0.036567
  11-> 13  11-> 13       0.035305
  10-> 13  10-> 13       0.035305
   5-> 26   5-> 26       0.034771
   7-> 13   7-> 13       0.033365
   7-> 18   7-> 18       0.032075
   6-> 18   6-> 18       0.030946
  12-> 13  12-> 22       0.030780


-------------------------------------------
DLPNO BASED TRIPLES CORRECTION
-------------------------------------------

Singles multiplier          ...  1.000000
TCutTNO                     ... 1.000e-09
TCutMP2Pairs                ... 1.000e-06
TCutDOStrong                ... 1.000e-02
TCutMKNStrong               ... 1.000e-02
TCutDOWeak                  ... 2.000e-02
TCutMKNWeak                 ... 1.000e-01

Fragment selection                          .... not used
Number of Triples that are to be computed   ...       210

 . . . . . . . . .
10% done  
20% done  
30% done  
40% done  
50% done  
60% done  
70% done  
80% done  
90% done               (      1.426 sec)
Triples timings:
Total time for T0               ...     1.546 sec
Total time for Iterative (T)    ...     0.000 sec
Total time of overall (T)       ...     1.611 sec

Triples List generation         ...     0.000 sec
TNO generation                  ...     0.118 sec
Pair density generation         ...     0.001 sec
Look up tables                  ...     0.000 sec
Generating 3-index integrals    ...     0.487 sec
  Make 4-ind.int. from 3-ind.int...     0.368 sec
  Projecting amplitudes (D + S) ...     0.100 sec
  Downprojecting integrals      ...     0.000 sec
  Energy contr. (sum over a,b,c)...     0.155 sec
Fitting ET(->0)                 ...     0.000 sec

Everything after 3-index        ...     0.939 sec

Timing details:
 TNO integrals                  ...     0.811 sec
   Reading 3-index integrals    ...     0.004 sec
   Sorting integrals            ...     0.201 sec
       Sorting integrals 1      ...     0.000 sec
       Sorting integrals 2      ...     0.037 sec
       Sorting integrals 3      ...     0.012 sec
       Sorting integrals 4      ...     0.001 sec
       Sorting integrals 5      ...     0.003 sec
       Sorting integrals 6      ...     0.147 sec
   Calculating local VM**-1/2   ...     0.012 sec
   Orthogonal. integrals        ...     0.024 sec
   Multipl. 3-index integrals   ...     0.570 sec
   All concerning IRIab (w/TNO) ...     0.165 sec

 Calculate W0/W1                ...     0.315 sec
 W 3-ext contribution           ...     0.189 sec
 W 3-int contribution           ...     0.047 sec
 Sorting W                      ...     0.070 sec

 V exchange contribution        ...     0.069 sec

 Timings for Triples without generation
     of 3-index integrals       ...     0.939 sec
       0 weak pairs             ...     0.939 sec
       1 weak pair              ...     0.000 sec
       2 weak pairs             ...     0.000 sec
       3 weak pairs             ...     0.000 sec
  Extra time for extrapolation  ...     0.000 sec

Number of Triples   (0, 1, 2, 3 weak pairs; overall):    210       0       0       0  (   210)
Number of Atoms     (0, 1, 2, 3 weak pairs; overall):    9.0     0.0     0.0     0.0  (     9)
Number of PAOs      (0, 1, 2, 3 weak pairs; overall):   72.0     0.0     0.0     0.0  (    72)
Number of AuxFcns   (0, 1, 2, 3 weak pairs; overall):  158.7     0.0     0.0     0.0  (   252)
Number of TNOs      (0, 1, 2, 3 weak pairs         ):   50.7     0.0     0.0     0.0
Aver. Number of NTNO, Atoms, PAOs, AuxFcns / Triples:    210    50.7     9.0    72.0   158.7

Triples Correction (T)                     ...     -0.012120133
Final correlation energy                   ...     -0.531206728
E(CCSD)                                    ...   -154.610811184
E(CCSD(T))                                 ...   -154.622931317


Maximum memory used throughout the entire calculation: 467.1 MB


------------------------------------------------------------------------------- 
                                     TIMINGS                                   
------------------------------------------------------------------------------- 


Total execution time                   ...       15.078 sec

Localization of occupied MO's          ...        5.449 sec ( 36.1%)
Fock Matrix Formation                  ...        0.468 sec (  3.1%)
Global overlap, Fock, MKN matrices     ...        0.114 sec (  0.8%)
Differential overlap integrals         ...        0.036 sec (  0.2%)
Organizing maps                        ...        0.004 sec (  0.0%)
RI 3-index integral generations        ...        0.912 sec (  6.1%)
RI-PNO integral transformation         ...        1.566 sec ( 10.4%)
Initial Guess                          ...        0.404 sec (  2.7%)
DIIS Solver                            ...        0.115 sec (  0.8%)
State Vector Update                    ...        0.004 sec (  0.0%)
Sigma-vector construction              ...        4.325 sec ( 28.7%)
  <D|H|D>(0-ext)                       ...        0.197 sec (  4.5% of sigma)
  <D|H|D>(2-ext Fock)                  ...        0.004 sec (  0.1% of sigma)
  <D|H|D>(2-ext)                       ...        0.379 sec (  8.8% of sigma)
  <D|H|D>(4-ext)                       ...        0.512 sec ( 11.8% of sigma)
  <D|H|D>(4-ext-corr)                  ...        2.067 sec ( 47.8% of sigma)
  CCSD doubles correction              ...        0.026 sec (  0.6% of sigma)
  <S|H|S>                              ...        0.045 sec (  1.0% of sigma)
  <S|H|D>(1-ext)                       ...        0.036 sec (  0.8% of sigma)
  <D|H|S>(1-ext)                       ...        0.002 sec (  0.0% of sigma)
  <S|H|D>(3-ext)                       ...        0.043 sec (  1.0% of sigma)
  Fock-dressing                        ...        0.550 sec ( 12.7% of sigma)
  Singles amplitudes                   ...        0.030 sec (  0.7% of sigma)
  (ik|jl)-dressing                     ...        0.136 sec (  3.1% of sigma)
  (ij|ab),(ia|jb)-dressing             ...        0.251 sec (  5.8% of sigma)
  Pair energies                        ...        0.002 sec (  0.0% of sigma)
Total Time for computing (T)           ...        1.615 sec ( 10.7% of ALL)


-------------------------   --------------------
FINAL SINGLE POINT ENERGY      -154.622931316976
-------------------------   --------------------


                            ***************************************
                            *     ORCA property calculations      *
                            ***************************************

                                    ---------------------
                                    Active property flags
                                    ---------------------
   (+) Dipole Moment


------------------------------------------------------------------------------
                       ORCA ELECTRIC PROPERTIES CALCULATION
------------------------------------------------------------------------------

Dipole Moment Calculation                       ... on
Quadrupole Moment Calculation                   ... off
Polarizability Calculation                      ... off
GBWName                                         ... ethanol_a.gbw
Electron density file                           ... ethanol_a.scfp.tmp
The origin for moment calculation is the CENTER OF MASS  = ( 0.096540, -0.049126 -0.000006)

-------------
DIPOLE MOMENT
-------------
                                X             Y             Z
Electronic contribution:      2.57507      -0.61456      -0.00005
Nuclear contribution   :     -2.51008       1.27726       0.00018
                        -----------------------------------------
Total Dipole Moment    :      0.06499       0.66270       0.00013
                        -----------------------------------------
Magnitude (a.u.)       :      0.66588
Magnitude (Debye)      :      1.69253



--------------------
Rotational spectrum 
--------------------
 
Rotational constants in cm-1:     1.167715     0.309967     0.269897 
Rotational constants in MHz : 35007.224030  9292.577865  8091.298308 

 Dipole components along the rotational axes: 
x,y,z [a.u.] :    -0.037196     0.664841     0.000124 
x,y,z [Debye]:    -0.094544     1.689892     0.000316 

 

Timings for individual modules:

Sum of individual times         ...       25.054 sec (=   0.418 min)
GTO integral calculation        ...        3.172 sec (=   0.053 min)  12.7 %
SCF iterations                  ...        1.480 sec (=   0.025 min)   5.9 %
MDCI module                     ...       20.403 sec (=   0.340 min)  81.4 %
                             ****ORCA TERMINATED NORMALLY****
TOTAL RUN TIME: 0 days 0 hours 0 minutes 25 seconds 277 msec
ethanol_a.gbw -> /home1/pantazis/klk/VDZ/Oxygen_compounds/ethanol_a.gbw
ethanol_a.ges -> /home1/pantazis/klk/VDZ/Oxygen_compounds/ethanol_a.ges
ethanol_a.job -> /home1/pantazis/klk/VDZ/Oxygen_compounds/ethanol_a.job
ethanol_a.loc -> /home1/pantazis/klk/VDZ/Oxygen_compounds/ethanol_a.loc
ethanol_a.nodes -> /home1/pantazis/klk/VDZ/Oxygen_compounds/ethanol_a.nodes
ethanol_a.prop -> /home1/pantazis/klk/VDZ/Oxygen_compounds/ethanol_a.prop
ethanol_a_property.txt -> /home1/pantazis/klk/VDZ/Oxygen_compounds/ethanol_a_property.txt
ethanol_a.xyz -> /home1/pantazis/klk/VDZ/Oxygen_compounds/ethanol_a.xyz
cp: cannot stat ethanol_a.asa.inp: No such file or directory
