! Job execution by suborca V 6.07 on ZEUS !
Job started from zeus1, running /scratch/pantazis/ethyl_methyl_ether_a__LKyycn/orca/orca copied from /opt/orca on zeussn119 in /scratch/pantazis/ethyl_methyl_ether_a__LKyycn
Job execution start: Sat Jun 29 11:48:33 CEST 2019
Shared library path: /scratch/pantazis/ethyl_methyl_ether_a__LKyycn/orca:/opt/openmpi_1.10.2/lib:/opt/intel/mkl/lib/intel64:/opt/intel/lib/intel64:
PBS Job ID is: 158907.icqc
izeussn119
izeussn119
izeussn119
izeussn119

                                 *****************
                                 * O   R   C   A *
                                 *****************

           --- An Ab Initio, DFT and Semiempirical electronic structure package ---

                  #######################################################
                  #                        -***-                        #
                  #          Department of theory and spectroscopy      #
                  #               Directorship: Frank Neese             #
                  #        Max Planck Institute fuer Kohlenforschung    #
                  #                Kaiser Wilhelm Platz 1               #
                  #                 D-45470 Muelheim/Ruhr               #
                  #                      Germany                        #
                  #                                                     #
                  #                  All rights reserved                #
                  #                        -***-                        #
                  #######################################################


                         Program Version 4.1.x  -  STABLE  -
                                (SVN: $Rev: 14094$)
                ($Date: 2019-06-14 15:01:15 +0200 (Fri, 14 Jun 2019) $)

                         (BUILD: $Sun Jun 23 06:18:31 CEST 2019$)


 With contributions from (in alphabetic order):
   Daniel Aravena         : Magnetic Properties
   Michael Atanasov       : Ab Initio Ligand Field Theory
   Alexander A. Auer      : GIAO ZORA
   Ute Becker             : Parallelization
   Giovanni Bistoni       : ED, Open-shell LED
   Martin Brehm           : Molecular dynamics
   Dmytro Bykov           : SCF Hessian
   Vijay G. Chilkuri      : MRCI spin determinant printing
   Dipayan Datta          : RHF DLPNO-CCSD density
   Achintya Kumar Dutta   : EOM-CC, STEOM-CC
   Dmitry Ganyushin       : Spin-Orbit,Spin-Spin,Magnetic field MRCI
   Miquel Garcia          : C-PCM Hessian
   Yang Guo               : DLPNO-NEVPT2, CIM, IAO-localization
   Andreas Hansen         : Spin unrestricted coupled pair/coupled cluster methods
   Benjamin Helmich-Paris : CASSCF linear response (MC-RPA)
   Lee Huntington         : MR-EOM, pCC
   Robert Izsak           : Overlap fitted RIJCOSX, COSX-SCS-MP3, EOM
   Christian Kollmar      : KDIIS, OOCD, Brueckner-CCSD(T), CCSD density
   Simone Kossmann        : Meta GGA functionals, TD-DFT gradient, OOMP2, MP2 Hessian
   Martin Krupicka        : AUTO-CI
   Lucas Lang             : DCDCAS
   Dagmar Lenk            : GEPOL surface, SMD
   Dimitrios Liakos       : Extrapolation schemes; parallel MDCI
   Dimitrios Manganas     : ROCIS; embedding schemes
   Dimitrios Pantazis     : SARC Basis sets
   Taras Petrenko         : DFT Hessian,TD-DFT gradient, ASA, ECA, R-Raman, ABS, FL, XAS/XES, NRVS
   Peter Pinski           : DLPNO-MP2, DLPNO-MP2 Gradient
   Christoph Reimann      : Effective Core Potentials
   Marius Retegan         : Local ZFS, SOC
   Christoph Riplinger    : Optimizer, TS searches, QM/MM, DLPNO-CCSD(T), (RO)-DLPNO pert. Triples
   Tobias Risthaus        : Range-separated hybrids, TD-DFT gradient, RPA, STAB
   Michael Roemelt        : Restricted open shell CIS
   Masaaki Saitow         : Open-shell DLPNO
   Barbara Sandhoefer     : DKH picture change effects
   Avijit Sen             : IP-ROCIS
   Kantharuban Sivalingam : CASSCF convergence, NEVPT2, FIC-MRCI
   Bernardo de Souza      : ESD, SOC TD-DFT
   Georgi Stoychev        : AutoAux, RI-MP2 NMR
   Willem Van den Heuvel  : Paramagnetic NMR
   Boris Wezisla          : Elementary symmetry handling
   Frank Wennmohs         : Technical directorship


 We gratefully acknowledge several colleagues who have allowed us to
 interface, adapt or use parts of their codes:
   Stefan Grimme, W. Hujo, H. Kruse,             : VdW corrections, initial TS optimization,
                  C. Bannwarth                     DFT functionals, gCP, sTDA/sTD-DF
   Ed Valeev                                     : LibInt (2-el integral package), F12 methods
   Garnet Chan, S. Sharma, J. Yang, R. Olivares  : DMRG
   Ulf Ekstrom                                   : XCFun DFT Library
   Mihaly Kallay                                 : mrcc  (arbitrary order and MRCC methods)
   Andreas Klamt, Michael Diedenhofen            : otool_cosmo (COSMO solvation model)
   Jiri Pittner, Ondrej Demel                    : Mk-CCSD
   Frank Weinhold                                : gennbo (NPA and NBO analysis)
   Christopher J. Cramer and Donald G. Truhlar   : smd solvation model
   Lars Goerigk                                  : TD-DFT with DH, B97 family of functionals
   V. Asgeirsson, H. Jonsson                     : NEB implementation
   FAccTs GmbH                                   : IRC, NEB, NEB-TS, Multilevel


 Your calculation uses the libint2 library for the computation of 2-el integrals
 For citations please refer to: http://libint.valeyev.net

 This ORCA versions uses:
   CBLAS   interface :  Fast vector & matrix operations
   LAPACKE interface :  Fast linear algebra routines
   SCALAPACK package :  Parallel linear algebra routines




***************************************
The coordinates will be read from file: ethyl_methyl_ether_a.xyz
***************************************


----- Orbital basis set information -----
Your calculation utilizes the basis: cc-pVDZ 
       H, B-Ne : Obtained from the ccRepo (grant-hill.group.shef.ac.uk/ccrepo) Feb. 2017
                 T. H. Dunning, Jr., J. Chem. Phys. 90, 1007 (1989)
            He : Obtained from the ccRepo (grant-hill.group.shef.ac.uk/ccrepo) Feb. 2017
                 D. E. Woon, T. H. Dunning, Jr., J. Chem. Phys. 100, 2975 (1994)
  Li-Be, Na-Mg : Obtained from the ccRepo (grant-hill.group.shef.ac.uk/ccrepo) Feb. 2017
                 B. P. Prascher, D. E. Woon, K. A. Peterson, T. H. Dunning, Jr., A. K. Wilson, Theor. Chem. Acc. 128, 69 (2011)
         Al-Ar : Obtained from the ccRepo (grant-hill.group.shef.ac.uk/ccrepo) Feb. 2017
                 D. E. Woon, T. H. Dunning, Jr., J. Chem. Phys. 98, 1358 (1993)
            Ca : Obtained from the Peterson Research Group Website (tyr0.chem.wsu.edu/~kipeters) Feb. 2017
                 J. Koput, K. A. Peterson, J. Phys. Chem. 106, 9595 (2002)
         Sc-Zn : Obtained from the ccRepo (grant-hill.group.shef.ac.uk/ccrepo) Feb. 2017
                 N. B. Balabanov, K. A. Peterson, J. Chem. Phys. 123, 064107 (2005)
                 N. B. Balabanov, K. A. Peterson, J. Chem. Phys. 125, 074110 (2006)
         Ga-Kr : Obtained from the ccRepo (grant-hill.group.shef.ac.uk/ccrepo) Feb. 2017
                 A. K. Wilson, D. E. Woon, K. A. Peterson, T. H. Dunning, Jr., J. Chem. Phys. 110, 7667 (1999)

----- AuxC basis set information -----
Your calculation utilizes the auxiliary basis: cc-pVDZ/C 
  H-He, B, Ne, Al-Ar, Ga-Br : Obtained from the EMSL Basis Set Exchange (bse.pnl.gov) Feb. 2017
                              F. Weigend, A. Kohn, C. Hattig, J. Chem. Phys. 116, 3175 (2002)
               Li-Be, Na-Mg : Obtained from the EMSL Basis Set Exchange (bse.pnl.gov) Feb. 2017
                              C. Haettig, Phys. Chem. Chem. Phys. 7, 59 (2005)
                        C-F : Obtained from the EMSL Basis Set Exchange (bse.pnl.gov) Feb. 2017
                              C. Haettig, Phys. Chem. Chem. Phys. 7, 59 (2005)
                              F. Weigend, A. Kohn, C. Hattig, J. Chem. Phys. 116, 3175 (2002)
                         Kr : Obtained from the TURBOMOLE 7.0 basis set library
                              F. Weigend, A. Kohn, C. Hattig, J. Chem. Phys. 116, 3175 (2002)
                              S function revised in Sep. 2009

----- AuxJK basis set information -----
Your calculation utilizes the auxiliary basis: cc-pVTZ/JK 
  H, B-F, Al-Cl, Ga-Br : Obtained from the TURBOMOLE 7.0 basis set library

================================================================================
                                        WARNINGS
                       Please study these warnings very carefully!
================================================================================


WARNING: MDCI localization with Augmented Hessian Foster-Boys
  ===> : Switching off randomization!

WARNING: Post HF methods need fully converged wavefunctions
  ===> : Setting SCFConvForced true
         You can overwrite this default with %scf ConvForced false 


INFO   : the flag for use of LIBINT has been found!

================================================================================
                                       INPUT FILE
================================================================================
NAME = ethyl_methyl_ether_a.inp
|  1> ! RHF DLPNO-CCSD(T) cc-pVDZ RIJK cc-pVTZ/JK cc-pVDZ/C
|  2> ! KDIIS SOSCF TightSCF TightPNO
|  3> 
|  4> %pal nprocs 4 end
|  5> 
|  6> %maxcore 8000
|  7> 
|  8> %scf maxiter 300
|  9>      shift shift 0.2 erroff 0.1 end
| 10> end
| 11> 
| 12> * xyzfile 0 1 ethyl_methyl_ether_a.xyz 
| 13> 
| 14> 
| 15>                          ****END OF INPUT****
================================================================================

                       ****************************
                       * Single Point Calculation *
                       ****************************

---------------------------------
CARTESIAN COORDINATES (ANGSTROEM)
---------------------------------
  C      1.859350   -0.169100    0.000050
  C      0.497790    0.505270   -0.000050
  O     -0.508990   -0.497580   -0.000090
  C     -1.820430    0.032860    0.000050
  H      2.655090    0.583600    0.000040
  H      1.977320   -0.798980    0.887110
  H      0.383080    1.148770    0.888800
  H     -2.511100   -0.813410    0.000050
  H     -2.006610    0.648340    0.894310
  H     -2.006750    0.648460   -0.894090
  H      1.977380   -0.799070   -0.886950
  H      0.383170    1.148740   -0.888930

----------------------------
CARTESIAN COORDINATES (A.U.)
----------------------------
  NO LB      ZA    FRAG     MASS         X           Y           Z
   0 C     6.0000    0    12.011    3.513662   -0.319553    0.000094
   1 C     6.0000    0    12.011    0.940687    0.954822   -0.000094
   2 O     8.0000    0    15.999   -0.961852   -0.940290   -0.000170
   3 C     6.0000    0    12.011   -3.440114    0.062096    0.000094
   4 H     1.0000    0     1.008    5.017393    1.102844    0.000076
   5 H     1.0000    0     1.008    3.736593   -1.509853    1.676395
   6 H     1.0000    0     1.008    0.723916    2.170861    1.679589
   7 H     1.0000    0     1.008   -4.745291   -1.537122    0.000094
   8 H     1.0000    0     1.008   -3.791943    1.225185    1.690001
   9 H     1.0000    0     1.008   -3.792208    1.225412   -1.689585
  10 H     1.0000    0     1.008    3.736707   -1.510023   -1.676093
  11 H     1.0000    0     1.008    0.724086    2.170804   -1.679834

--------------------------------
INTERNAL COORDINATES (ANGSTROEM)
--------------------------------
 C      0   0   0     0.000000000000     0.00000000     0.00000000
 C      1   0   0     1.519414538729     0.00000000     0.00000000
 O      2   1   0     1.421025718451   108.76319282     0.00000000
 C      3   2   1     1.414652426146   113.09012137   179.98971370
 H      1   2   3     1.095335308342   110.24331343   179.99762951
 H      1   2   3     1.094322246370   110.61718353   299.99724028
 H      2   1   3     1.103315438395   110.60831411   120.60299141
 H      4   3   2     1.092336011399   107.19714005   180.00241574
 H      4   3   2     1.101444311075   111.48800328   299.25306043
 H      4   3   2     1.101437625106   111.48801684    60.75131870
 H      1   2   3     1.094331888323   110.61570434    59.99903856
 H      2   1   3     1.103312756973   110.60964455   239.39663294

---------------------------
INTERNAL COORDINATES (A.U.)
---------------------------
 C      0   0   0     0.000000000000     0.00000000     0.00000000
 C      1   0   0     2.871277362095     0.00000000     0.00000000
 O      2   1   0     2.685349437132   108.76319282     0.00000000
 C      3   2   1     2.673305660103   113.09012137   179.98971370
 H      1   2   3     2.069883757580   110.24331343   179.99762951
 H      1   2   3     2.067969347897   110.61718353   299.99724028
 H      2   1   3     2.084964017893   110.60831411   120.60299141
 H      4   3   2     2.064215907765   107.19714005   180.00241574
 H      4   3   2     2.081428099698   111.48800328   299.25306043
 H      4   3   2     2.081415465048   111.48801684    60.75131870
 H      1   2   3     2.067987568547   110.61570434    59.99903856
 H      2   1   3     2.084958950741   110.60964455   239.39663294

---------------------
BASIS SET INFORMATION
---------------------
There are 3 groups of distinct atoms

 Group   1 Type C   : 17s4p1d contracted to 3s2p1d pattern {881/31/1}
 Group   2 Type O   : 17s4p1d contracted to 3s2p1d pattern {881/31/1}
 Group   3 Type H   : 4s1p contracted to 2s1p pattern {31/1}

Atom   0C    basis set group =>   1
Atom   1C    basis set group =>   1
Atom   2O    basis set group =>   2
Atom   3C    basis set group =>   1
Atom   4H    basis set group =>   3
Atom   5H    basis set group =>   3
Atom   6H    basis set group =>   3
Atom   7H    basis set group =>   3
Atom   8H    basis set group =>   3
Atom   9H    basis set group =>   3
Atom  10H    basis set group =>   3
Atom  11H    basis set group =>   3
-------------------------------
AUXILIARY BASIS SET INFORMATION
-------------------------------
There are 3 groups of distinct atoms

 Group   1 Type C   : 7s5p4d2f contracted to 7s5p4d2f pattern {1111111/11111/1111/11}
 Group   2 Type O   : 7s5p4d2f contracted to 7s5p4d2f pattern {1111111/11111/1111/11}
 Group   3 Type H   : 3s2p1d contracted to 3s2p1d pattern {111/11/1}

Atom   0C    basis set group =>   1
Atom   1C    basis set group =>   1
Atom   2O    basis set group =>   2
Atom   3C    basis set group =>   1
Atom   4H    basis set group =>   3
Atom   5H    basis set group =>   3
Atom   6H    basis set group =>   3
Atom   7H    basis set group =>   3
Atom   8H    basis set group =>   3
Atom   9H    basis set group =>   3
Atom  10H    basis set group =>   3
Atom  11H    basis set group =>   3
-------------------------------
AUXILIARY BASIS SET INFORMATION
-------------------------------
There are 3 groups of distinct atoms

 Group   1 Type C   : 10s7p5d2f1g contracted to 10s7p5d2f1g pattern {1111111111/1111111/11111/11/1}
 Group   2 Type O   : 10s7p5d2f1g contracted to 10s7p5d2f1g pattern {1111111111/1111111/11111/11/1}
 Group   3 Type H   : 4s3p2d1f contracted to 4s3p2d1f pattern {1111/111/11/1}

Atom   0C    basis set group =>   1
Atom   1C    basis set group =>   1
Atom   2O    basis set group =>   2
Atom   3C    basis set group =>   1
Atom   4H    basis set group =>   3
Atom   5H    basis set group =>   3
Atom   6H    basis set group =>   3
Atom   7H    basis set group =>   3
Atom   8H    basis set group =>   3
Atom   9H    basis set group =>   3
Atom  10H    basis set group =>   3
Atom  11H    basis set group =>   3

Checking for AutoStart:
The File: ethyl_methyl_ether_a.gbw exists
Trying to determine its content:
     ... Fine, the file contains calculation information
     ... Fine, the calculation information was read
     ... Fine, the file contains a basis set
     ... Fine, the basis set was read
     ... Fine, the file contains a geometry
     ... Fine, the geometry was read
     ... Fine, the file contains a set of orbitals
     ... Fine, the orbitals can be read
     => possible old guess file was deleted
     => GBW file was renamed to GES file
     => GES file is set as startup file
     => Guess is set to MORead
     ... now leaving AutoStart



           ************************************************************
           *        Program running with 4 parallel MPI-processes     *
           *              working on a common directory               *
           ************************************************************
------------------------------------------------------------------------------
                           ORCA GTO INTEGRAL CALCULATION
                           -- RI-GTO INTEGRALS CHOSEN --
------------------------------------------------------------------------------

                         BASIS SET STATISTICS AND STARTUP INFO

Gaussian basis set:
 # of primitive gaussian shells          ...  128
 # of primitive gaussian functions       ...  192
 # of contracted shells                  ...   48
 # of contracted basis functions         ...   96
 Highest angular momentum                ...    2
 Maximum contraction depth               ...    8
Auxiliary gaussian basis set:
 # of primitive gaussian shells          ...  180
 # of primitive gaussian functions       ...  556
 # of contracted shells                  ...  180
 # of contracted aux-basis functions     ...  556
 Highest angular momentum                ...    4
 Maximum contraction depth               ...    1
Ratio of auxiliary to basis functions    ...  5.79
Integral package used                  ... LIBINT
 One Electron integrals                  ... done
 Ordering auxiliary basis shells         ... done
 Integral threshhold             Thresh  ...  2.500e-11
 Primitive cut-off               TCut    ...  2.500e-12
 Pre-screening matrix                    ... done
 Shell pair data                         ... 
 Ordering of the shell pairs             ... done (   0.000 sec) 1175 of 1176 pairs
 Determination of significant pairs      ... done (   0.000 sec)
 Creation of shell pair data             ... done (   0.000 sec)
 Storage of shell pair data              ... done (   0.001 sec)
 Shell pair data done in (   0.001 sec)
 Computing two index integrals           ... done
 Cholesky decomposition of the V-matrix  ... done


Timings:
 Total evaluation time                   ...   0.243 sec (  0.004 min)
 One electron matrix time                ...   0.014 sec (  0.000 min) =  5.8%
 Schwartz matrix evaluation time         ...   0.138 sec (  0.002 min) = 56.6%
 Two index repulsion integral time       ...   0.033 sec (  0.001 min) = 13.7%
 Cholesky decomposition of V             ...   0.031 sec (  0.001 min) = 12.6%
 Three index repulsion integral time     ...   0.000 sec (  0.000 min) =  0.0%



           ************************************************************
           *        Program running with 4 parallel MPI-processes     *
           *              working on a common directory               *
           ************************************************************
-------------------------------------------------------------------------------
                                 ORCA SCF
-------------------------------------------------------------------------------

------------
SCF SETTINGS
------------
Hamiltonian:
 Ab initio Hamiltonian  Method          .... Hartree-Fock(GTOs)
 RI-approximation to the Coulomb term is turned on
   Number of auxiliary basis functions  .... 556
   RI-JK (J+K treated both via RI)      .... on


General Settings:
 Integral files         IntName         .... ethyl_methyl_ether_a
 Hartree-Fock type      HFTyp           .... RHF
 Total Charge           Charge          ....    0
 Multiplicity           Mult            ....    1
 Number of Electrons    NEL             ....   34
 Basis Dimension        Dim             ....   96
 Nuclear Repulsion      ENuc            ....    133.0880001156 Eh

Convergence Acceleration:
 DIIS                   CNVDIIS         .... off
 Newton-Raphson         CNVNR           .... off
 SOSCF                  CNVSOSCF        .... on
   Start iteration      SOSCFMaxIt      ....   150
   Startup grad/error   SOSCFStart      ....  0.003300
 Level Shifting         CNVShift        .... on
   Level shift para.    LevelShift      ....    0.2000
   Turn off err/grad.   ShiftErr        ....    0.1000
 Zerner damping         CNVZerner       .... off
 Static damping         CNVDamp         .... off
 Fernandez-Rico         CNVRico         .... off

SCF Procedure:
 Maximum # iterations   MaxIter         ....   300
 SCF integral mode      SCFMode         .... Direct
   Integral package                     .... LIBINT
 Reset frequency        DirectResetFreq ....    20
 Integral Threshold     Thresh          ....  2.500e-11 Eh
 Primitive CutOff       TCut            ....  2.500e-12 Eh

Convergence Tolerance:
 Convergence Check Mode ConvCheckMode   .... Total+1el-Energy
 Convergence forced     ConvForced      .... 1
 Energy Change          TolE            ....  1.000e-08 Eh
 1-El. energy change                    ....  1.000e-05 Eh
 Orbital Gradient       TolG            ....  1.000e-05
 Orbital Rotation angle TolX            ....  1.000e-05


Diagonalization of the overlap matrix:
Smallest eigenvalue                        ... 5.597e-03
Time for diagonalization                   ...    0.004 sec
Threshold for overlap eigenvalues          ... 1.000e-08
Number of eigenvalues below threshold      ... 0
Time for construction of square roots      ...    0.004 sec
Total time needed                          ...    0.008 sec

---------------------
INITIAL GUESS: MOREAD
---------------------
Guess MOs are being read from file: ethyl_methyl_ether_a.ges
Input Geometry matches current geometry (good)
Atom 0: N(Shells)= 6 and 10 - projection required
Input basis set needs projection
NBasis(read)= 232
NBasis(calc)= 96
Basis set overlap was calculated
Using GuessMode=FMatrix for the initial guess
C*T matrix was formed
Effective Fockian was calculated
Effective Fockian was diagonalized
Initial density was built
                      ------------------
                      INITIAL GUESS DONE (   0.0 sec)
                      ------------------
--------------
SCF ITERATIONS
--------------
ITER       Energy         Delta-E        Max-DP      RMS-DP      [F,P]   Gradient Norm
                             ****Turning on KDIIS(Cayley)****
  0   -193.1178630735   0.000000000000 0.00087942  0.00005590  0.0062067   0.005792260
  1   -193.1179467002  -0.000083626647 0.00180646  0.00010845  0.0056236   0.005240167
  2   -193.1180804069  -0.000133706693 0.00300983  0.00018361  0.0045153   0.004249400
                      *** Initiating the SOSCF procedure ***
                           *** Shutting down KDIIS ***
                      *** Re-Reading the Fockian *** 
                      *** Removing any level shift *** 
ITER      Energy       Delta-E        Grad      Rot      Max-DP    RMS-DP
  3   -193.11824653  -0.0001661232  0.002707  0.002707  0.004593  0.000279
  4   -193.11834162  -0.0000950864  0.000021  0.000026  0.000051  0.000002
  5   -193.11834163  -0.0000000133  0.000009  0.000015  0.000042  0.000001
                  ***Gradient check signals convergence***
              ***Rediagonalizing the Fockian in SOSCF/NRSCF***

               *****************************************************
               *                     SUCCESS                       *
               *           SCF CONVERGED AFTER   6 CYCLES          *
               *****************************************************


----------------
TOTAL SCF ENERGY
----------------

Total Energy       :         -193.11834163 Eh           -5255.01724 eV

Components:
Nuclear Repulsion  :          133.08800012 Eh            3621.50860 eV
Electronic Energy  :         -326.20634175 Eh           -8876.52583 eV
One Electron Energy:         -525.66918679 Eh          -14304.18578 eV
Two Electron Energy:          199.46284505 Eh            5427.65995 eV

Virial components:
Potential Energy   :         -385.96768172 Eh          -10502.71457 eV
Kinetic Energy     :          192.84934008 Eh            5247.69733 eV
Virial Ratio       :            2.00139488


---------------
SCF CONVERGENCE
---------------

  Last Energy change         ...   -2.9102e-09  Tolerance :   1.0000e-08
  Last MAX-Density change    ...    7.9903e-06  Tolerance :   1.0000e-07
  Last RMS-Density change    ...    3.1169e-07  Tolerance :   5.0000e-09
  Last Orbital Gradient      ...    2.2644e-06  Tolerance :   1.0000e-05
  Last Orbital Rotation      ...    4.8126e-06  Tolerance :   1.0000e-05

             **** THE GBW FILE WAS UPDATED (ethyl_methyl_ether_a.gbw) ****
             **** DENSITY FILE WAS UPDATED (ethyl_methyl_ether_a.scfp.tmp) ****
             **** ENERGY FILE WAS UPDATED (ethyl_methyl_ether_a.en.tmp) ****
----------------
ORBITAL ENERGIES
----------------

  NO   OCC          E(Eh)            E(eV) 
   0   2.0000     -20.548550      -559.1545 
   1   2.0000     -11.277168      -306.8674 
   2   2.0000     -11.274648      -306.7988 
   3   2.0000     -11.220319      -305.3204 
   4   2.0000      -1.365740       -37.1637 
   5   2.0000      -1.021135       -27.7865 
   6   2.0000      -0.911305       -24.7979 
   7   2.0000      -0.826856       -22.4999 
   8   2.0000      -0.662077       -18.0160 
   9   2.0000      -0.646629       -17.5957 
  10   2.0000      -0.619749       -16.8642 
  11   2.0000      -0.578209       -15.7339 
  12   2.0000      -0.532168       -14.4810 
  13   2.0000      -0.503617       -13.7041 
  14   2.0000      -0.499500       -13.5921 
  15   2.0000      -0.468760       -12.7556 
  16   2.0000      -0.415247       -11.2995 
  17   0.0000       0.185358         5.0439 
  18   0.0000       0.206148         5.6096 
  19   0.0000       0.239929         6.5288 
  20   0.0000       0.246971         6.7204 
  21   0.0000       0.264406         7.1949 
  22   0.0000       0.279507         7.6058 
  23   0.0000       0.283928         7.7261 
  24   0.0000       0.302430         8.2295 
  25   0.0000       0.312953         8.5159 
  26   0.0000       0.400542        10.8993 
  27   0.0000       0.424375        11.5478 
  28   0.0000       0.589391        16.0381 
  29   0.0000       0.596633        16.2352 
  30   0.0000       0.649149        17.6642 
  31   0.0000       0.655539        17.8381 
  32   0.0000       0.700921        19.0730 
  33   0.0000       0.743054        20.2195 
  34   0.0000       0.761160        20.7122 
  35   0.0000       0.831055        22.6141 
  36   0.0000       0.846675        23.0392 
  37   0.0000       0.865533        23.5523 
  38   0.0000       0.873629        23.7726 
  39   0.0000       0.888285        24.1715 
  40   0.0000       0.895285        24.3619 
  41   0.0000       0.902581        24.5605 
  42   0.0000       0.904898        24.6235 
  43   0.0000       0.927250        25.2318 
  44   0.0000       0.944048        25.6888 
  45   0.0000       1.114525        30.3278 
  46   0.0000       1.128748        30.7148 
  47   0.0000       1.130987        30.7757 
  48   0.0000       1.176775        32.0217 
  49   0.0000       1.232428        33.5361 
  50   0.0000       1.408125        38.3170 
  51   0.0000       1.458233        39.6805 
  52   0.0000       1.462804        39.8049 
  53   0.0000       1.494000        40.6538 
  54   0.0000       1.547732        42.1159 
  55   0.0000       1.553948        42.2851 
  56   0.0000       1.665611        45.3236 
  57   0.0000       1.671573        45.4858 
  58   0.0000       1.689775        45.9811 
  59   0.0000       1.818707        49.4895 
  60   0.0000       1.848027        50.2874 
  61   0.0000       1.866419        50.7878 
  62   0.0000       1.883765        51.2598 
  63   0.0000       1.908127        51.9228 
  64   0.0000       1.926156        52.4134 
  65   0.0000       1.929267        52.4980 
  66   0.0000       1.949737        53.0550 
  67   0.0000       1.983558        53.9754 
  68   0.0000       1.985804        54.0365 
  69   0.0000       1.996766        54.3348 
  70   0.0000       2.022729        55.0413 
  71   0.0000       2.085627        56.7528 
  72   0.0000       2.113272        57.5051 
  73   0.0000       2.149876        58.5011 
  74   0.0000       2.228767        60.6478 
  75   0.0000       2.288993        62.2867 
  76   0.0000       2.330277        63.4100 
  77   0.0000       2.354602        64.0720 
  78   0.0000       2.374111        64.6028 
  79   0.0000       2.455445        66.8161 
  80   0.0000       2.510939        68.3261 
  81   0.0000       2.532762        68.9200 
  82   0.0000       2.574662        70.0601 
  83   0.0000       2.743533        74.6553 
  84   0.0000       2.744812        74.6901 
  85   0.0000       2.759821        75.0985 
  86   0.0000       2.777432        75.5778 
  87   0.0000       2.805424        76.3395 
  88   0.0000       2.822096        76.7931 
  89   0.0000       2.886951        78.5579 
  90   0.0000       2.913703        79.2859 
  91   0.0000       3.345777        91.0432 
  92   0.0000       3.382994        92.0560 
  93   0.0000       3.459544        94.1390 
  94   0.0000       3.629722        98.7698 
  95   0.0000       3.732667       101.5710 

                    ********************************
                    * MULLIKEN POPULATION ANALYSIS *
                    ********************************

-----------------------
MULLIKEN ATOMIC CHARGES
-----------------------
   0 C :   -0.046961
   1 C :    0.155935
   2 O :   -0.492198
   3 C :    0.175834
   4 H :    0.025982
   5 H :    0.042196
   6 H :    0.013534
   7 H :    0.042454
   8 H :    0.013744
   9 H :    0.013743
  10 H :    0.042198
  11 H :    0.013539
Sum of atomic charges:   -0.0000000

--------------------------------
MULLIKEN REDUCED ORBITAL CHARGES
--------------------------------
  0 C s       :     3.040881  s :     3.040881
      pz      :     1.019474  p :     2.946677
      px      :     0.942560
      py      :     0.984642
      dz2     :     0.011623  d :     0.059403
      dxz     :     0.005553
      dyz     :     0.016868
      dx2y2   :     0.007560
      dxy     :     0.017799
  1 C s       :     3.036603  s :     3.036603
      pz      :     0.974676  p :     2.677849
      px      :     0.860747
      py      :     0.842426
      dz2     :     0.018039  d :     0.129613
      dxz     :     0.014750
      dyz     :     0.033370
      dx2y2   :     0.024741
      dxy     :     0.038714
  2 O s       :     3.789957  s :     3.789957
      pz      :     1.894066  p :     4.684394
      px      :     1.208722
      py      :     1.581605
      dz2     :     0.002742  d :     0.017847
      dxz     :     0.001737
      dyz     :     0.001653
      dx2y2   :     0.003385
      dxy     :     0.008330
  3 C s       :     3.025723  s :     3.025723
      pz      :     0.985481  p :     2.693235
      px      :     0.743304
      py      :     0.964450
      dz2     :     0.015859  d :     0.105208
      dxz     :     0.018941
      dyz     :     0.019629
      dx2y2   :     0.020532
      dxy     :     0.030247
  4 H s       :     0.943404  s :     0.943404
      pz      :     0.005366  p :     0.030615
      px      :     0.013250
      py      :     0.011998
  5 H s       :     0.927120  s :     0.927120
      pz      :     0.015475  p :     0.030684
      px      :     0.004650
      py      :     0.010559
  6 H s       :     0.958711  s :     0.958711
      pz      :     0.015669  p :     0.027755
      px      :     0.002641
      py      :     0.009445
  7 H s       :     0.928014  s :     0.928014
      pz      :     0.005647  p :     0.029532
      px      :     0.009139
      py      :     0.014746
  8 H s       :     0.956753  s :     0.956753
      pz      :     0.016139  p :     0.029503
      px      :     0.003160
      py      :     0.010205
  9 H s       :     0.956754  s :     0.956754
      pz      :     0.016136  p :     0.029503
      px      :     0.003161
      py      :     0.010207
 10 H s       :     0.927118  s :     0.927118
      pz      :     0.015473  p :     0.030683
      px      :     0.004650
      py      :     0.010560
 11 H s       :     0.958706  s :     0.958706
      pz      :     0.015670  p :     0.027755
      px      :     0.002641
      py      :     0.009445


                     *******************************
                     * LOEWDIN POPULATION ANALYSIS *
                     *******************************

----------------------
LOEWDIN ATOMIC CHARGES
----------------------
   0 C :   -0.053712
   1 C :    0.013453
   2 O :   -0.090624
   3 C :    0.011376
   4 H :    0.024210
   5 H :    0.026137
   6 H :    0.004782
   7 H :    0.021685
   8 H :    0.005885
   9 H :    0.005884
  10 H :    0.026140
  11 H :    0.004783

-------------------------------
LOEWDIN REDUCED ORBITAL CHARGES
-------------------------------
  0 C s       :     2.798446  s :     2.798446
      pz      :     1.052837  p :     3.097591
      px      :     1.007564
      py      :     1.037190
      dz2     :     0.031290  d :     0.157675
      dxz     :     0.012553
      dyz     :     0.046275
      dx2y2   :     0.020134
      dxy     :     0.047423
  1 C s       :     2.807581  s :     2.807581
      pz      :     1.043056  p :     2.871414
      px      :     0.908416
      py      :     0.919941
      dz2     :     0.041806  d :     0.307552
      dxz     :     0.032211
      dyz     :     0.089552
      dx2y2   :     0.058375
      dxy     :     0.085608
  2 O s       :     3.414234  s :     3.414234
      pz      :     1.835192  p :     4.646804
      px      :     1.231166
      py      :     1.580445
      dz2     :     0.003705  d :     0.029586
      dxz     :     0.003523
      dyz     :     0.001985
      dx2y2   :     0.006759
      dxy     :     0.013614
  3 C s       :     2.813629  s :     2.813629
      pz      :     1.053455  p :     2.911918
      px      :     0.827075
      py      :     1.031388
      dz2     :     0.039687  d :     0.263077
      dxz     :     0.045585
      dyz     :     0.055581
      dx2y2   :     0.045522
      dxy     :     0.076702
  4 H s       :     0.897768  s :     0.897768
      pz      :     0.015780  p :     0.078021
      px      :     0.032393
      py      :     0.029848
  5 H s       :     0.895158  s :     0.895158
      pz      :     0.036644  p :     0.078704
      px      :     0.015629
      py      :     0.026432
  6 H s       :     0.920502  s :     0.920502
      pz      :     0.037314  p :     0.074716
      px      :     0.012789
      py      :     0.024613
  7 H s       :     0.902794  s :     0.902794
      pz      :     0.015224  p :     0.075521
      px      :     0.024718
      py      :     0.035580
  8 H s       :     0.919059  s :     0.919059
      pz      :     0.038022  p :     0.075056
      px      :     0.011574
      py      :     0.025460
  9 H s       :     0.919059  s :     0.919059
      pz      :     0.038016  p :     0.075057
      px      :     0.011576
      py      :     0.025465
 10 H s       :     0.895157  s :     0.895157
      pz      :     0.036640  p :     0.078702
      px      :     0.015629
      py      :     0.026434
 11 H s       :     0.920500  s :     0.920500
      pz      :     0.037316  p :     0.074717
      px      :     0.012789
      py      :     0.024612


                      *****************************
                      * MAYER POPULATION ANALYSIS *
                      *****************************

  NA   - Mulliken gross atomic population
  ZA   - Total nuclear charge
  QA   - Mulliken gross atomic charge
  VA   - Mayer's total valence
  BVA  - Mayer's bonded valence
  FA   - Mayer's free valence

  ATOM       NA         ZA         QA         VA         BVA        FA
  0 C      6.0470     6.0000    -0.0470     4.0083     4.0083    -0.0000
  1 C      5.8441     6.0000     0.1559     3.9898     3.9898    -0.0000
  2 O      8.4922     8.0000    -0.4922     1.9512     1.9512    -0.0000
  3 C      5.8242     6.0000     0.1758     3.9438     3.9438    -0.0000
  4 H      0.9740     1.0000     0.0260     0.9749     0.9749     0.0000
  5 H      0.9578     1.0000     0.0422     0.9793     0.9793     0.0000
  6 H      0.9865     1.0000     0.0135     0.9618     0.9618    -0.0000
  7 H      0.9575     1.0000     0.0425     0.9852     0.9852     0.0000
  8 H      0.9863     1.0000     0.0137     0.9740     0.9740     0.0000
  9 H      0.9863     1.0000     0.0137     0.9740     0.9740     0.0000
 10 H      0.9578     1.0000     0.0422     0.9793     0.9793    -0.0000
 11 H      0.9865     1.0000     0.0135     0.9618     0.9618    -0.0000

  Mayer bond orders larger than 0.1
B(  0-C ,  1-C ) :   1.0826 B(  0-C ,  4-H ) :   0.9761 B(  0-C ,  5-H ) :   0.9789 
B(  0-C , 10-H ) :   0.9789 B(  1-C ,  2-O ) :   0.9560 B(  1-C ,  6-H ) :   0.9656 
B(  1-C , 11-H ) :   0.9656 B(  2-O ,  3-C ) :   0.9783 B(  3-C ,  7-H ) :   0.9945 
B(  3-C ,  8-H ) :   0.9811 B(  3-C ,  9-H ) :   0.9811 

-------
TIMINGS
-------

Total SCF time: 0 days 0 hours 0 min 1 sec 

Total time                  ....       1.898 sec
Sum of individual times     ....       1.738 sec  ( 91.6%)

Fock matrix formation       ....       1.708 sec  ( 90.0%)
Diagonalization             ....       0.004 sec  (  0.2%)
Density matrix formation    ....       0.001 sec  (  0.0%)
Population analysis         ....       0.003 sec  (  0.2%)
Initial guess               ....       0.019 sec  (  1.0%)
Orbital Transformation      ....       0.000 sec  (  0.0%)
Orbital Orthonormalization  ....       0.000 sec  (  0.0%)
DIIS solution               ....       0.000 sec  (  0.0%)
SOSCF solution              ....       0.002 sec  (  0.1%)


           ************************************************************
           *        Program running with 4 parallel MPI-processes     *
           *              working on a common directory               *
           ************************************************************


------------------------------------------------------------------------------- 
                              ORCA-MATRIX DRIVEN CI                            
------------------------------------------------------------------------------- 


Wavefunction type
-----------------
Correlation treatment                      ...      CCSD     
Single excitations                         ... ON
Orbital optimization                       ... OFF
Calculation of Z vector                    ... OFF
Calculation of Brueckner orbitals          ... OFF
Perturbative triple excitations            ... ON
Calculation of F12 correction              ... OFF
Frozen core treatment                      ... chemical core (8 el)
Reference Wavefunction                     ... RHF
  Internal Orbitals:     4 ...   16 ( 13 MO's/ 26 electrons)
  Virtual  Orbitals:    17 ...   95 ( 79 MO's              )
Number of AO's                             ...     96
Number of electrons                        ...     34
Number of correlated electrons             ...     26

Algorithmic settings
--------------------
Integral transformation                    ... All integrals via the RI transformation
K(C) Formation                             ... RI-DLPNO
   PNO-Integral Storage                    ... ON DISK
   PNO occupation number cut-off           ... 1.000e-07
   Singles PNO occupation number cut-off   ... 3.000e-09
   PNO Mulliken prescreening cut-off       ... 1.000e-03
   Domain cut-off (Mulliken population)    ... 1.000e-03
   PNO Normalization                       ...    1
Maximum number of iterations               ...        50
Convergence tolerance (max. residuum)      ... 1.000e-05
Level shift for amplitude update           ... 2.000e-01
Maximum number of DIIS vectors             ...         7
DIIS turned on at iteration                ...         0
Damping before turning on DIIS             ...     0.500
Damping after turning on DIIS              ...     0.000
Pair specific amplitude update             ... OFF
Natural orbital iterations                 ... OFF
Perturbative natural orbital generation    ... OFF
Printlevel                                 ... 2

Singles Fock matrix elements calculated using PNOs.

Memory handling:
----------------
Maximum memory for working arrays          ...   8000 MB
Data storage in matrix containers          ... UNCOMPRESSED
Data type for integral storage             ... DOUBLE
In-Core Storage of quantities:
   Amplitudes+Sigma Vector      ... NO
   J+K operators                ... NO
   DIIS vectors                 ... NO
   3-external integrals         ... NO
   4-external integrals         ... NO

Localization treatment:
-----------------------
Localization option                        ...    6
Localization threshhold                    ... -1.0e+00
Using relative localization threshhold     ... 1.0e-08
Neglect threshold for strong pairs         ... 1.000e-05 Eh
Prescreening threshold for very weak pairs ... 1.000e-07 Eh

Initializing the integral package          ... done
Localizing the valence orbitals
------------------------------------------------------------------------------
                           ORCA ORBITAL LOCALIZATION
------------------------------------------------------------------------------

Input orbitals are from                  ... ethyl_methyl_ether_a.proc0.gbw
Output orbitals are to                   ... ethyl_methyl_ether_a.proc0.loc
Max. number of iterations                ... 128
Localizations seeded randomly            ... off
Convergence tolerance                    ... 1.000e-06
Using relative localization threshhold   ... 1.000e-08
Treshold for strong local MOs            ... 9.500e-01
Treshold for bond MOs                    ... 8.500e-01
Operator                                 ... 0
Orbital range for localization           ... 4 to 16
Localization criterion                   ... FOSTER-BOYS (AUGMENTED HESSIAN)
Doing the dipole integrals     ... o.k.
Initial value of the localization sum :   116.112207
ITERATION   0 : L=  127.5542033163 DL=  1.14e+01 (AVERGE_DL)=    0.3830042537 
ITERATION   1 : L=  128.3936174224 DL=  8.39e-01 (AVERGE_DL)=    0.1037387069 
ITERATION   2 : L=  128.4021232114 DL=  8.51e-03 (AVERGE_DL)=    0.0104426327 
ITERATION   3 : L=  128.4022368127 DL=  1.14e-04 (AVERGE_DL)=    0.0012068254 
ITERATION   4 : L=  128.4022462372 DL=  9.42e-06 (AVERGE_DL)=    0.0003476010 
ITERATION   5 : L=  128.4022473964 DL=  1.16e-06 (AVERGE_DL)=    0.0001219066 
ITERATION   6 : L=  128.4022475281 DL=  1.32e-07 (AVERGE_DL)=    0.0000410849 
LOCALIZATION SUM CONVERGED

------------------------------------------------------
AUGMENTED HESSIAN OPTIMIZATION OF FOSTER-BOYS ORBITALS
------------------------------------------------------

Spin operator:           0
Orbital window:          4 to 16
Number of iterations:    128
Gradient tolerance:      1.000e-06
Number of pairs:         78
Davidson threshold:      2000
Diagonalization method:  LAPACK
Iter:    0   L: 128.4022475281   Grad. norm: 5.517875e-04
   *** Likely close to a maximum now. ***
       Augmented Hessian eigenvalues:  3.27e-08 -1.22e+00 -3.63e+00 -5.39e+00 ... 
Iter:    1   L: 128.4022475444   Grad. norm: 1.600026e-08
LOCALIZATION HAS CONVERGED.

Eigenvalues of the Hessian:
  0 -1.222e+00
  1 -3.628e+00
  2 -5.388e+00
  3 -5.499e+00
  4 -7.570e+00
  5 -1.092e+01
  6 -1.729e+01
  7 -1.789e+01
  8 -1.793e+01
  9 -1.796e+01
    ...


------------------------------------------------------------------------------- 
                    LOCALIZED MOLECULAR ORBITAL COMPOSITIONS                   
------------------------------------------------------------------------------- 

The Mulliken populations for each LMO on each atom are computed
The LMO`s will be ordered according to atom index and type
  (A) Strongly localized MO`s have populations of >=0.950 on one atom
  (B) Two center bond orbitals have populations of >=0.850 on two atoms
  (C) Other MO`s are considered to be `delocalized`

FOUND  -   2 strongly local MO`s
       -  11 two center bond MO`s
       -   0 significantly delocalized MO`s

Rather strongly localized orbitals:
MO   5:   2O  -   0.981367
MO   4:   2O  -   0.981365
Bond-like localized orbitals:
MO  16:  11H  -   0.515300  and   1C  -   0.503881
MO  15:  10H  -   0.494136  and   0C  -   0.517228
MO  14:   9H  -   0.511098  and   3C  -   0.509969
MO  13:   8H  -   0.511097  and   3C  -   0.509970
MO  12:   7H  -   0.491078  and   3C  -   0.525652
MO  11:   6H  -   0.515302  and   1C  -   0.503880
MO  10:   5H  -   0.494137  and   0C  -   0.517227
MO   9:   4H  -   0.505549  and   0C  -   0.501735
MO   8:   3C  -   0.357745  and   2O  -   0.660946
MO   7:   2O  -   0.666138  and   1C  -   0.355331
MO   6:   1C  -   0.546352  and   0C  -   0.494138
Localized MO's were stored in: ethyl_methyl_ether_a.proc0.loc

Localizing the core orbitals
------------------------------------------------------------------------------
                           ORCA ORBITAL LOCALIZATION
------------------------------------------------------------------------------

Input orbitals are from                  ... ethyl_methyl_ether_a.proc0.loc
Output orbitals are to                   ... ethyl_methyl_ether_a.proc0.loc
Max. number of iterations                ... 128
Localizations seeded randomly            ... off
Convergence tolerance                    ... 1.000e-06
Using relative localization threshhold   ... 1.000e-08
Treshold for strong local MOs            ... 9.500e-01
Treshold for bond MOs                    ... 8.500e-01
Operator                                 ... 0
Orbital range for localization           ... 0 to 3
Localization criterion                   ... FOSTER-BOYS (AUGMENTED HESSIAN)
Doing the dipole integrals     ... o.k.
Initial value of the localization sum :    27.890827
ITERATION   0 : L=   27.8908284304 DL=  1.84e-06 (AVERGE_DL)=    0.0005544788 
ITERATION   1 : L=   27.8908284304 DL=  0.00e+00 (AVERGE_DL)=    0.0000000000 
LOCALIZATION SUM CONVERGED

------------------------------------------------------
AUGMENTED HESSIAN OPTIMIZATION OF FOSTER-BOYS ORBITALS
------------------------------------------------------

Spin operator:           0
Orbital window:          0 to 3
Number of iterations:    128
Gradient tolerance:      1.000e-06
Number of pairs:         6
Davidson threshold:      2000
Diagonalization method:  LAPACK
Iter:    0   L: 27.8908284304   Grad. norm: 3.625496e-07
   *** Likely close to a maximum now. ***
       Augmented Hessian eigenvalues:  2.50e-15 -2.86e+01 -2.88e+01 -3.30e+01 ... 
Iter:    1   L: 27.8908284304   Grad. norm: 2.631719e-20
LOCALIZATION HAS CONVERGED.

Eigenvalues of the Hessian:
  0 -2.858e+01
  1 -2.884e+01
  2 -3.298e+01
  3 -7.995e+01
  4 -8.166e+01
  5 -1.940e+02


------------------------------------------------------------------------------- 
                    LOCALIZED MOLECULAR ORBITAL COMPOSITIONS                   
------------------------------------------------------------------------------- 

The Mulliken populations for each LMO on each atom are computed
The LMO`s will be ordered according to atom index and type
  (A) Strongly localized MO`s have populations of >=0.950 on one atom
  (B) Two center bond orbitals have populations of >=0.850 on two atoms
  (C) Other MO`s are considered to be `delocalized`

FOUND  -   4 strongly local MO`s
       -   0 two center bond MO`s
       -   0 significantly delocalized MO`s

Rather strongly localized orbitals:
MO   3:   3C  -   0.999771
MO   2:   2O  -   0.999692
MO   1:   1C  -   0.999582
MO   0:   0C  -   0.999498
Localized MO's were stored in: ethyl_methyl_ether_a.proc0.loc

Warning: internal orbitals are localized - no re-canonicalization of internal orbitals

--------------------------
CLOSED-SHELL FOCK OPERATOR
--------------------------

RI-JK section for the Fock operator:
  RHF full Fock operator         ... done
  RHF frozen core Fock operator  ... done
Time needed for Fock operator              ...            0.593 sec
Reference energy                           ...   -193.118341633

--------------
DLPNO SETTINGS (2015 fully linear scaling implementation)
--------------

TCutMKN:           1.000e-03
TCutPAO:           1.000e-03
TCutPNO:           1.000e-07
TCutPNOSingles:    3.000e-09
TCutEN:            9.700e-01
TCutPAOExt:        1.000e-01
TCutPairs:         1.000e-05
TCutPre:           1.000e-07
TCutOSV:           1.000e-06
TCutDOij:          1.000e-05
TCutDO:            5.000e-03
TCutC:             1.000e-04
TCutCPAO:          1.000e-03
TCutCMO:           1.000e-03
TScaleDOMP2PreScr: 2.000e+00
TScaleMKNMP2PreScr:1.000e+01
TScalePNOMP2PreScr:1.000e+00
PAO overlap thresh 1.000e-08
Using PNOs for Singles Fock computation
Use new domains
Use fully linear algorithm
TCutTNO:           1.000e-09
TCutMP2Pairs:      1.000e-06
TCutDOStrong:      2.000e-03
TCutMKNStrong:     1.000e-02
TCutMKNWeak:       1.000e-01
TCutDOWeak:        4.000e-03
NTCutTNO:          1

--------------------------
Calculating differential overlap integrals ... ok
--------------------------
ELECTRON PAIR PRESCREENING
--------------------------

Dipole-based pair screening          .... used

   TCutDOij = 1.000000e-05
   TCutPre  = 1.000000e-07
   .... Finished loop over pairs
Total time spent in the prescreening                  ...     0.000 sec
sum of pair energies estimated for screened out pairs ...       0.000000000000 Eh
Thresholds for map construction and integral transformation for crude MP2:
   TCutMKN                    ...     1.0e-02
   TCutDO                     ...     1.0e-02
   TCutPairs                  ...     1.0e-05
   TCutPNO_CrudeMP2           ...     1.0e-07
   TCutPNOSingles_CrudeMP2    ...     3.0e-09
--------------------------------
LOCAL RI TRANSFORMATION (IAVPAO)
--------------------------------

Orbital window:       4 to 16
Number of PAOs:      96
Basis functions:     96 (48 shells)
Aux. functions:     336 (120 shells)

Processing maps (0.0 sec)
Average map sizes:
   Aux shells -> MOs              13.0
   Aux shells -> PAOs             96.0
   MOs        -> AO shells        47.1
   PAOs       -> AO shells        48.0

Calculating integrals (0.2 sec, 3.203 MB)
Sorting integrals (0.0 sec, 3.199 MB)
Total time for the integral transformation: 0.3 sec
--------------------------------
INITIAL GUESS AND PNO GENERATION
--------------------------------

PNO truncation parameters                   .... 
    PAOOverlapThresh   =        1.000e-08

    TCutPairs          =        1.000e-05
    TCutPNO            =        1.000e-07
    TCutPNOSingles     =        3.000e-09
    TCutMP2Pairs       =        1.000e-06
    TCutMKN            =        1.000e-02
    TCutDO             =        1.000e-02

Pair selection                          .... not used
Type of local MP2 treatment                 .... semi-local MP2
Strategy for PNO selection                  .... occupation number selection
Pair density normalization                  .... MP2 norm
Spin component scaling                      .... not used

   .... Finished loop over pairs
Making pair pair interaction lists          ... done

                       ===========================
                         91 OF   91 PAIRS ARE KEPT CCSD PAIRS
                          0 OF   91 PAIRS ARE KEPT MP2 PAIRS FOR (T)
                          0 OF   91 PAIRS ARE SKIPPED
                       ===========================

Total time spent in the initial guess                 ...     0.106 sec
SL-MP2 correlation energy (all non-screened pairs)    ...      -0.601006886643 Eh

Initial PNO correlation energy                        ...      -0.600833097000 Eh
sum of pair energies prescreened and skipped MP2 pairs...       0.000000000000 Eh
sum of pair energies of crude MP2 skipped pairs only  ...       0.000000000000 Eh
sum of MP2 pair energies for pairs that were not kept ...       0.000000000000 Eh
sum of PNO error estimates for the kept pairs         ...      -0.000173789644 Eh
                                                          --------------------
sum of all corrections                                         -0.000173789644
Initial total correlation energy                               -0.601006886643
Thresholds for map construction and integral transformation for fine MP2 and CCSD(T) calculation:
   TCutMKN   ...     1.0e-03
   TCutDO    ...     5.0e-03
   TCutPairs ...     1.0e-05
   TCutCMO   ...     1.0e-03
   TCutCPAO  ...     1.0e-03

Thresholds for map construction and integral transformation for strong Triples:
   TCutMKN   ...     1.0e-02
   TCutDO    ...     1.0e-02
   TCutCMO   ...     1.0e-03
   TCutCPAO  ...     1.0e-03

Thresholds for map construction and integral transformation for weak Triples:
   TCutMKN   ...     1.0e-01
   TCutDO    ...     2.0e-02
   TCutCMO   ...     1.0e-03
   TCutCPAO  ...     1.0e-03

--------------------------------
LOCAL RI TRANSFORMATION (IAVPAO)
--------------------------------

Orbital window:       4 to 16
Number of PAOs:      96
Basis functions:     96 (48 shells)
Aux. functions:     336 (120 shells)

Processing maps (0.0 sec)
Average map sizes:
   Aux shells -> MOs              13.0
   Aux shells -> PAOs             96.0
   MOs        -> AO shells        47.1
   PAOs       -> AO shells        48.0

Calculating integrals (0.2 sec, 3.203 MB)
Sorting integrals (0.0 sec, 3.199 MB)
Total time for the integral transformation: 0.3 sec
--------------------------------
INITIAL GUESS AND PNO GENERATION
--------------------------------

PNO truncation parameters                   .... 
    ScaleTCutPNO       =        1.000e-02
    PAOOverlapThresh   =        1.000e-08

    TCutPairs          =        1.000e-05
    TCutPNO            =        1.000e-07
    TCutPNOSingles     =        3.000e-09
    TCutMP2Pairs       =        1.000e-06
    TCutMKN            =        1.000e-03
    TCutDO             =        5.000e-03

Pair selection                          .... not used
Type of local MP2 treatment                 .... full local PMP2
Strategy for PNO selection                  .... occupation number selection
Pair density normalization                  .... MP2 norm
Spin component scaling                      .... not used

PASS-1: Formation of initial guess LMP2 amplitudes
Initial amplitudes guess done. Entering LMP2 iteration loop:
   Max. no of iterations          ...  50
   Energy convergence tolerance   ...    1.0e-07
   Residual convergence tolerance ...    5.0e-07
   Fock matrix cutoff             ...    1.0e-05 Eh
   DIIS convergence acceleration parameters:
        Max # vectors in DIIS     ... 7
        Start iteration of DIIS   ... 0
        Levelshift                ... 2.000e-01
        Damping factor 1          ... 5.000e-01
        Damping factor 2          ... 1.000e+00
   L-MP2 PNO cut-off              ...   1.0e-09
   L-MP2 PNO cut-off (core)       ...   1.0e-11
                           *** Turning on DIIS ***
LMP2-Iter=   0:  ELMP2= -0.613842471234  DE=   1.3e-02 RMAX=   6.6e-03
LMP2-Iter=   1:  ELMP2= -0.620165425597  DE=   6.3e-03 RMAX=   3.3e-03
LMP2-Iter=   2:  ELMP2= -0.621108448478  DE=   9.4e-04 RMAX=   7.1e-04
LMP2-Iter=   3:  ELMP2= -0.621204846737  DE=   9.6e-05 RMAX=   2.4e-04
LMP2-Iter=   4:  ELMP2= -0.621210150672  DE=   5.3e-06 RMAX=   2.8e-05
LMP2-Iter=   5:  ELMP2= -0.621209357710  DE=   7.9e-07 RMAX=   8.2e-06
LMP2-Iter=   6:  ELMP2= -0.621209262322  DE=   9.5e-08 RMAX=   1.0e-06
LMP2-Iter=   7:  ELMP2= -0.621209260215  DE=   2.1e-09 RMAX=   3.3e-07
LMP2-Iter=   8:  ELMP2= -0.621209267280  DE=   7.1e-09 RMAX=   3.9e-08 => CONVERGED
PASS-2: Formation of Pair natural orbitals
   .... Finished loop over pairs

 PNO Occupation Number Statistics: 
  | Av. % of trace(Dij) retained        ...  99.767421622053
  | sigma^2 in % of trace(Dij) retained ...   1.67e-01
  | Av. % of trace(Di) retained         ...  99.999907553412
  | sigma^2 in % of trace(Di) retained  ...   2.13e-09
 Distributions of % trace(Dij) recovered:
  |       >= 99.9  ...    59 ( 64.8 % of all pairs)
  |   [90.0, 99.0) ...     9 (  9.9 % of all pairs)
  |   [99.0, 99.9) ...    23 ( 25.3 % of all pairs)
 Distributions of % trace(Di) recovered :
  |       >= 99.9  ...    13 (100.0 % of all I-pairs )

Making pair pair interaction lists          ... done

                       ===========================
                         91 OF   91 PAIRS ARE KEPT
                       ===========================

Total time spent in the initial guess                 ...     0.908 sec
L-MP2 correlation energy (all non-screened pairs)     ...      -0.621209267280 Eh
L-MP2 PNO error correction                            ...      -0.000001808250 Eh
                                                          --------------------
Initial total L-MP2 energy (non-screened pairs)       ...      -0.621211075530 Eh

Initial PNO correlation energy                        ...      -0.621057210928 Eh
sum of pair energies estimated for screened out pairs ...       0.000000000000 Eh
sum of MP2 pair energies for pairs that were not kept ...       0.000000000000 Eh
sum of PNO error estimates for the kept pairs         ...      -0.000153864602 Eh
                                                          --------------------
sum of all corrections                                         -0.000153864602
Initial total correlation energy                               -0.621211075530
Thresholds for map construction and integral transformation for fine MP2 and CCSD(T) calculation:
   TCutMKN   ...     1.0e-03
   TCutDO    ...     5.0e-03
   TCutPairs ...     1.0e-05
   TCutCMO   ...     1.0e-03
   TCutCPAO  ...     1.0e-03

Time for aux screen maps:            0.001
Time for maps after fine MP2:            0.003
-----------------------------
LOCAL RI TRANSFORMATION (IJV)
-----------------------------

Orbital window:       4 to 16
Basis functions:     96 (48 shells)
Aux. functions:     336 (120 shells)

Processing maps (0.0 sec)
Average map sizes:
   Aux shells -> MOs(i)           13.0
   Aux shells -> MOs(j)           13.0
   MOs        -> AO shells        47.1

Calculating integrals (0.3 sec, 0.437 MB)
Sorting integrals (0.0 sec, 0.433 MB)
Total time for the integral transformation: 0.3 sec
--------------------------------
LOCAL RI TRANSFORMATION (VABPAO)
--------------------------------

Number of PAOs:      96
Basis functions:     96 (48 shells)
Aux. functions:     336 (120 shells)

Processing maps (0.0 sec)
Average map sizes:
   Aux shells -> PAOs             96.0
   PAOs       -> AO shells        48.0

Calculating integrals (0.3 sec, 42.054 MB)
Finished


-------------------------------------
Pair Pair Term precalculation with     
RI-(ij|mn) and (im|jn) transformation  
ON THE FLY                             
-------------------------------------

   IBatch   1 (of   1)              ... done (    3.235 sec)
Total EXT                           ...           3.235 sec

---------------------
RI-PNO TRANSFORMATION
---------------------

Total Number of PNOs                   ...  2559
Average number of PNOs per pair        ...    28
Maximal number of PNOs per pair        ...    39
   #pairs with  1 -  5 PNOs   :    0
   #pairs with  6 - 10 PNOs   :    2
   #pairs with 11 - 15 PNOs   :    6
   #pairs with 16 - 20 PNOs   :    3
   #pairs with 21 - 25 PNOs   :   20
   #pairs with 26 - 30 PNOs   :   13
   #pairs with 31 - 35 PNOs   :   38
   #pairs with 36 - 40 PNOs   :    9
   #pairs with 41 - 45 PNOs   :    0
   #pairs with 46 - 50 PNOs   :    0

Generation of (ij|ab)[P] integrals            ... on
Generation of (ia|bc)[P],(ja|bc)[P] integrals ... on
Storage of 3 and 4 external integrals         ... on
Generation of ALL (ka|bc)[P] integrals        ... on
Keep RI integrals in memory                   ... off

Ibatch:  1 (of  1)
Starting 2-4 index PNO integral generation ... done

Timings:
Total PNO integral transformation time     ...          1.023 sec
Size of the 3-external file                ...        18 MB
Size of the 4-external file                ...        76 MB
Size of the IKJL file                      ...         0 MB
Size of the all 3-external file            ...       121 MB
Size of the 1-external file                ...         0 MB

Making pair/pair overlap matrices          ... done (    0.135 sec)
Size of the pair overlap file              ... 36 MB
Redoing the guess amplitudes               ... done (    0.001 sec)

-------------------------
FINAL STARTUP INFORMATION
-------------------------

E(0)                                       ...   -193.118341633
E(L-MP2)                                   ...     -0.621211076
E(L-MP2) including corrections             ...     -0.621211076
Initial E(tot)                             ...   -193.739552708
<T|T>                                      ...      0.178683358
Number of pairs included                   ... 91
Total number of pairs                      ... 91

------------------------------------------------
                  RHF COUPLED CLUSTER ITERATIONS
------------------------------------------------

Number of PNO amplitudes to be optimized   ...        76399
Number of non-PNO amplitudes               ...       567931
Untruncated number of regular amplitudes   ...       567931

Iter       E(tot)           E(Corr)          Delta-E          Residual     Time
  0   -193.719501830     -0.601006333      0.020204743      0.020343792    0.89
                           *** Turning on DIIS ***
  1   -193.766107289     -0.647611791     -0.046605459      0.007881703    0.90
  2   -193.788073954     -0.669578457     -0.021966665      0.002181320    0.89
  3   -193.791066716     -0.672571219     -0.002992762      0.001259604    0.89
  4   -193.791829979     -0.673334482     -0.000763263      0.000382771    0.89
  5   -193.791989234     -0.673493737     -0.000159255      0.000180914    0.89
  6   -193.792022508     -0.673527010     -0.000033274      0.000079948    0.90
  7   -193.792029279     -0.673533781     -0.000006771      0.000029825    0.90
  8   -193.792030895     -0.673535398     -0.000001616      0.000010707    0.90
  9   -193.792030677     -0.673535180      0.000000218      0.000002942    0.90
               --- The Coupled-Cluster iterations have converged ---

----------------------
COUPLED CLUSTER ENERGY
----------------------

E(0)                                       ...   -193.118341633
E(CORR)(strong-pairs)                      ...     -0.673535180
E(CORR)(weak-pairs)                        ...     -0.000153865
E(CORR)(corrected)                         ...     -0.673689044
E(TOT)                                     ...   -193.792030677
Singles Norm <S|S>**1/2                    ...      0.044113330  
T1 diagnostic                              ...      0.008651336  

------------------
LARGEST AMPLITUDES
------------------
  12-> 25  12-> 25       0.043124
   9-> 26   9-> 26       0.041455
  11-> 17  11-> 17       0.037789
  16-> 17  16-> 17       0.037789
  15-> 26  15-> 26       0.037033
  10-> 26  10-> 26       0.037033
   9-> 17   9-> 17       0.036690
   7-> 18   7-> 18       0.036118
  13-> 17  13-> 17       0.035996
  14-> 17  14-> 17       0.035995
  15-> 17  15-> 17       0.035293
  10-> 17  10-> 17       0.035292
  12-> 17  12-> 17       0.034751
  11-> 25  11-> 25       0.034382
  16-> 25  16-> 25       0.034381
   8-> 18   8-> 18       0.033452


-------------------------------------------
DLPNO BASED TRIPLES CORRECTION
-------------------------------------------

Singles multiplier          ...  1.000000
TCutTNO                     ... 1.000e-09
TCutMP2Pairs                ... 1.000e-06
TCutDOStrong                ... 1.000e-02
TCutMKNStrong               ... 1.000e-02
TCutDOWeak                  ... 2.000e-02
TCutMKNWeak                 ... 1.000e-01

Fragment selection                          .... not used
Number of Triples that are to be computed   ...       442

 . . . . . . . . .
10% done  
20% done  
30% done  
40% done  
50% done  
60% done  
70% done  
80% done  
90% done               (      5.117 sec)
Triples timings:
Total time for T0               ...     5.510 sec
Total time for Iterative (T)    ...     0.000 sec
Total time of overall (T)       ...     5.669 sec

Triples List generation         ...     0.000 sec
TNO generation                  ...     0.392 sec
Pair density generation         ...     0.001 sec
Look up tables                  ...     0.000 sec
Generating 3-index integrals    ...     2.081 sec
  Make 4-ind.int. from 3-ind.int...     1.205 sec
  Projecting amplitudes (D + S) ...     0.400 sec
  Downprojecting integrals      ...     0.000 sec
  Energy contr. (sum over a,b,c)...     0.449 sec
Fitting ET(->0)                 ...     0.000 sec

Everything after 3-index        ...     3.036 sec

Timing details:
 TNO integrals                  ...     3.112 sec
   Reading 3-index integrals    ...     0.008 sec
   Sorting integrals            ...     0.718 sec
       Sorting integrals 1      ...     0.000 sec
       Sorting integrals 2      ...     0.161 sec
       Sorting integrals 3      ...     0.039 sec
       Sorting integrals 4      ...     0.004 sec
       Sorting integrals 5      ...     0.010 sec
       Sorting integrals 6      ...     0.503 sec
   Calculating local VM**-1/2   ...     0.035 sec
   Orthogonal. integrals        ...     0.072 sec
   Multipl. 3-index integrals   ...     2.278 sec
   All concerning IRIab (w/TNO) ...     0.539 sec

 Calculate W0/W1                ...     0.980 sec
 W 3-ext contribution           ...     0.579 sec
 W 3-int contribution           ...     0.159 sec
 Sorting W                      ...     0.216 sec

 V exchange contribution        ...     0.195 sec

 Timings for Triples without generation
     of 3-index integrals       ...     3.035 sec
       0 weak pairs             ...     3.035 sec
       1 weak pair              ...     0.000 sec
       2 weak pairs             ...     0.000 sec
       3 weak pairs             ...     0.000 sec
  Extra time for extrapolation  ...     0.000 sec

Number of Triples   (0, 1, 2, 3 weak pairs; overall):    442       0       0       0  (   442)
Number of Atoms     (0, 1, 2, 3 weak pairs; overall):   11.9     0.0     0.0     0.0  (    12)
Number of PAOs      (0, 1, 2, 3 weak pairs; overall):   95.2     0.0     0.0     0.0  (    96)
Number of AuxFcns   (0, 1, 2, 3 weak pairs; overall):  186.1     0.0     0.0     0.0  (   336)
Number of TNOs      (0, 1, 2, 3 weak pairs         ):   55.9     0.0     0.0     0.0
Aver. Number of NTNO, Atoms, PAOs, AuxFcns / Triples:    442    55.9    11.9    95.2   186.1

Triples Correction (T)                     ...     -0.017124960
Final correlation energy                   ...     -0.690814004
E(CCSD)                                    ...   -193.792030677
E(CCSD(T))                                 ...   -193.809155637


Maximum memory used throughout the entire calculation: 1140.9 MB


------------------------------------------------------------------------------- 
                                     TIMINGS                                   
------------------------------------------------------------------------------- 


Total execution time                   ...       22.502 sec

Localization of occupied MO's          ...        0.364 sec (  1.6%)
Fock Matrix Formation                  ...        0.593 sec (  2.6%)
Global overlap, Fock, MKN matrices     ...        0.108 sec (  0.5%)
Differential overlap integrals         ...        0.054 sec (  0.2%)
Organizing maps                        ...        0.008 sec (  0.0%)
RI 3-index integral generations        ...        1.042 sec (  4.6%)
RI-PNO integral transformation         ...        4.504 sec ( 20.0%)
Initial Guess                          ...        1.022 sec (  4.5%)
DIIS Solver                            ...        0.209 sec (  0.9%)
State Vector Update                    ...        0.006 sec (  0.0%)
Sigma-vector construction              ...        8.893 sec ( 39.5%)
  <D|H|D>(0-ext)                       ...        0.502 sec (  5.6% of sigma)
  <D|H|D>(2-ext Fock)                  ...        0.005 sec (  0.1% of sigma)
  <D|H|D>(2-ext)                       ...        0.986 sec ( 11.1% of sigma)
  <D|H|D>(4-ext)                       ...        0.878 sec (  9.9% of sigma)
  <D|H|D>(4-ext-corr)                  ...        3.854 sec ( 43.3% of sigma)
  CCSD doubles correction              ...        0.056 sec (  0.6% of sigma)
  <S|H|S>                              ...        0.109 sec (  1.2% of sigma)
  <S|H|D>(1-ext)                       ...        0.083 sec (  0.9% of sigma)
  <D|H|S>(1-ext)                       ...        0.004 sec (  0.0% of sigma)
  <S|H|D>(3-ext)                       ...        0.073 sec (  0.8% of sigma)
  Fock-dressing                        ...        1.327 sec ( 14.9% of sigma)
  Singles amplitudes                   ...        0.068 sec (  0.8% of sigma)
  (ik|jl)-dressing                     ...        0.345 sec (  3.9% of sigma)
  (ij|ab),(ia|jb)-dressing             ...        0.572 sec (  6.4% of sigma)
  Pair energies                        ...        0.002 sec (  0.0% of sigma)
Total Time for computing (T)           ...        5.684 sec ( 25.3% of ALL)


-------------------------   --------------------
FINAL SINGLE POINT ENERGY      -193.809155636775
-------------------------   --------------------


                            ***************************************
                            *     ORCA property calculations      *
                            ***************************************

                                    ---------------------
                                    Active property flags
                                    ---------------------
   (+) Dipole Moment


------------------------------------------------------------------------------
                       ORCA ELECTRIC PROPERTIES CALCULATION
------------------------------------------------------------------------------

Dipole Moment Calculation                       ... on
Quadrupole Moment Calculation                   ... off
Polarizability Calculation                      ... off
GBWName                                         ... ethyl_methyl_ether_a.gbw
Electron density file                           ... ethyl_methyl_ether_a.scfp.tmp
The origin for moment calculation is the CENTER OF MASS  = (-0.026367, -0.054959 -0.000016)

-------------
DIPOLE MOMENT
-------------
                                X             Y             Z
Electronic contribution:     -0.99526      -1.33954      -0.00030
Nuclear contribution   :      0.89633       1.86859       0.00038
                        -----------------------------------------
Total Dipole Moment    :     -0.09893       0.52905       0.00008
                        -----------------------------------------
Magnitude (a.u.)       :      0.53822
Magnitude (Debye)      :      1.36806



--------------------
Rotational spectrum 
--------------------
 
Rotational constants in cm-1:     0.941007     0.137052     0.128357 
Rotational constants in MHz : 28210.692754  4108.713035  3848.038129 

 Dipole components along the rotational axes: 
x,y,z [a.u.] :    -0.092609    -0.530197     0.000066 
x,y,z [Debye]:    -0.235392    -1.347654     0.000169 

 

Timings for individual modules:

Sum of individual times         ...       24.936 sec (=   0.416 min)
GTO integral calculation        ...        0.336 sec (=   0.006 min)   1.3 %
SCF iterations                  ...        1.980 sec (=   0.033 min)   7.9 %
MDCI module                     ...       22.621 sec (=   0.377 min)  90.7 %
                             ****ORCA TERMINATED NORMALLY****
TOTAL RUN TIME: 0 days 0 hours 0 minutes 25 seconds 174 msec
ethyl_methyl_ether_a.gbw -> /home1/pantazis/klk/VDZ/Oxygen_compounds/ethyl_methyl_ether_a.gbw
ethyl_methyl_ether_a.ges -> /home1/pantazis/klk/VDZ/Oxygen_compounds/ethyl_methyl_ether_a.ges
ethyl_methyl_ether_a.job -> /home1/pantazis/klk/VDZ/Oxygen_compounds/ethyl_methyl_ether_a.job
ethyl_methyl_ether_a.loc -> /home1/pantazis/klk/VDZ/Oxygen_compounds/ethyl_methyl_ether_a.loc
ethyl_methyl_ether_a.nodes -> /home1/pantazis/klk/VDZ/Oxygen_compounds/ethyl_methyl_ether_a.nodes
ethyl_methyl_ether_a.prop -> /home1/pantazis/klk/VDZ/Oxygen_compounds/ethyl_methyl_ether_a.prop
ethyl_methyl_ether_a_property.txt -> /home1/pantazis/klk/VDZ/Oxygen_compounds/ethyl_methyl_ether_a_property.txt
ethyl_methyl_ether_a.xyz -> /home1/pantazis/klk/VDZ/Oxygen_compounds/ethyl_methyl_ether_a.xyz
cp: cannot stat ethyl_methyl_ether_a.asa.inp: No such file or directory
