! Job execution by suborca V 6.07 on ZEUS !
Job started from zeus1, running /scratch/pantazis/ethylamine_g__60qaXf/orca/orca copied from /opt/orca on zeussn127 in /scratch/pantazis/ethylamine_g__60qaXf
Job execution start: Sat Jun 29 11:26:41 CEST 2019
Shared library path: /scratch/pantazis/ethylamine_g__60qaXf/orca:/opt/openmpi_1.10.2/lib:/opt/intel/mkl/lib/intel64:/opt/intel/lib/intel64:
PBS Job ID is: 158831.icqc
izeussn127
izeussn127
izeussn127
izeussn127

                                 *****************
                                 * O   R   C   A *
                                 *****************

           --- An Ab Initio, DFT and Semiempirical electronic structure package ---

                  #######################################################
                  #                        -***-                        #
                  #          Department of theory and spectroscopy      #
                  #               Directorship: Frank Neese             #
                  #        Max Planck Institute fuer Kohlenforschung    #
                  #                Kaiser Wilhelm Platz 1               #
                  #                 D-45470 Muelheim/Ruhr               #
                  #                      Germany                        #
                  #                                                     #
                  #                  All rights reserved                #
                  #                        -***-                        #
                  #######################################################


                         Program Version 4.1.x  -  STABLE  -
                                (SVN: $Rev: 14094$)
                ($Date: 2019-06-14 15:01:15 +0200 (Fri, 14 Jun 2019) $)

                         (BUILD: $Sun Jun 23 06:18:31 CEST 2019$)


 With contributions from (in alphabetic order):
   Daniel Aravena         : Magnetic Properties
   Michael Atanasov       : Ab Initio Ligand Field Theory
   Alexander A. Auer      : GIAO ZORA
   Ute Becker             : Parallelization
   Giovanni Bistoni       : ED, Open-shell LED
   Martin Brehm           : Molecular dynamics
   Dmytro Bykov           : SCF Hessian
   Vijay G. Chilkuri      : MRCI spin determinant printing
   Dipayan Datta          : RHF DLPNO-CCSD density
   Achintya Kumar Dutta   : EOM-CC, STEOM-CC
   Dmitry Ganyushin       : Spin-Orbit,Spin-Spin,Magnetic field MRCI
   Miquel Garcia          : C-PCM Hessian
   Yang Guo               : DLPNO-NEVPT2, CIM, IAO-localization
   Andreas Hansen         : Spin unrestricted coupled pair/coupled cluster methods
   Benjamin Helmich-Paris : CASSCF linear response (MC-RPA)
   Lee Huntington         : MR-EOM, pCC
   Robert Izsak           : Overlap fitted RIJCOSX, COSX-SCS-MP3, EOM
   Christian Kollmar      : KDIIS, OOCD, Brueckner-CCSD(T), CCSD density
   Simone Kossmann        : Meta GGA functionals, TD-DFT gradient, OOMP2, MP2 Hessian
   Martin Krupicka        : AUTO-CI
   Lucas Lang             : DCDCAS
   Dagmar Lenk            : GEPOL surface, SMD
   Dimitrios Liakos       : Extrapolation schemes; parallel MDCI
   Dimitrios Manganas     : ROCIS; embedding schemes
   Dimitrios Pantazis     : SARC Basis sets
   Taras Petrenko         : DFT Hessian,TD-DFT gradient, ASA, ECA, R-Raman, ABS, FL, XAS/XES, NRVS
   Peter Pinski           : DLPNO-MP2, DLPNO-MP2 Gradient
   Christoph Reimann      : Effective Core Potentials
   Marius Retegan         : Local ZFS, SOC
   Christoph Riplinger    : Optimizer, TS searches, QM/MM, DLPNO-CCSD(T), (RO)-DLPNO pert. Triples
   Tobias Risthaus        : Range-separated hybrids, TD-DFT gradient, RPA, STAB
   Michael Roemelt        : Restricted open shell CIS
   Masaaki Saitow         : Open-shell DLPNO
   Barbara Sandhoefer     : DKH picture change effects
   Avijit Sen             : IP-ROCIS
   Kantharuban Sivalingam : CASSCF convergence, NEVPT2, FIC-MRCI
   Bernardo de Souza      : ESD, SOC TD-DFT
   Georgi Stoychev        : AutoAux, RI-MP2 NMR
   Willem Van den Heuvel  : Paramagnetic NMR
   Boris Wezisla          : Elementary symmetry handling
   Frank Wennmohs         : Technical directorship


 We gratefully acknowledge several colleagues who have allowed us to
 interface, adapt or use parts of their codes:
   Stefan Grimme, W. Hujo, H. Kruse,             : VdW corrections, initial TS optimization,
                  C. Bannwarth                     DFT functionals, gCP, sTDA/sTD-DF
   Ed Valeev                                     : LibInt (2-el integral package), F12 methods
   Garnet Chan, S. Sharma, J. Yang, R. Olivares  : DMRG
   Ulf Ekstrom                                   : XCFun DFT Library
   Mihaly Kallay                                 : mrcc  (arbitrary order and MRCC methods)
   Andreas Klamt, Michael Diedenhofen            : otool_cosmo (COSMO solvation model)
   Jiri Pittner, Ondrej Demel                    : Mk-CCSD
   Frank Weinhold                                : gennbo (NPA and NBO analysis)
   Christopher J. Cramer and Donald G. Truhlar   : smd solvation model
   Lars Goerigk                                  : TD-DFT with DH, B97 family of functionals
   V. Asgeirsson, H. Jonsson                     : NEB implementation
   FAccTs GmbH                                   : IRC, NEB, NEB-TS, Multilevel


 Your calculation uses the libint2 library for the computation of 2-el integrals
 For citations please refer to: http://libint.valeyev.net

 This ORCA versions uses:
   CBLAS   interface :  Fast vector & matrix operations
   LAPACKE interface :  Fast linear algebra routines
   SCALAPACK package :  Parallel linear algebra routines




***************************************
The coordinates will be read from file: ethylamine_g.xyz
***************************************


----- Orbital basis set information -----
Your calculation utilizes the basis: cc-pVDZ 
       H, B-Ne : Obtained from the ccRepo (grant-hill.group.shef.ac.uk/ccrepo) Feb. 2017
                 T. H. Dunning, Jr., J. Chem. Phys. 90, 1007 (1989)
            He : Obtained from the ccRepo (grant-hill.group.shef.ac.uk/ccrepo) Feb. 2017
                 D. E. Woon, T. H. Dunning, Jr., J. Chem. Phys. 100, 2975 (1994)
  Li-Be, Na-Mg : Obtained from the ccRepo (grant-hill.group.shef.ac.uk/ccrepo) Feb. 2017
                 B. P. Prascher, D. E. Woon, K. A. Peterson, T. H. Dunning, Jr., A. K. Wilson, Theor. Chem. Acc. 128, 69 (2011)
         Al-Ar : Obtained from the ccRepo (grant-hill.group.shef.ac.uk/ccrepo) Feb. 2017
                 D. E. Woon, T. H. Dunning, Jr., J. Chem. Phys. 98, 1358 (1993)
            Ca : Obtained from the Peterson Research Group Website (tyr0.chem.wsu.edu/~kipeters) Feb. 2017
                 J. Koput, K. A. Peterson, J. Phys. Chem. 106, 9595 (2002)
         Sc-Zn : Obtained from the ccRepo (grant-hill.group.shef.ac.uk/ccrepo) Feb. 2017
                 N. B. Balabanov, K. A. Peterson, J. Chem. Phys. 123, 064107 (2005)
                 N. B. Balabanov, K. A. Peterson, J. Chem. Phys. 125, 074110 (2006)
         Ga-Kr : Obtained from the ccRepo (grant-hill.group.shef.ac.uk/ccrepo) Feb. 2017
                 A. K. Wilson, D. E. Woon, K. A. Peterson, T. H. Dunning, Jr., J. Chem. Phys. 110, 7667 (1999)

----- AuxC basis set information -----
Your calculation utilizes the auxiliary basis: cc-pVDZ/C 
  H-He, B, Ne, Al-Ar, Ga-Br : Obtained from the EMSL Basis Set Exchange (bse.pnl.gov) Feb. 2017
                              F. Weigend, A. Kohn, C. Hattig, J. Chem. Phys. 116, 3175 (2002)
               Li-Be, Na-Mg : Obtained from the EMSL Basis Set Exchange (bse.pnl.gov) Feb. 2017
                              C. Haettig, Phys. Chem. Chem. Phys. 7, 59 (2005)
                        C-F : Obtained from the EMSL Basis Set Exchange (bse.pnl.gov) Feb. 2017
                              C. Haettig, Phys. Chem. Chem. Phys. 7, 59 (2005)
                              F. Weigend, A. Kohn, C. Hattig, J. Chem. Phys. 116, 3175 (2002)
                         Kr : Obtained from the TURBOMOLE 7.0 basis set library
                              F. Weigend, A. Kohn, C. Hattig, J. Chem. Phys. 116, 3175 (2002)
                              S function revised in Sep. 2009

----- AuxJK basis set information -----
Your calculation utilizes the auxiliary basis: cc-pVTZ/JK 
  H, B-F, Al-Cl, Ga-Br : Obtained from the TURBOMOLE 7.0 basis set library

================================================================================
                                        WARNINGS
                       Please study these warnings very carefully!
================================================================================


WARNING: MDCI localization with Augmented Hessian Foster-Boys
  ===> : Switching off randomization!

WARNING: Post HF methods need fully converged wavefunctions
  ===> : Setting SCFConvForced true
         You can overwrite this default with %scf ConvForced false 


INFO   : the flag for use of LIBINT has been found!

================================================================================
                                       INPUT FILE
================================================================================
NAME = ethylamine_g.inp
|  1> ! RHF DLPNO-CCSD(T) cc-pVDZ RIJK cc-pVTZ/JK cc-pVDZ/C
|  2> ! KDIIS SOSCF TightSCF TightPNO
|  3> 
|  4> %pal nprocs 4 end
|  5> 
|  6> %maxcore 8000
|  7> 
|  8> %scf maxiter 300
|  9>      shift shift 0.2 erroff 0.1 end
| 10> end
| 11> 
| 12> * xyzfile 0 1 ethylamine_g.xyz 
| 13> 
| 14> 
| 15>                          ****END OF INPUT****
================================================================================

                       ****************************
                       * Single Point Calculation *
                       ****************************

---------------------------------
CARTESIAN COORDINATES (ANGSTROEM)
---------------------------------
  C      1.250030   -0.239660   -0.029520
  C     -0.047290    0.562060    0.056290
  N     -1.210580   -0.319690   -0.114160
  H     -0.074790    1.300390   -0.753750
  H     -0.063050    1.128310    1.003760
  H      2.121880    0.416750    0.065590
  H      1.306200   -0.983690    0.774850
  H     -1.264660   -0.997100    0.642720
  H      1.310300   -0.770420   -0.984660
  H     -2.078260    0.209140   -0.110030

----------------------------
CARTESIAN COORDINATES (A.U.)
----------------------------
  NO LB      ZA    FRAG     MASS         X           Y           Z
   0 C     6.0000    0    12.011    2.362214   -0.452892   -0.055785
   1 C     6.0000    0    12.011   -0.089365    1.062139    0.106373
   2 N     7.0000    0    14.007   -2.287665   -0.604127   -0.215731
   3 H     1.0000    0     1.008   -0.141333    2.457381   -1.424381
   4 H     1.0000    0     1.008   -0.119147    2.132197    1.896832
   5 H     1.0000    0     1.008    4.009772    0.787543    0.123947
   6 H     1.0000    0     1.008    2.468360   -1.858905    1.464254
   7 H     1.0000    0     1.008   -2.389861   -1.884246    1.214565
   8 H     1.0000    0     1.008    2.476108   -1.455883   -1.860738
   9 H     1.0000    0     1.008   -3.927342    0.395217   -0.207927

--------------------------------
INTERNAL COORDINATES (ANGSTROEM)
--------------------------------
 C      0   0   0     0.000000000000     0.00000000     0.00000000
 C      1   0   0     1.527467674584     0.00000000     0.00000000
 N      2   1   0     1.469618960513   110.54013067     0.00000000
 H      2   1   3     1.096381430206   109.46656241   241.93149555
 H      2   1   3     1.103896209342   109.24312674   125.36045437
 H      1   2   3     1.095464478064   110.88992519   178.23271768
 H      1   2   3     1.097153957610   110.99172799   297.74521578
 H      3   2   1     1.017190389701   110.81491198    63.74081553
 H      1   2   3     1.094363317231   110.50961265    57.47644479
 H      3   2   1     1.016143104193   111.29608426   183.11747772

---------------------------
INTERNAL COORDINATES (A.U.)
---------------------------
 C      0   0   0     0.000000000000     0.00000000     0.00000000
 C      1   0   0     2.886495583382     0.00000000     0.00000000
 N      2   1   0     2.777177356588   110.54013067     0.00000000
 H      2   1   3     2.071860641406   109.46656241   241.93149555
 H      2   1   3     2.086061515930   109.24312674   125.36045437
 H      1   2   3     2.070127852980   110.88992519   178.23271768
 H      1   2   3     2.073320506631   110.99172799   297.74521578
 H      3   2   1     1.922211262591   110.81491198    63.74081553
 H      1   2   3     2.068046960575   110.50961265    57.47644479
 H      3   2   1     1.920232179798   111.29608426   183.11747772

---------------------
BASIS SET INFORMATION
---------------------
There are 3 groups of distinct atoms

 Group   1 Type C   : 17s4p1d contracted to 3s2p1d pattern {881/31/1}
 Group   2 Type N   : 17s4p1d contracted to 3s2p1d pattern {881/31/1}
 Group   3 Type H   : 4s1p contracted to 2s1p pattern {31/1}

Atom   0C    basis set group =>   1
Atom   1C    basis set group =>   1
Atom   2N    basis set group =>   2
Atom   3H    basis set group =>   3
Atom   4H    basis set group =>   3
Atom   5H    basis set group =>   3
Atom   6H    basis set group =>   3
Atom   7H    basis set group =>   3
Atom   8H    basis set group =>   3
Atom   9H    basis set group =>   3
-------------------------------
AUXILIARY BASIS SET INFORMATION
-------------------------------
There are 3 groups of distinct atoms

 Group   1 Type C   : 7s5p4d2f contracted to 7s5p4d2f pattern {1111111/11111/1111/11}
 Group   2 Type N   : 7s5p4d2f contracted to 7s5p4d2f pattern {1111111/11111/1111/11}
 Group   3 Type H   : 3s2p1d contracted to 3s2p1d pattern {111/11/1}

Atom   0C    basis set group =>   1
Atom   1C    basis set group =>   1
Atom   2N    basis set group =>   2
Atom   3H    basis set group =>   3
Atom   4H    basis set group =>   3
Atom   5H    basis set group =>   3
Atom   6H    basis set group =>   3
Atom   7H    basis set group =>   3
Atom   8H    basis set group =>   3
Atom   9H    basis set group =>   3
-------------------------------
AUXILIARY BASIS SET INFORMATION
-------------------------------
There are 3 groups of distinct atoms

 Group   1 Type C   : 10s7p5d2f1g contracted to 10s7p5d2f1g pattern {1111111111/1111111/11111/11/1}
 Group   2 Type N   : 10s7p5d2f1g contracted to 10s7p5d2f1g pattern {1111111111/1111111/11111/11/1}
 Group   3 Type H   : 4s3p2d1f contracted to 4s3p2d1f pattern {1111/111/11/1}

Atom   0C    basis set group =>   1
Atom   1C    basis set group =>   1
Atom   2N    basis set group =>   2
Atom   3H    basis set group =>   3
Atom   4H    basis set group =>   3
Atom   5H    basis set group =>   3
Atom   6H    basis set group =>   3
Atom   7H    basis set group =>   3
Atom   8H    basis set group =>   3
Atom   9H    basis set group =>   3

Checking for AutoStart:
The File: ethylamine_g.gbw exists
Trying to determine its content:
     ... Fine, the file contains calculation information
     ... Fine, the calculation information was read
     ... Fine, the file contains a basis set
     ... Fine, the basis set was read
     ... Fine, the file contains a geometry
     ... Fine, the geometry was read
     ... Fine, the file contains a set of orbitals
     ... Fine, the orbitals can be read
     => possible old guess file was deleted
     => GBW file was renamed to GES file
     => GES file is set as startup file
     => Guess is set to MORead
     ... now leaving AutoStart



           ************************************************************
           *        Program running with 4 parallel MPI-processes     *
           *              working on a common directory               *
           ************************************************************
------------------------------------------------------------------------------
                           ORCA GTO INTEGRAL CALCULATION
                           -- RI-GTO INTEGRALS CHOSEN --
------------------------------------------------------------------------------

                         BASIS SET STATISTICS AND STARTUP INFO

Gaussian basis set:
 # of primitive gaussian shells          ...  101
 # of primitive gaussian functions       ...  151
 # of contracted shells                  ...   39
 # of contracted basis functions         ...   77
 Highest angular momentum                ...    2
 Maximum contraction depth               ...    8
Auxiliary gaussian basis set:
 # of primitive gaussian shells          ...  145
 # of primitive gaussian functions       ...  447
 # of contracted shells                  ...  145
 # of contracted aux-basis functions     ...  447
 Highest angular momentum                ...    4
 Maximum contraction depth               ...    1
Ratio of auxiliary to basis functions    ...  5.81
Integral package used                  ... LIBINT
 One Electron integrals                  ... done
 Ordering auxiliary basis shells         ... done
 Integral threshhold             Thresh  ...  2.500e-11
 Primitive cut-off               TCut    ...  2.500e-12
 Pre-screening matrix                    ... done
 Shell pair data                         ... 
 Ordering of the shell pairs             ... done (   0.000 sec) 780 of 780 pairs
 Determination of significant pairs      ... done (   0.000 sec)
 Creation of shell pair data             ... done (   0.000 sec)
 Storage of shell pair data              ... done (   0.003 sec)
 Shell pair data done in (   0.004 sec)
 Computing two index integrals           ... done
 Cholesky decomposition of the V-matrix  ... done


Timings:
 Total evaluation time                   ...   0.232 sec (  0.004 min)
 One electron matrix time                ...   0.011 sec (  0.000 min) =  4.7%
 Schwartz matrix evaluation time         ...   0.135 sec (  0.002 min) = 57.9%
 Two index repulsion integral time       ...   0.030 sec (  0.000 min) = 12.8%
 Cholesky decomposition of V             ...   0.027 sec (  0.000 min) = 11.8%
 Three index repulsion integral time     ...   0.000 sec (  0.000 min) =  0.0%



           ************************************************************
           *        Program running with 4 parallel MPI-processes     *
           *              working on a common directory               *
           ************************************************************
-------------------------------------------------------------------------------
                                 ORCA SCF
-------------------------------------------------------------------------------

------------
SCF SETTINGS
------------
Hamiltonian:
 Ab initio Hamiltonian  Method          .... Hartree-Fock(GTOs)
 RI-approximation to the Coulomb term is turned on
   Number of auxiliary basis functions  .... 447
   RI-JK (J+K treated both via RI)      .... on


General Settings:
 Integral files         IntName         .... ethylamine_g
 Hartree-Fock type      HFTyp           .... RHF
 Total Charge           Charge          ....    0
 Multiplicity           Mult            ....    1
 Number of Electrons    NEL             ....   26
 Basis Dimension        Dim             ....   77
 Nuclear Repulsion      ENuc            ....     82.6574723967 Eh

Convergence Acceleration:
 DIIS                   CNVDIIS         .... off
 Newton-Raphson         CNVNR           .... off
 SOSCF                  CNVSOSCF        .... on
   Start iteration      SOSCFMaxIt      ....   150
   Startup grad/error   SOSCFStart      ....  0.003300
 Level Shifting         CNVShift        .... on
   Level shift para.    LevelShift      ....    0.2000
   Turn off err/grad.   ShiftErr        ....    0.1000
 Zerner damping         CNVZerner       .... off
 Static damping         CNVDamp         .... off
 Fernandez-Rico         CNVRico         .... off

SCF Procedure:
 Maximum # iterations   MaxIter         ....   300
 SCF integral mode      SCFMode         .... Direct
   Integral package                     .... LIBINT
 Reset frequency        DirectResetFreq ....    20
 Integral Threshold     Thresh          ....  2.500e-11 Eh
 Primitive CutOff       TCut            ....  2.500e-12 Eh

Convergence Tolerance:
 Convergence Check Mode ConvCheckMode   .... Total+1el-Energy
 Convergence forced     ConvForced      .... 1
 Energy Change          TolE            ....  1.000e-08 Eh
 1-El. energy change                    ....  1.000e-05 Eh
 Orbital Gradient       TolG            ....  1.000e-05
 Orbital Rotation angle TolX            ....  1.000e-05


Diagonalization of the overlap matrix:
Smallest eigenvalue                        ... 5.743e-03
Time for diagonalization                   ...    0.004 sec
Threshold for overlap eigenvalues          ... 1.000e-08
Number of eigenvalues below threshold      ... 0
Time for construction of square roots      ...    0.004 sec
Total time needed                          ...    0.008 sec

---------------------
INITIAL GUESS: MOREAD
---------------------
Guess MOs are being read from file: ethylamine_g.ges
Input Geometry matches current geometry (good)
Atom 0: N(Shells)= 6 and 10 - projection required
Input basis set needs projection
NBasis(read)= 188
NBasis(calc)= 77
Basis set overlap was calculated
Using GuessMode=FMatrix for the initial guess
C*T matrix was formed
Effective Fockian was calculated
Effective Fockian was diagonalized
Initial density was built
                      ------------------
                      INITIAL GUESS DONE (   0.0 sec)
                      ------------------
--------------
SCF ITERATIONS
--------------
ITER       Energy         Delta-E        Max-DP      RMS-DP      [F,P]   Gradient Norm
                             ****Turning on KDIIS(Cayley)****
  0   -134.2614719717   0.000000000000 0.00082307  0.00006082  0.0048158   0.005719556
  1   -134.2615346562  -0.000062684425 0.00164633  0.00012320  0.0043561   0.005195619
  2   -134.2616415166  -0.000106860423 0.00277750  0.00020663  0.0035293   0.004194830
                      *** Initiating the SOSCF procedure ***
                           *** Shutting down KDIIS ***
                      *** Re-Reading the Fockian *** 
                      *** Removing any level shift *** 
ITER      Energy       Delta-E        Grad      Rot      Max-DP    RMS-DP
  3   -134.26177270  -0.0001311813  0.002113  0.002113  0.004183  0.000314
  4   -134.26184781  -0.0000751134  0.000011  0.000010  0.000025  0.000002
  5   -134.26184782  -0.0000000057  0.000009  0.000008  0.000023  0.000001
                  ***Gradient check signals convergence***
              ***Rediagonalizing the Fockian in SOSCF/NRSCF***

               *****************************************************
               *                     SUCCESS                       *
               *           SCF CONVERGED AFTER   6 CYCLES          *
               *****************************************************


----------------
TOTAL SCF ENERGY
----------------

Total Energy       :         -134.26184782 Eh           -3653.45062 eV

Components:
Nuclear Repulsion  :           82.65747240 Eh            2249.22417 eV
Electronic Energy  :         -216.91932021 Eh           -5902.67479 eV
One Electron Energy:         -344.43701104 Eh           -9372.60756 eV
Two Electron Energy:          127.51769083 Eh            3469.93278 eV

Virial components:
Potential Energy   :         -268.29209742 Eh           -7300.59913 eV
Kinetic Energy     :          134.03024960 Eh            3647.14851 eV
Virial Ratio       :            2.00172795


---------------
SCF CONVERGENCE
---------------

  Last Energy change         ...   -1.0185e-09  Tolerance :   1.0000e-08
  Last MAX-Density change    ...    3.6236e-06  Tolerance :   1.0000e-07
  Last RMS-Density change    ...    1.9598e-07  Tolerance :   5.0000e-09
  Last Orbital Gradient      ...    1.2988e-06  Tolerance :   1.0000e-05
  Last Orbital Rotation      ...    9.9710e-07  Tolerance :   1.0000e-05

             **** THE GBW FILE WAS UPDATED (ethylamine_g.gbw) ****
             **** DENSITY FILE WAS UPDATED (ethylamine_g.scfp.tmp) ****
             **** ENERGY FILE WAS UPDATED (ethylamine_g.en.tmp) ****
----------------
ORBITAL ENERGIES
----------------

  NO   OCC          E(Eh)            E(eV) 
   0   2.0000     -15.534648      -422.7193 
   1   2.0000     -11.250025      -306.1287 
   2   2.0000     -11.216923      -305.2280 
   3   2.0000      -1.165996       -31.7284 
   4   2.0000      -0.982939       -26.7471 
   5   2.0000      -0.818490       -22.2723 
   6   2.0000      -0.652216       -17.7477 
   7   2.0000      -0.623873       -16.9765 
   8   2.0000      -0.575145       -15.6505 
   9   2.0000      -0.511572       -13.9206 
  10   2.0000      -0.503619       -13.7042 
  11   2.0000      -0.484391       -13.1809 
  12   2.0000      -0.380965       -10.3666 
  13   0.0000       0.183250         4.9865 
  14   0.0000       0.222739         6.0610 
  15   0.0000       0.228338         6.2134 
  16   0.0000       0.251686         6.8487 
  17   0.0000       0.268628         7.3097 
  18   0.0000       0.292846         7.9687 
  19   0.0000       0.295136         8.0311 
  20   0.0000       0.393848        10.7172 
  21   0.0000       0.415437        11.3046 
  22   0.0000       0.606887        16.5142 
  23   0.0000       0.618753        16.8371 
  24   0.0000       0.631745        17.1907 
  25   0.0000       0.708025        19.2663 
  26   0.0000       0.739861        20.1326 
  27   0.0000       0.825286        22.4572 
  28   0.0000       0.851887        23.1810 
  29   0.0000       0.877587        23.8804 
  30   0.0000       0.892474        24.2855 
  31   0.0000       0.902500        24.5583 
  32   0.0000       0.906459        24.6660 
  33   0.0000       0.914178        24.8760 
  34   0.0000       0.949072        25.8256 
  35   0.0000       1.063304        28.9340 
  36   0.0000       1.084897        29.5215 
  37   0.0000       1.108480        30.1633 
  38   0.0000       1.163757        31.6675 
  39   0.0000       1.216736        33.1091 
  40   0.0000       1.261246        34.3203 
  41   0.0000       1.446133        39.3513 
  42   0.0000       1.473295        40.0904 
  43   0.0000       1.495523        40.6953 
  44   0.0000       1.602320        43.6013 
  45   0.0000       1.691027        46.0152 
  46   0.0000       1.695940        46.1489 
  47   0.0000       1.732019        47.1306 
  48   0.0000       1.866304        50.7847 
  49   0.0000       1.880820        51.1797 
  50   0.0000       1.893909        51.5359 
  51   0.0000       1.938549        52.7506 
  52   0.0000       1.943128        52.8752 
  53   0.0000       1.961072        53.3635 
  54   0.0000       1.972315        53.6694 
  55   0.0000       1.995109        54.2897 
  56   0.0000       2.038762        55.4775 
  57   0.0000       2.066093        56.2212 
  58   0.0000       2.183213        59.4083 
  59   0.0000       2.197387        59.7940 
  60   0.0000       2.257870        61.4398 
  61   0.0000       2.289829        62.3094 
  62   0.0000       2.345159        63.8150 
  63   0.0000       2.428284        66.0770 
  64   0.0000       2.492419        67.8222 
  65   0.0000       2.531270        68.8793 
  66   0.0000       2.583195        70.2923 
  67   0.0000       2.690858        73.2220 
  68   0.0000       2.754720        74.9597 
  69   0.0000       2.767985        75.3207 
  70   0.0000       2.812621        76.5353 
  71   0.0000       2.859954        77.8233 
  72   0.0000       2.905811        79.0711 
  73   0.0000       2.981432        81.1289 
  74   0.0000       3.071928        83.5914 
  75   0.0000       3.193523        86.9002 
  76   0.0000       3.444487        93.7293 

                    ********************************
                    * MULLIKEN POPULATION ANALYSIS *
                    ********************************

-----------------------
MULLIKEN ATOMIC CHARGES
-----------------------
   0 C :   -0.051625
   1 C :    0.039851
   2 N :   -0.301334
   3 H :    0.030398
   4 H :    0.009179
   5 H :    0.026329
   6 H :    0.023006
   7 H :    0.090783
   8 H :    0.041013
   9 H :    0.092399
Sum of atomic charges:    0.0000000

--------------------------------
MULLIKEN REDUCED ORBITAL CHARGES
--------------------------------
  0 C s       :     3.052408  s :     3.052408
      pz      :     1.006679  p :     2.938905
      px      :     0.948377
      py      :     0.983849
      dz2     :     0.011657  d :     0.060312
      dxz     :     0.004565
      dyz     :     0.018020
      dx2y2   :     0.008109
      dxy     :     0.017961
  1 C s       :     3.058611  s :     3.058611
      pz      :     0.979365  p :     2.788952
      px      :     0.869364
      py      :     0.940223
      dz2     :     0.017296  d :     0.112586
      dxz     :     0.012802
      dyz     :     0.028627
      dx2y2   :     0.022157
      dxy     :     0.031705
  2 N s       :     3.422954  s :     3.422954
      pz      :     1.566029  p :     3.848440
      px      :     1.061128
      py      :     1.221283
      dz2     :     0.005648  d :     0.029940
      dxz     :     0.002552
      dyz     :     0.006685
      dx2y2   :     0.003879
      dxy     :     0.011175
  3 H s       :     0.941605  s :     0.941605
      pz      :     0.013847  p :     0.027997
      px      :     0.002876
      py      :     0.011275
  4 H s       :     0.963098  s :     0.963098
      pz      :     0.016543  p :     0.027723
      px      :     0.002958
      py      :     0.008222
  5 H s       :     0.943191  s :     0.943191
      pz      :     0.005417  p :     0.030479
      px      :     0.014777
      py      :     0.010286
  6 H s       :     0.946590  s :     0.946590
      pz      :     0.013376  p :     0.030404
      px      :     0.004726
      py      :     0.012301
  7 H s       :     0.853031  s :     0.853031
      pz      :     0.023959  p :     0.056186
      px      :     0.008245
      py      :     0.023982
  8 H s       :     0.928676  s :     0.928676
      pz      :     0.017261  p :     0.030310
      px      :     0.004347
      py      :     0.008703
  9 H s       :     0.851294  s :     0.851294
      pz      :     0.014047  p :     0.056307
      px      :     0.026798
      py      :     0.015462


                     *******************************
                     * LOEWDIN POPULATION ANALYSIS *
                     *******************************

----------------------
LOEWDIN ATOMIC CHARGES
----------------------
   0 C :   -0.056411
   1 C :   -0.021603
   2 N :   -0.070879
   3 H :    0.017040
   4 H :   -0.000603
   5 H :    0.021820
   6 H :    0.017689
   7 H :    0.033233
   8 H :    0.024169
   9 H :    0.035545

-------------------------------
LOEWDIN REDUCED ORBITAL CHARGES
-------------------------------
  0 C s       :     2.801592  s :     2.801592
      pz      :     1.049253  p :     3.095360
      px      :     1.012211
      py      :     1.033896
      dz2     :     0.031507  d :     0.159459
      dxz     :     0.010205
      dyz     :     0.048428
      dx2y2   :     0.022537
      dxy     :     0.046782
  1 C s       :     2.798972  s :     2.798972
      pz      :     1.041642  p :     2.960455
      px      :     0.933639
      py      :     0.985175
      dz2     :     0.039483  d :     0.262176
      dxz     :     0.029656
      dyz     :     0.075797
      dx2y2   :     0.048036
      dxy     :     0.069204
  2 N s       :     3.084250  s :     3.084250
      pz      :     1.545788  p :     3.917638
      px      :     1.115988
      py      :     1.255862
      dz2     :     0.011028  d :     0.068991
      dxz     :     0.004139
      dyz     :     0.016213
      dx2y2   :     0.012091
      dxy     :     0.025519
  3 H s       :     0.907415  s :     0.907415
      pz      :     0.033466  p :     0.075545
      px      :     0.013763
      py      :     0.028316
  4 H s       :     0.924975  s :     0.924975
      pz      :     0.038624  p :     0.075628
      px      :     0.013689
      py      :     0.023315
  5 H s       :     0.900315  s :     0.900315
      pz      :     0.015827  p :     0.077865
      px      :     0.035607
      py      :     0.026431
  6 H s       :     0.904634  s :     0.904634
      pz      :     0.031962  p :     0.077677
      px      :     0.015719
      py      :     0.029996
  7 H s       :     0.824008  s :     0.824008
      pz      :     0.067701  p :     0.142759
      px      :     0.022172
      py      :     0.052886
  8 H s       :     0.896909  s :     0.896909
      pz      :     0.040285  p :     0.078923
      px      :     0.015296
      py      :     0.023341
  9 H s       :     0.821361  s :     0.821361
      pz      :     0.042545  p :     0.143094
      px      :     0.059830
      py      :     0.040719


                      *****************************
                      * MAYER POPULATION ANALYSIS *
                      *****************************

  NA   - Mulliken gross atomic population
  ZA   - Total nuclear charge
  QA   - Mulliken gross atomic charge
  VA   - Mayer's total valence
  BVA  - Mayer's bonded valence
  FA   - Mayer's free valence

  ATOM       NA         ZA         QA         VA         BVA        FA
  0 C      6.0516     6.0000    -0.0516     3.9900     3.9900     0.0000
  1 C      5.9601     6.0000     0.0399     4.0533     4.0533    -0.0000
  2 N      7.3013     7.0000    -0.3013     3.0018     3.0018    -0.0000
  3 H      0.9696     1.0000     0.0304     0.9635     0.9635     0.0000
  4 H      0.9908     1.0000     0.0092     0.9549     0.9549    -0.0000
  5 H      0.9737     1.0000     0.0263     0.9760     0.9760     0.0000
  6 H      0.9770     1.0000     0.0230     0.9760     0.9760     0.0000
  7 H      0.9092     1.0000     0.0908     1.0002     1.0002    -0.0000
  8 H      0.9590     1.0000     0.0410     0.9809     0.9809    -0.0000
  9 H      0.9076     1.0000     0.0924     1.0004     1.0004    -0.0000

  Mayer bond orders larger than 0.1
B(  0-C ,  1-C ) :   1.0625 B(  0-C ,  5-H ) :   0.9822 B(  0-C ,  6-H ) :   0.9818 
B(  0-C ,  8-H ) :   0.9795 B(  1-C ,  2-N ) :   1.0334 B(  1-C ,  3-H ) :   0.9717 
B(  1-C ,  4-H ) :   0.9705 B(  2-N ,  7-H ) :   0.9874 B(  2-N ,  9-H ) :   0.9875 


-------
TIMINGS
-------

Total SCF time: 0 days 0 hours 0 min 1 sec 

Total time                  ....       1.522 sec
Sum of individual times     ....       1.367 sec  ( 89.8%)

Fock matrix formation       ....       1.338 sec  ( 87.9%)
Diagonalization             ....       0.009 sec  (  0.6%)
Density matrix formation    ....       0.001 sec  (  0.0%)
Population analysis         ....       0.004 sec  (  0.3%)
Initial guess               ....       0.014 sec  (  0.9%)
Orbital Transformation      ....       0.000 sec  (  0.0%)
Orbital Orthonormalization  ....       0.000 sec  (  0.0%)
DIIS solution               ....       0.000 sec  (  0.0%)
SOSCF solution              ....       0.002 sec  (  0.1%)


           ************************************************************
           *        Program running with 4 parallel MPI-processes     *
           *              working on a common directory               *
           ************************************************************


------------------------------------------------------------------------------- 
                              ORCA-MATRIX DRIVEN CI                            
------------------------------------------------------------------------------- 


Wavefunction type
-----------------
Correlation treatment                      ...      CCSD     
Single excitations                         ... ON
Orbital optimization                       ... OFF
Calculation of Z vector                    ... OFF
Calculation of Brueckner orbitals          ... OFF
Perturbative triple excitations            ... ON
Calculation of F12 correction              ... OFF
Frozen core treatment                      ... chemical core (6 el)
Reference Wavefunction                     ... RHF
  Internal Orbitals:     3 ...   12 ( 10 MO's/ 20 electrons)
  Virtual  Orbitals:    13 ...   76 ( 64 MO's              )
Number of AO's                             ...     77
Number of electrons                        ...     26
Number of correlated electrons             ...     20

Algorithmic settings
--------------------
Integral transformation                    ... All integrals via the RI transformation
K(C) Formation                             ... RI-DLPNO
   PNO-Integral Storage                    ... ON DISK
   PNO occupation number cut-off           ... 1.000e-07
   Singles PNO occupation number cut-off   ... 3.000e-09
   PNO Mulliken prescreening cut-off       ... 1.000e-03
   Domain cut-off (Mulliken population)    ... 1.000e-03
   PNO Normalization                       ...    1
Maximum number of iterations               ...        50
Convergence tolerance (max. residuum)      ... 1.000e-05
Level shift for amplitude update           ... 2.000e-01
Maximum number of DIIS vectors             ...         7
DIIS turned on at iteration                ...         0
Damping before turning on DIIS             ...     0.500
Damping after turning on DIIS              ...     0.000
Pair specific amplitude update             ... OFF
Natural orbital iterations                 ... OFF
Perturbative natural orbital generation    ... OFF
Printlevel                                 ... 2

Singles Fock matrix elements calculated using PNOs.

Memory handling:
----------------
Maximum memory for working arrays          ...   8000 MB
Data storage in matrix containers          ... UNCOMPRESSED
Data type for integral storage             ... DOUBLE
In-Core Storage of quantities:
   Amplitudes+Sigma Vector      ... NO
   J+K operators                ... NO
   DIIS vectors                 ... NO
   3-external integrals         ... NO
   4-external integrals         ... NO

Localization treatment:
-----------------------
Localization option                        ...    6
Localization threshhold                    ... -1.0e+00
Using relative localization threshhold     ... 1.0e-08
Neglect threshold for strong pairs         ... 1.000e-05 Eh
Prescreening threshold for very weak pairs ... 1.000e-07 Eh

Initializing the integral package          ... done
Localizing the valence orbitals
------------------------------------------------------------------------------
                           ORCA ORBITAL LOCALIZATION
------------------------------------------------------------------------------

Input orbitals are from                  ... ethylamine_g.proc0.gbw
Output orbitals are to                   ... ethylamine_g.proc0.loc
Max. number of iterations                ... 128
Localizations seeded randomly            ... off
Convergence tolerance                    ... 1.000e-06
Using relative localization threshhold   ... 1.000e-08
Treshold for strong local MOs            ... 9.500e-01
Treshold for bond MOs                    ... 8.500e-01
Operator                                 ... 0
Orbital range for localization           ... 3 to 12
Localization criterion                   ... FOSTER-BOYS (AUGMENTED HESSIAN)
Doing the dipole integrals     ... o.k.
Initial value of the localization sum :    62.838574
ITERATION   0 : L=   66.8033772991 DL=  3.96e+00 (AVERGE_DL)=    0.2968278027 
ITERATION   1 : L=   68.2491401064 DL=  1.45e+00 (AVERGE_DL)=    0.1792430260 
ITERATION   2 : L=   68.2682597090 DL=  1.91e-02 (AVERGE_DL)=    0.0206126189 
ITERATION   3 : L=   68.2683157843 DL=  5.61e-05 (AVERGE_DL)=    0.0011162970 
ITERATION   4 : L=   68.2683161372 DL=  3.53e-07 (AVERGE_DL)=    0.0000885611 
LOCALIZATION SUM CONVERGED

------------------------------------------------------
AUGMENTED HESSIAN OPTIMIZATION OF FOSTER-BOYS ORBITALS
------------------------------------------------------

Spin operator:           0
Orbital window:          3 to 12
Number of iterations:    128
Gradient tolerance:      1.000e-06
Number of pairs:         45
Davidson threshold:      2000
Diagonalization method:  LAPACK
Iter:    0   L: 68.2683161372   Grad. norm: 3.467125e-04
   *** Likely close to a maximum now. ***
       Augmented Hessian eigenvalues:  5.13e-09 -6.49e+00 -6.51e+00 -9.56e+00 ... 
Iter:    1   L: 68.2683161398   Grad. norm: 1.171312e-09
LOCALIZATION HAS CONVERGED.

Eigenvalues of the Hessian:
  0 -6.494e+00
  1 -6.510e+00
  2 -9.564e+00
  3 -1.188e+01
  4 -1.556e+01
  5 -1.593e+01
  6 -1.742e+01
  7 -1.801e+01
  8 -1.815e+01
  9 -1.856e+01
    ...


------------------------------------------------------------------------------- 
                    LOCALIZED MOLECULAR ORBITAL COMPOSITIONS                   
------------------------------------------------------------------------------- 

The Mulliken populations for each LMO on each atom are computed
The LMO`s will be ordered according to atom index and type
  (A) Strongly localized MO`s have populations of >=0.950 on one atom
  (B) Two center bond orbitals have populations of >=0.850 on two atoms
  (C) Other MO`s are considered to be `delocalized`

FOUND  -   1 strongly local MO`s
       -   9 two center bond MO`s
       -   0 significantly delocalized MO`s

Rather strongly localized orbitals:
MO   3:   2N  -   0.992099
Bond-like localized orbitals:
MO  12:   9H  -   0.464457  and   2N  -   0.541438
MO  11:   8H  -   0.494387  and   0C  -   0.518669
MO  10:   7H  -   0.465791  and   2N  -   0.542948
MO   9:   6H  -   0.506140  and   0C  -   0.506591
MO   8:   5H  -   0.504639  and   0C  -   0.507276
MO   7:   4H  -   0.520554  and   1C  -   0.501854
MO   6:   3H  -   0.505589  and   1C  -   0.508818
MO   5:   2N  -   0.597565  and   1C  -   0.429855
MO   4:   1C  -   0.534478  and   0C  -   0.507424
Localized MO's were stored in: ethylamine_g.proc0.loc

Localizing the core orbitals
------------------------------------------------------------------------------
                           ORCA ORBITAL LOCALIZATION
------------------------------------------------------------------------------

Input orbitals are from                  ... ethylamine_g.proc0.loc
Output orbitals are to                   ... ethylamine_g.proc0.loc
Max. number of iterations                ... 128
Localizations seeded randomly            ... off
Convergence tolerance                    ... 1.000e-06
Using relative localization threshhold   ... 1.000e-08
Treshold for strong local MOs            ... 9.500e-01
Treshold for bond MOs                    ... 8.500e-01
Operator                                 ... 0
Orbital range for localization           ... 0 to 2
Localization criterion                   ... FOSTER-BOYS (AUGMENTED HESSIAN)
Doing the dipole integrals     ... o.k.
Initial value of the localization sum :    12.580689
ITERATION   0 : L=   12.5806900031 DL=  7.58e-07 (AVERGE_DL)=    0.0005026595 
LOCALIZATION SUM CONVERGED

------------------------------------------------------
AUGMENTED HESSIAN OPTIMIZATION OF FOSTER-BOYS ORBITALS
------------------------------------------------------

Spin operator:           0
Orbital window:          0 to 2
Number of iterations:    128
Gradient tolerance:      1.000e-06
Number of pairs:         3
Davidson threshold:      2000
Diagonalization method:  LAPACK
Iter:    0   L: 12.5806900031   Grad. norm: 6.454231e-08
   *** Likely close to a maximum now. ***
       Augmented Hessian eigenvalues:  1.25e-16 -3.08e+01 -3.33e+01 -8.67e+01
Iter:    1   L: 12.5806900031   Grad. norm: 1.322118e-21
LOCALIZATION HAS CONVERGED.

Eigenvalues of the Hessian:
  0 -3.085e+01
  1 -3.333e+01
  2 -8.668e+01


------------------------------------------------------------------------------- 
                    LOCALIZED MOLECULAR ORBITAL COMPOSITIONS                   
------------------------------------------------------------------------------- 

The Mulliken populations for each LMO on each atom are computed
The LMO`s will be ordered according to atom index and type
  (A) Strongly localized MO`s have populations of >=0.950 on one atom
  (B) Two center bond orbitals have populations of >=0.850 on two atoms
  (C) Other MO`s are considered to be `delocalized`

FOUND  -   3 strongly local MO`s
       -   0 two center bond MO`s
       -   0 significantly delocalized MO`s

Rather strongly localized orbitals:
MO   2:   2N  -   0.999891
MO   1:   1C  -   0.999427
MO   0:   0C  -   0.999547
Localized MO's were stored in: ethylamine_g.proc0.loc

Warning: internal orbitals are localized - no re-canonicalization of internal orbitals

--------------------------
CLOSED-SHELL FOCK OPERATOR
--------------------------

RI-JK section for the Fock operator:
  RHF full Fock operator         ... done
  RHF frozen core Fock operator  ... done
Time needed for Fock operator              ...            0.492 sec
Reference energy                           ...   -134.261847818

--------------
DLPNO SETTINGS (2015 fully linear scaling implementation)
--------------

TCutMKN:           1.000e-03
TCutPAO:           1.000e-03
TCutPNO:           1.000e-07
TCutPNOSingles:    3.000e-09
TCutEN:            9.700e-01
TCutPAOExt:        1.000e-01
TCutPairs:         1.000e-05
TCutPre:           1.000e-07
TCutOSV:           1.000e-06
TCutDOij:          1.000e-05
TCutDO:            5.000e-03
TCutC:             1.000e-04
TCutCPAO:          1.000e-03
TCutCMO:           1.000e-03
TScaleDOMP2PreScr: 2.000e+00
TScaleMKNMP2PreScr:1.000e+01
TScalePNOMP2PreScr:1.000e+00
PAO overlap thresh 1.000e-08
Using PNOs for Singles Fock computation
Use new domains
Use fully linear algorithm
TCutTNO:           1.000e-09
TCutMP2Pairs:      1.000e-06
TCutDOStrong:      2.000e-03
TCutMKNStrong:     1.000e-02
TCutMKNWeak:       1.000e-01
TCutDOWeak:        4.000e-03
NTCutTNO:          1

--------------------------
Calculating differential overlap integrals ... ok
--------------------------
ELECTRON PAIR PRESCREENING
--------------------------

Dipole-based pair screening          .... used

   TCutDOij = 1.000000e-05
   TCutPre  = 1.000000e-07
   .... Finished loop over pairs
Total time spent in the prescreening                  ...     0.000 sec
sum of pair energies estimated for screened out pairs ...       0.000000000000 Eh
Thresholds for map construction and integral transformation for crude MP2:
   TCutMKN                    ...     1.0e-02
   TCutDO                     ...     1.0e-02
   TCutPairs                  ...     1.0e-05
   TCutPNO_CrudeMP2           ...     1.0e-07
   TCutPNOSingles_CrudeMP2    ...     3.0e-09
--------------------------------
LOCAL RI TRANSFORMATION (IAVPAO)
--------------------------------

Orbital window:       3 to 12
Number of PAOs:      77
Basis functions:     77 (39 shells)
Aux. functions:     266 (96 shells)

Processing maps (0.0 sec)
Average map sizes:
   Aux shells -> MOs              10.0
   Aux shells -> PAOs             77.0
   MOs        -> AO shells        39.0
   PAOs       -> AO shells        39.0

Calculating integrals (0.2 sec, 1.566 MB)
Sorting integrals (0.0 sec, 1.563 MB)
Total time for the integral transformation: 0.2 sec
--------------------------------
INITIAL GUESS AND PNO GENERATION
--------------------------------

PNO truncation parameters                   .... 
    PAOOverlapThresh   =        1.000e-08

    TCutPairs          =        1.000e-05
    TCutPNO            =        1.000e-07
    TCutPNOSingles     =        3.000e-09
    TCutMP2Pairs       =        1.000e-06
    TCutMKN            =        1.000e-02
    TCutDO             =        1.000e-02

Pair selection                          .... not used
Type of local MP2 treatment                 .... semi-local MP2
Strategy for PNO selection                  .... occupation number selection
Pair density normalization                  .... MP2 norm
Spin component scaling                      .... not used

   .... Finished loop over pairs
Making pair pair interaction lists          ... done

                       ===========================
                         55 OF   55 PAIRS ARE KEPT CCSD PAIRS
                          0 OF   55 PAIRS ARE KEPT MP2 PAIRS FOR (T)
                          0 OF   55 PAIRS ARE SKIPPED
                       ===========================

Total time spent in the initial guess                 ...     0.045 sec
SL-MP2 correlation energy (all non-screened pairs)    ...      -0.455174736346 Eh

Initial PNO correlation energy                        ...      -0.455073505762 Eh
sum of pair energies prescreened and skipped MP2 pairs...       0.000000000000 Eh
sum of pair energies of crude MP2 skipped pairs only  ...       0.000000000000 Eh
sum of MP2 pair energies for pairs that were not kept ...       0.000000000000 Eh
sum of PNO error estimates for the kept pairs         ...      -0.000101230584 Eh
                                                          --------------------
sum of all corrections                                         -0.000101230584
Initial total correlation energy                               -0.455174736346
Thresholds for map construction and integral transformation for fine MP2 and CCSD(T) calculation:
   TCutMKN   ...     1.0e-03
   TCutDO    ...     5.0e-03
   TCutPairs ...     1.0e-05
   TCutCMO   ...     1.0e-03
   TCutCPAO  ...     1.0e-03

Thresholds for map construction and integral transformation for strong Triples:
   TCutMKN   ...     1.0e-02
   TCutDO    ...     1.0e-02
   TCutCMO   ...     1.0e-03
   TCutCPAO  ...     1.0e-03

Thresholds for map construction and integral transformation for weak Triples:
   TCutMKN   ...     1.0e-01
   TCutDO    ...     2.0e-02
   TCutCMO   ...     1.0e-03
   TCutCPAO  ...     1.0e-03

--------------------------------
LOCAL RI TRANSFORMATION (IAVPAO)
--------------------------------

Orbital window:       3 to 12
Number of PAOs:      77
Basis functions:     77 (39 shells)
Aux. functions:     266 (96 shells)

Processing maps (0.0 sec)
Average map sizes:
   Aux shells -> MOs              10.0
   Aux shells -> PAOs             77.0
   MOs        -> AO shells        39.0
   PAOs       -> AO shells        39.0

Calculating integrals (0.2 sec, 1.566 MB)
Sorting integrals (0.0 sec, 1.563 MB)
Total time for the integral transformation: 0.2 sec
--------------------------------
INITIAL GUESS AND PNO GENERATION
--------------------------------

PNO truncation parameters                   .... 
    ScaleTCutPNO       =        1.000e-02
    PAOOverlapThresh   =        1.000e-08

    TCutPairs          =        1.000e-05
    TCutPNO            =        1.000e-07
    TCutPNOSingles     =        3.000e-09
    TCutMP2Pairs       =        1.000e-06
    TCutMKN            =        1.000e-03
    TCutDO             =        5.000e-03

Pair selection                          .... not used
Type of local MP2 treatment                 .... full local PMP2
Strategy for PNO selection                  .... occupation number selection
Pair density normalization                  .... MP2 norm
Spin component scaling                      .... not used

PASS-1: Formation of initial guess LMP2 amplitudes
Initial amplitudes guess done. Entering LMP2 iteration loop:
   Max. no of iterations          ...  50
   Energy convergence tolerance   ...    1.0e-07
   Residual convergence tolerance ...    5.0e-07
   Fock matrix cutoff             ...    1.0e-05 Eh
   DIIS convergence acceleration parameters:
        Max # vectors in DIIS     ... 7
        Start iteration of DIIS   ... 0
        Levelshift                ... 2.000e-01
        Damping factor 1          ... 5.000e-01
        Damping factor 2          ... 1.000e+00
   L-MP2 PNO cut-off              ...   1.0e-09
   L-MP2 PNO cut-off (core)       ...   1.0e-11
                           *** Turning on DIIS ***
LMP2-Iter=   0:  ELMP2= -0.463286369925  DE=   8.0e-03 RMAX=   4.7e-03
LMP2-Iter=   1:  ELMP2= -0.467602989782  DE=   4.3e-03 RMAX=   2.3e-03
LMP2-Iter=   2:  ELMP2= -0.468202801452  DE=   6.0e-04 RMAX=   2.7e-04
LMP2-Iter=   3:  ELMP2= -0.468253258335  DE=   5.0e-05 RMAX=   9.4e-05
LMP2-Iter=   4:  ELMP2= -0.468255284901  DE=   2.0e-06 RMAX=   1.2e-05
LMP2-Iter=   5:  ELMP2= -0.468254875481  DE=   4.1e-07 RMAX=   4.1e-06
LMP2-Iter=   6:  ELMP2= -0.468254832926  DE=   4.3e-08 RMAX=   4.9e-07
LMP2-Iter=   7:  ELMP2= -0.468254832618  DE=   3.1e-10 RMAX=   1.6e-07
LMP2-Iter=   8:  ELMP2= -0.468254834777  DE=   2.2e-09 RMAX=   1.7e-08 => CONVERGED
PASS-2: Formation of Pair natural orbitals
   .... Finished loop over pairs

 PNO Occupation Number Statistics: 
  | Av. % of trace(Dij) retained        ...  99.909602366794
  | sigma^2 in % of trace(Dij) retained ...   1.93e-02
  | Av. % of trace(Di) retained         ...  99.999924126489
  | sigma^2 in % of trace(Di) retained  ...   8.12e-10
 Distributions of % trace(Dij) recovered:
  |       >= 99.9  ...    43 ( 78.2 % of all pairs)
  |   [99.0, 99.9) ...    12 ( 21.8 % of all pairs)
 Distributions of % trace(Di) recovered :
  |       >= 99.9  ...    10 (100.0 % of all I-pairs )

Making pair pair interaction lists          ... done

                       ===========================
                         55 OF   55 PAIRS ARE KEPT
                       ===========================

Total time spent in the initial guess                 ...     0.446 sec
L-MP2 correlation energy (all non-screened pairs)     ...      -0.468254834777 Eh
L-MP2 PNO error correction                            ...      -0.000000696132 Eh
                                                          --------------------
Initial total L-MP2 energy (non-screened pairs)       ...      -0.468255530908 Eh

Initial PNO correlation energy                        ...      -0.468166377262 Eh
sum of pair energies estimated for screened out pairs ...       0.000000000000 Eh
sum of MP2 pair energies for pairs that were not kept ...       0.000000000000 Eh
sum of PNO error estimates for the kept pairs         ...      -0.000089153647 Eh
                                                          --------------------
sum of all corrections                                         -0.000089153647
Initial total correlation energy                               -0.468255530908
Thresholds for map construction and integral transformation for fine MP2 and CCSD(T) calculation:
   TCutMKN   ...     1.0e-03
   TCutDO    ...     5.0e-03
   TCutPairs ...     1.0e-05
   TCutCMO   ...     1.0e-03
   TCutCPAO  ...     1.0e-03

Time for aux screen maps:            0.000
Time for maps after fine MP2:            0.002
-----------------------------
LOCAL RI TRANSFORMATION (IJV)
-----------------------------

Orbital window:       3 to 12
Basis functions:     77 (39 shells)
Aux. functions:     266 (96 shells)

Processing maps (0.0 sec)
Average map sizes:
   Aux shells -> MOs(i)           10.0
   Aux shells -> MOs(j)           10.0
   MOs        -> AO shells        39.0

Calculating integrals (0.2 sec, 0.206 MB)
Sorting integrals (0.0 sec, 0.203 MB)
Total time for the integral transformation: 0.2 sec
--------------------------------
LOCAL RI TRANSFORMATION (VABPAO)
--------------------------------

Number of PAOs:      77
Basis functions:     77 (39 shells)
Aux. functions:     266 (96 shells)

Processing maps (0.0 sec)
Average map sizes:
   Aux shells -> PAOs             77.0
   PAOs       -> AO shells        39.0

Calculating integrals (0.3 sec, 21.356 MB)
Finished


-------------------------------------
Pair Pair Term precalculation with     
RI-(ij|mn) and (im|jn) transformation  
ON THE FLY                             
-------------------------------------

   IBatch   1 (of   1)              ... done (    1.311 sec)
Total EXT                           ...           1.311 sec

---------------------
RI-PNO TRANSFORMATION
---------------------

Total Number of PNOs                   ...  1686
Average number of PNOs per pair        ...    30
Maximal number of PNOs per pair        ...    40
   #pairs with  1 -  5 PNOs   :    0
   #pairs with  6 - 10 PNOs   :    0
   #pairs with 11 - 15 PNOs   :    0
   #pairs with 16 - 20 PNOs   :    1
   #pairs with 21 - 25 PNOs   :   10
   #pairs with 26 - 30 PNOs   :   10
   #pairs with 31 - 35 PNOs   :   22
   #pairs with 36 - 40 PNOs   :   12
   #pairs with 41 - 45 PNOs   :    0
   #pairs with 46 - 50 PNOs   :    0

Generation of (ij|ab)[P] integrals            ... on
Generation of (ia|bc)[P],(ja|bc)[P] integrals ... on
Storage of 3 and 4 external integrals         ... on
Generation of ALL (ka|bc)[P] integrals        ... on
Keep RI integrals in memory                   ... off

Ibatch:  1 (of  1)
Starting 2-4 index PNO integral generation ... done

Timings:
Total PNO integral transformation time     ...          0.591 sec
Size of the 3-external file                ...        13 MB
Size of the 4-external file                ...        57 MB
Size of the IKJL file                      ...         0 MB
Size of the all 3-external file            ...        67 MB
Size of the 1-external file                ...         0 MB

Making pair/pair overlap matrices          ... done (    0.053 sec)
Size of the pair overlap file              ... 16 MB
Redoing the guess amplitudes               ... done (    0.001 sec)

-------------------------
FINAL STARTUP INFORMATION
-------------------------

E(0)                                       ...   -134.261847818
E(L-MP2)                                   ...     -0.468255531
E(L-MP2) including corrections             ...     -0.468255531
Initial E(tot)                             ...   -134.730103349
<T|T>                                      ...      0.141226000
Number of pairs included                   ... 55
Total number of pairs                      ... 55

------------------------------------------------
                  RHF COUPLED CLUSTER ITERATIONS
------------------------------------------------

Number of PNO amplitudes to be optimized   ...        53192
Number of non-PNO amplitudes               ...       225280
Untruncated number of regular amplitudes   ...       225280

Iter       E(tot)           E(Corr)          Delta-E          Residual     Time
  0   -134.717075585     -0.455138613      0.013116917      0.017868978    0.59
                           *** Turning on DIIS ***
  1   -134.754721605     -0.492784634     -0.037646020      0.006859055    0.58
  2   -134.771419888     -0.509482917     -0.016698283      0.001557425    0.57
  3   -134.773502430     -0.511565458     -0.002082542      0.000690826    0.57
  4   -134.773932375     -0.511995404     -0.000429945      0.000248855    0.58
  5   -134.774001393     -0.512064421     -0.000069017      0.000152068    1.77
  6   -134.774017043     -0.512080071     -0.000015650      0.000085182   18.59
  7   -134.774019330     -0.512082359     -0.000002287      0.000050458    0.60
  8   -134.774019926     -0.512082954     -0.000000595      0.000020307    0.59
  9   -134.774019950     -0.512082978     -0.000000024      0.000006927    0.59
               --- The Coupled-Cluster iterations have converged ---

----------------------
COUPLED CLUSTER ENERGY
----------------------

E(0)                                       ...   -134.261847818
E(CORR)(strong-pairs)                      ...     -0.512082978
E(CORR)(weak-pairs)                        ...     -0.000089154
E(CORR)(corrected)                         ...     -0.512172132
E(TOT)                                     ...   -134.774019950
Singles Norm <S|S>**1/2                    ...      0.029800629  
T1 diagnostic                              ...      0.006663623  

------------------
LARGEST AMPLITUDES
------------------
   8-> 22   8-> 22       0.039987
   7-> 13   7-> 13       0.038223
   9-> 22   9-> 22       0.037820
  11-> 22  11-> 22       0.037718
   6-> 13   6-> 13       0.036954
   8-> 13   8-> 13       0.036411
   9-> 13   9-> 13       0.036331
   6-> 22   6-> 22       0.035728
  11-> 13  11-> 13       0.034987
  12-> 13  12-> 13       0.034448
  10-> 13  10-> 13       0.034425
  12-> 19  12-> 19       0.034111
   7-> 21   7-> 21       0.033389
   6-> 22   6-> 13       0.030201
   6-> 13   6-> 22       0.030201
   8-> 22   8-> 13       0.030090


-------------------------------------------
DLPNO BASED TRIPLES CORRECTION
-------------------------------------------

Singles multiplier          ...  1.000000
TCutTNO                     ... 1.000e-09
TCutMP2Pairs                ... 1.000e-06
TCutDOStrong                ... 1.000e-02
TCutMKNStrong               ... 1.000e-02
TCutDOWeak                  ... 2.000e-02
TCutMKNWeak                 ... 1.000e-01

Fragment selection                          .... not used
Number of Triples that are to be computed   ...       210

 . . . . . . . . .
10% done  
20% done  
30% done  
40% done  
50% done  
60% done  
70% done  
80% done  
90% done               (      1.800 sec)
Triples timings:
Total time for T0               ...     1.940 sec
Total time for Iterative (T)    ...     0.000 sec
Total time of overall (T)       ...     2.049 sec

Triples List generation         ...     0.000 sec
TNO generation                  ...     0.139 sec
Pair density generation         ...     0.001 sec
Look up tables                  ...     0.000 sec
Generating 3-index integrals    ...     0.568 sec
  Make 4-ind.int. from 3-ind.int...     0.486 sec
  Projecting amplitudes (D + S) ...     0.119 sec
  Downprojecting integrals      ...     0.000 sec
  Energy contr. (sum over a,b,c)...     0.201 sec
Fitting ET(->0)                 ...     0.000 sec

Everything after 3-index        ...     1.232 sec

Timing details:
 TNO integrals                  ...     1.000 sec
   Reading 3-index integrals    ...     0.005 sec
   Sorting integrals            ...     0.285 sec
       Sorting integrals 1      ...     0.000 sec
       Sorting integrals 2      ...     0.041 sec
       Sorting integrals 3      ...     0.015 sec
       Sorting integrals 4      ...     0.001 sec
       Sorting integrals 5      ...     0.003 sec
       Sorting integrals 6      ...     0.225 sec
   Calculating local VM**-1/2   ...     0.012 sec
   Orthogonal. integrals        ...     0.025 sec
   Multipl. 3-index integrals   ...     0.674 sec
   All concerning IRIab (w/TNO) ...     0.199 sec

 Calculate W0/W1                ...     0.425 sec
 W 3-ext contribution           ...     0.247 sec
 W 3-int contribution           ...     0.058 sec
 Sorting W                      ...     0.108 sec

 V exchange contribution        ...     0.082 sec

 Timings for Triples without generation
     of 3-index integrals       ...     1.232 sec
       0 weak pairs             ...     1.232 sec
       1 weak pair              ...     0.000 sec
       2 weak pairs             ...     0.000 sec
       3 weak pairs             ...     0.000 sec
  Extra time for extrapolation  ...     0.000 sec

Number of Triples   (0, 1, 2, 3 weak pairs; overall):    210       0       0       0  (   210)
Number of Atoms     (0, 1, 2, 3 weak pairs; overall):   10.0     0.0     0.0     0.0  (    10)
Number of PAOs      (0, 1, 2, 3 weak pairs; overall):   77.0     0.0     0.0     0.0  (    77)
Number of AuxFcns   (0, 1, 2, 3 weak pairs; overall):  153.2     0.0     0.0     0.0  (   266)
Number of TNOs      (0, 1, 2, 3 weak pairs         ):   54.5     0.0     0.0     0.0
Aver. Number of NTNO, Atoms, PAOs, AuxFcns / Triples:    210    54.5    10.0    77.0   153.2

Triples Correction (T)                     ...     -0.012894097
Final correlation energy                   ...     -0.525066229
E(CCSD)                                    ...   -134.774019950
E(CCSD(T))                                 ...   -134.786914047


Maximum memory used throughout the entire calculation: 574.7 MB


------------------------------------------------------------------------------- 
                                     TIMINGS                                   
------------------------------------------------------------------------------- 


Total execution time                   ...       31.730 sec

Localization of occupied MO's          ...        0.375 sec (  1.2%)
Fock Matrix Formation                  ...        0.492 sec (  1.6%)
Global overlap, Fock, MKN matrices     ...        0.120 sec (  0.4%)
Differential overlap integrals         ...        0.040 sec (  0.1%)
Organizing maps                        ...        0.005 sec (  0.0%)
RI 3-index integral generations        ...        0.974 sec (  3.1%)
RI-PNO integral transformation         ...        1.993 sec (  6.3%)
Initial Guess                          ...        0.497 sec (  1.6%)
DIIS Solver                            ...        0.138 sec (  0.4%)
State Vector Update                    ...        0.004 sec (  0.0%)
Sigma-vector construction              ...       24.980 sec ( 78.7%)
  <D|H|D>(0-ext)                       ...        0.218 sec (  0.9% of sigma)
  <D|H|D>(2-ext Fock)                  ...        0.005 sec (  0.0% of sigma)
  <D|H|D>(2-ext)                       ...        0.468 sec (  1.9% of sigma)
  <D|H|D>(4-ext)                       ...        0.726 sec (  2.9% of sigma)
  <D|H|D>(4-ext-corr)                  ...        2.860 sec ( 11.4% of sigma)
  CCSD doubles correction              ...        0.030 sec (  0.1% of sigma)
  <S|H|S>                              ...        0.065 sec (  0.3% of sigma)
  <S|H|D>(1-ext)                       ...        0.041 sec (  0.2% of sigma)
  <D|H|S>(1-ext)                       ...        0.002 sec (  0.0% of sigma)
  <S|H|D>(3-ext)                       ...        0.055 sec (  0.2% of sigma)
  Fock-dressing                        ...        0.693 sec (  2.8% of sigma)
  Singles amplitudes                   ...        0.033 sec (  0.1% of sigma)
  (ik|jl)-dressing                     ...        0.159 sec (  0.6% of sigma)
  (ij|ab),(ia|jb)-dressing             ...       12.890 sec ( 51.6% of sigma)
  Pair energies                        ...        0.002 sec (  0.0% of sigma)
Total Time for computing (T)           ...        2.053 sec (  6.5% of ALL)


-------------------------   --------------------
FINAL SINGLE POINT ENERGY      -134.786914046910
-------------------------   --------------------


                            ***************************************
                            *     ORCA property calculations      *
                            ***************************************

                                    ---------------------
                                    Active property flags
                                    ---------------------
   (+) Dipole Moment


------------------------------------------------------------------------------
                       ORCA ELECTRIC PROPERTIES CALCULATION
------------------------------------------------------------------------------

Dipole Moment Calculation                       ... on
Quadrupole Moment Calculation                   ... off
Polarizability Calculation                      ... off
GBWName                                         ... ethylamine_g.gbw
Electron density file                           ... ethylamine_g.scfp.tmp
The origin for moment calculation is the CENTER OF MASS  = (-0.052092, -0.012564 -0.026570)

-------------
DIPOLE MOMENT
-------------
                                X             Y             Z
Electronic contribution:     -1.45081      -0.09359      -0.25981
Nuclear contribution   :      1.35439       0.32656       0.69079
                        -----------------------------------------
Total Dipole Moment    :     -0.09643       0.23297       0.43098
                        -----------------------------------------
Magnitude (a.u.)       :      0.49932
Magnitude (Debye)      :      1.26918



--------------------
Rotational spectrum 
--------------------
 
Rotational constants in cm-1:     1.087653     0.295419     0.259400 
Rotational constants in MHz : 32607.015656  8856.425643  7776.617943 

 Dipole components along the rotational axes: 
x,y,z [a.u.] :    -0.085999    -0.259807     0.417644 
x,y,z [Debye]:    -0.218592    -0.660377     1.061568 

 

Timings for individual modules:

Sum of individual times         ...       33.808 sec (=   0.563 min)
GTO integral calculation        ...        0.333 sec (=   0.006 min)   1.0 %
SCF iterations                  ...        1.616 sec (=   0.027 min)   4.8 %
MDCI module                     ...       31.859 sec (=   0.531 min)  94.2 %
                             ****ORCA TERMINATED NORMALLY****
TOTAL RUN TIME: 0 days 0 hours 0 minutes 34 seconds 44 msec
ethylamine_g.gbw -> /home1/pantazis/klk/VDZ/Nitrogen_compounds/ethylamine_g.gbw
ethylamine_g.ges -> /home1/pantazis/klk/VDZ/Nitrogen_compounds/ethylamine_g.ges
ethylamine_g.job -> /home1/pantazis/klk/VDZ/Nitrogen_compounds/ethylamine_g.job
ethylamine_g.loc -> /home1/pantazis/klk/VDZ/Nitrogen_compounds/ethylamine_g.loc
ethylamine_g.nodes -> /home1/pantazis/klk/VDZ/Nitrogen_compounds/ethylamine_g.nodes
ethylamine_g.prop -> /home1/pantazis/klk/VDZ/Nitrogen_compounds/ethylamine_g.prop
ethylamine_g_property.txt -> /home1/pantazis/klk/VDZ/Nitrogen_compounds/ethylamine_g_property.txt
ethylamine_g.xyz -> /home1/pantazis/klk/VDZ/Nitrogen_compounds/ethylamine_g.xyz
cp: cannot stat ethylamine_g.asa.inp: No such file or directory
