! Job execution by suborca V 6.07 on ZEUS !
Job started from zeus1, running /scratch/pantazis/fluorocyclohexane_eq__pQBc7u/orca/orca copied from /opt/orca on zeussn151 in /scratch/pantazis/fluorocyclohexane_eq__pQBc7u
Job execution start: Sat Jun 29 10:20:01 CEST 2019
Shared library path: /scratch/pantazis/fluorocyclohexane_eq__pQBc7u/orca:/opt/openmpi_1.10.2/lib:/opt/intel/mkl/lib/intel64:/opt/intel/lib/intel64:
PBS Job ID is: 158686.icqc
izeussn151
izeussn151
izeussn151
izeussn151

                                 *****************
                                 * O   R   C   A *
                                 *****************

           --- An Ab Initio, DFT and Semiempirical electronic structure package ---

                  #######################################################
                  #                        -***-                        #
                  #          Department of theory and spectroscopy      #
                  #               Directorship: Frank Neese             #
                  #        Max Planck Institute fuer Kohlenforschung    #
                  #                Kaiser Wilhelm Platz 1               #
                  #                 D-45470 Muelheim/Ruhr               #
                  #                      Germany                        #
                  #                                                     #
                  #                  All rights reserved                #
                  #                        -***-                        #
                  #######################################################


                         Program Version 4.1.x  -  STABLE  -
                                (SVN: $Rev: 14094$)
                ($Date: 2019-06-14 15:01:15 +0200 (Fri, 14 Jun 2019) $)

                         (BUILD: $Sun Jun 23 06:18:31 CEST 2019$)


 With contributions from (in alphabetic order):
   Daniel Aravena         : Magnetic Properties
   Michael Atanasov       : Ab Initio Ligand Field Theory
   Alexander A. Auer      : GIAO ZORA
   Ute Becker             : Parallelization
   Giovanni Bistoni       : ED, Open-shell LED
   Martin Brehm           : Molecular dynamics
   Dmytro Bykov           : SCF Hessian
   Vijay G. Chilkuri      : MRCI spin determinant printing
   Dipayan Datta          : RHF DLPNO-CCSD density
   Achintya Kumar Dutta   : EOM-CC, STEOM-CC
   Dmitry Ganyushin       : Spin-Orbit,Spin-Spin,Magnetic field MRCI
   Miquel Garcia          : C-PCM Hessian
   Yang Guo               : DLPNO-NEVPT2, CIM, IAO-localization
   Andreas Hansen         : Spin unrestricted coupled pair/coupled cluster methods
   Benjamin Helmich-Paris : CASSCF linear response (MC-RPA)
   Lee Huntington         : MR-EOM, pCC
   Robert Izsak           : Overlap fitted RIJCOSX, COSX-SCS-MP3, EOM
   Christian Kollmar      : KDIIS, OOCD, Brueckner-CCSD(T), CCSD density
   Simone Kossmann        : Meta GGA functionals, TD-DFT gradient, OOMP2, MP2 Hessian
   Martin Krupicka        : AUTO-CI
   Lucas Lang             : DCDCAS
   Dagmar Lenk            : GEPOL surface, SMD
   Dimitrios Liakos       : Extrapolation schemes; parallel MDCI
   Dimitrios Manganas     : ROCIS; embedding schemes
   Dimitrios Pantazis     : SARC Basis sets
   Taras Petrenko         : DFT Hessian,TD-DFT gradient, ASA, ECA, R-Raman, ABS, FL, XAS/XES, NRVS
   Peter Pinski           : DLPNO-MP2, DLPNO-MP2 Gradient
   Christoph Reimann      : Effective Core Potentials
   Marius Retegan         : Local ZFS, SOC
   Christoph Riplinger    : Optimizer, TS searches, QM/MM, DLPNO-CCSD(T), (RO)-DLPNO pert. Triples
   Tobias Risthaus        : Range-separated hybrids, TD-DFT gradient, RPA, STAB
   Michael Roemelt        : Restricted open shell CIS
   Masaaki Saitow         : Open-shell DLPNO
   Barbara Sandhoefer     : DKH picture change effects
   Avijit Sen             : IP-ROCIS
   Kantharuban Sivalingam : CASSCF convergence, NEVPT2, FIC-MRCI
   Bernardo de Souza      : ESD, SOC TD-DFT
   Georgi Stoychev        : AutoAux, RI-MP2 NMR
   Willem Van den Heuvel  : Paramagnetic NMR
   Boris Wezisla          : Elementary symmetry handling
   Frank Wennmohs         : Technical directorship


 We gratefully acknowledge several colleagues who have allowed us to
 interface, adapt or use parts of their codes:
   Stefan Grimme, W. Hujo, H. Kruse,             : VdW corrections, initial TS optimization,
                  C. Bannwarth                     DFT functionals, gCP, sTDA/sTD-DF
   Ed Valeev                                     : LibInt (2-el integral package), F12 methods
   Garnet Chan, S. Sharma, J. Yang, R. Olivares  : DMRG
   Ulf Ekstrom                                   : XCFun DFT Library
   Mihaly Kallay                                 : mrcc  (arbitrary order and MRCC methods)
   Andreas Klamt, Michael Diedenhofen            : otool_cosmo (COSMO solvation model)
   Jiri Pittner, Ondrej Demel                    : Mk-CCSD
   Frank Weinhold                                : gennbo (NPA and NBO analysis)
   Christopher J. Cramer and Donald G. Truhlar   : smd solvation model
   Lars Goerigk                                  : TD-DFT with DH, B97 family of functionals
   V. Asgeirsson, H. Jonsson                     : NEB implementation
   FAccTs GmbH                                   : IRC, NEB, NEB-TS, Multilevel


 Your calculation uses the libint2 library for the computation of 2-el integrals
 For citations please refer to: http://libint.valeyev.net

 This ORCA versions uses:
   CBLAS   interface :  Fast vector & matrix operations
   LAPACKE interface :  Fast linear algebra routines
   SCALAPACK package :  Parallel linear algebra routines




***************************************
The coordinates will be read from file: fluorocyclohexane_eq.xyz
***************************************


----- Orbital basis set information -----
Your calculation utilizes the basis: cc-pVDZ 
       H, B-Ne : Obtained from the ccRepo (grant-hill.group.shef.ac.uk/ccrepo) Feb. 2017
                 T. H. Dunning, Jr., J. Chem. Phys. 90, 1007 (1989)
            He : Obtained from the ccRepo (grant-hill.group.shef.ac.uk/ccrepo) Feb. 2017
                 D. E. Woon, T. H. Dunning, Jr., J. Chem. Phys. 100, 2975 (1994)
  Li-Be, Na-Mg : Obtained from the ccRepo (grant-hill.group.shef.ac.uk/ccrepo) Feb. 2017
                 B. P. Prascher, D. E. Woon, K. A. Peterson, T. H. Dunning, Jr., A. K. Wilson, Theor. Chem. Acc. 128, 69 (2011)
         Al-Ar : Obtained from the ccRepo (grant-hill.group.shef.ac.uk/ccrepo) Feb. 2017
                 D. E. Woon, T. H. Dunning, Jr., J. Chem. Phys. 98, 1358 (1993)
            Ca : Obtained from the Peterson Research Group Website (tyr0.chem.wsu.edu/~kipeters) Feb. 2017
                 J. Koput, K. A. Peterson, J. Phys. Chem. 106, 9595 (2002)
         Sc-Zn : Obtained from the ccRepo (grant-hill.group.shef.ac.uk/ccrepo) Feb. 2017
                 N. B. Balabanov, K. A. Peterson, J. Chem. Phys. 123, 064107 (2005)
                 N. B. Balabanov, K. A. Peterson, J. Chem. Phys. 125, 074110 (2006)
         Ga-Kr : Obtained from the ccRepo (grant-hill.group.shef.ac.uk/ccrepo) Feb. 2017
                 A. K. Wilson, D. E. Woon, K. A. Peterson, T. H. Dunning, Jr., J. Chem. Phys. 110, 7667 (1999)

----- AuxC basis set information -----
Your calculation utilizes the auxiliary basis: cc-pVDZ/C 
  H-He, B, Ne, Al-Ar, Ga-Br : Obtained from the EMSL Basis Set Exchange (bse.pnl.gov) Feb. 2017
                              F. Weigend, A. Kohn, C. Hattig, J. Chem. Phys. 116, 3175 (2002)
               Li-Be, Na-Mg : Obtained from the EMSL Basis Set Exchange (bse.pnl.gov) Feb. 2017
                              C. Haettig, Phys. Chem. Chem. Phys. 7, 59 (2005)
                        C-F : Obtained from the EMSL Basis Set Exchange (bse.pnl.gov) Feb. 2017
                              C. Haettig, Phys. Chem. Chem. Phys. 7, 59 (2005)
                              F. Weigend, A. Kohn, C. Hattig, J. Chem. Phys. 116, 3175 (2002)
                         Kr : Obtained from the TURBOMOLE 7.0 basis set library
                              F. Weigend, A. Kohn, C. Hattig, J. Chem. Phys. 116, 3175 (2002)
                              S function revised in Sep. 2009

----- AuxJK basis set information -----
Your calculation utilizes the auxiliary basis: cc-pVTZ/JK 
  H, B-F, Al-Cl, Ga-Br : Obtained from the TURBOMOLE 7.0 basis set library

================================================================================
                                        WARNINGS
                       Please study these warnings very carefully!
================================================================================


WARNING: MDCI localization with Augmented Hessian Foster-Boys
  ===> : Switching off randomization!

WARNING: Post HF methods need fully converged wavefunctions
  ===> : Setting SCFConvForced true
         You can overwrite this default with %scf ConvForced false 


INFO   : the flag for use of LIBINT has been found!

================================================================================
                                       INPUT FILE
================================================================================
NAME = fluorocyclohexane_eq.inp
|  1> ! RHF DLPNO-CCSD(T) cc-pVDZ RIJK cc-pVTZ/JK cc-pVDZ/C
|  2> ! KDIIS SOSCF TightSCF TightPNO
|  3> 
|  4> %pal nprocs 4 end
|  5> 
|  6> %maxcore 8000
|  7> 
|  8> %scf maxiter 300
|  9>      shift shift 0.2 erroff 0.1 end
| 10> end
| 11> 
| 12> * xyzfile 0 1 fluorocyclohexane_eq.xyz 
| 13> 
| 14> 
| 15>                          ****END OF INPUT****
================================================================================

                       ****************************
                       * Single Point Calculation *
                       ****************************

---------------------------------
CARTESIAN COORDINATES (ANGSTROEM)
---------------------------------
  C      0.346320   -1.266110   -0.175090
  C      1.027130   -0.000000    0.328460
  C      0.346340    1.266110   -0.175080
  C     -1.145040    1.270050    0.209900
  C     -1.858270    0.000000   -0.282340
  C     -1.145060   -1.270040    0.209900
  F      2.378120   -0.000020   -0.102560
  H      0.858750    2.146360    0.228840
  H      0.451350    1.301700   -1.267640
  H     -1.628820    2.164900   -0.198340
  H     -1.880060    0.000000   -1.381480
  H     -2.902880    0.000020    0.051620
  H      1.068850   -0.000020    1.426140
  H     -1.628860   -2.164900   -0.198300
  H     -1.239960   -1.338090    1.303280
  H      0.451310   -1.301670   -1.267650
  H      0.858700   -2.146370    0.228840
  H     -1.239970    1.338120    1.303270

----------------------------
CARTESIAN COORDINATES (A.U.)
----------------------------
  NO LB      ZA    FRAG     MASS         X           Y           Z
   0 C     6.0000    0    12.011    0.654450   -2.392601   -0.330872
   1 C     6.0000    0    12.011    1.940994   -0.000000    0.620699
   2 C     6.0000    0    12.011    0.654488    2.392601   -0.330853
   3 C     6.0000    0    12.011   -2.163812    2.400047    0.396654
   4 C     6.0000    0    12.011   -3.511621    0.000000   -0.533545
   5 C     6.0000    0    12.011   -2.163850   -2.400028    0.396654
   6 F     9.0000    0    18.998    4.493996   -0.000038   -0.193810
   7 H     1.0000    0     1.008    1.622802    4.056033    0.432445
   8 H     1.0000    0     1.008    0.852928    2.459857   -2.395492
   9 H     1.0000    0     1.008   -3.078024    4.091068   -0.374808
  10 H     1.0000    0     1.008   -3.552799    0.000000   -2.610619
  11 H     1.0000    0     1.008   -5.485648    0.000038    0.097548
  12 H     1.0000    0     1.008    2.019834   -0.000038    2.695014
  13 H     1.0000    0     1.008   -3.078099   -4.091068   -0.374733
  14 H     1.0000    0     1.008   -2.343185   -2.528624    2.462842
  15 H     1.0000    0     1.008    0.852852   -2.459800   -2.395511
  16 H     1.0000    0     1.008    1.622708   -4.056051    0.432445
  17 H     1.0000    0     1.008   -2.343204    2.528680    2.462823

--------------------------------
INTERNAL COORDINATES (ANGSTROEM)
--------------------------------
 C      0   0   0     0.000000000000     0.00000000     0.00000000
 C      1   0   0     1.523187247419     0.00000000     0.00000000
 C      2   1   0     1.523175002355   112.45007314     0.00000000
 C      3   2   1     1.540272517576   110.62595970    56.09114845
 C      4   3   2     1.537538374480   111.53203647   305.27304633
 C      5   4   3     1.537520836704   111.38603702    54.32998666
 F      2   1   3     1.418080470530   108.98524876   239.04102436
 H      3   2   1     1.095698606826   109.68788831   178.88702357
 H      3   2   1     1.098171708705   108.24593345   295.56567216
 H      4   3   2     1.096111084015   109.65459027   182.52860566
 H      5   4   3     1.099355967692   109.22505573   293.59384304
 H      5   4   3     1.096694731500   110.14164556   176.84715973
 H      2   1   3     1.098472549134   110.32297678   123.62818527
 H      6   5   4     1.096113178280   110.51165986   183.41493773
 H      6   5   4     1.099598398007   109.23401520    66.73139886
 H      1   2   3     1.098168824589   108.24527067    64.43268550
 H      1   2   3     1.095696297749   109.68826851   181.11427018
 H      4   3   2     1.099592282030   109.40712124    66.23526421

---------------------------
INTERNAL COORDINATES (A.U.)
---------------------------
 C      0   0   0     0.000000000000     0.00000000     0.00000000
 C      1   0   0     2.878406748303     0.00000000     0.00000000
 C      2   1   0     2.878383608486   112.45007314     0.00000000
 C      3   2   1     2.910693229824   110.62595970    56.09114845
 C      4   3   2     2.905526448163   111.53203647   305.27304633
 C      5   4   3     2.905493306569   111.38603702    54.32998666
 F      2   1   3     2.679783725165   108.98524876   239.04102436
 H      3   2   1     2.070570292220   109.68788831   178.88702357
 H      3   2   1     2.075243777473   108.24593345   295.56567216
 H      4   3   2     2.071349761143   109.65459027   182.52860566
 H      5   4   3     2.077481702630   109.22505573   293.59384304
 H      5   4   3     2.072452695049   110.14164556   176.84715973
 H      2   1   3     2.075812283493   110.32297678   123.62818527
 H      6   5   4     2.071353718732   110.51165986   183.41493773
 H      6   5   4     2.077939829532   109.23401520    66.73139886
 H      1   2   3     2.075238327284   108.24527067    64.43268550
 H      1   2   3     2.070565928696   109.68826851   181.11427018
 H      4   3   2     2.077928272010   109.40712124    66.23526421

---------------------
BASIS SET INFORMATION
---------------------
There are 3 groups of distinct atoms

 Group   1 Type C   : 17s4p1d contracted to 3s2p1d pattern {881/31/1}
 Group   2 Type F   : 17s4p1d contracted to 3s2p1d pattern {881/31/1}
 Group   3 Type H   : 4s1p contracted to 2s1p pattern {31/1}

Atom   0C    basis set group =>   1
Atom   1C    basis set group =>   1
Atom   2C    basis set group =>   1
Atom   3C    basis set group =>   1
Atom   4C    basis set group =>   1
Atom   5C    basis set group =>   1
Atom   6F    basis set group =>   2
Atom   7H    basis set group =>   3
Atom   8H    basis set group =>   3
Atom   9H    basis set group =>   3
Atom  10H    basis set group =>   3
Atom  11H    basis set group =>   3
Atom  12H    basis set group =>   3
Atom  13H    basis set group =>   3
Atom  14H    basis set group =>   3
Atom  15H    basis set group =>   3
Atom  16H    basis set group =>   3
Atom  17H    basis set group =>   3
-------------------------------
AUXILIARY BASIS SET INFORMATION
-------------------------------
There are 3 groups of distinct atoms

 Group   1 Type C   : 7s5p4d2f contracted to 7s5p4d2f pattern {1111111/11111/1111/11}
 Group   2 Type F   : 7s5p4d2f contracted to 7s5p4d2f pattern {1111111/11111/1111/11}
 Group   3 Type H   : 3s2p1d contracted to 3s2p1d pattern {111/11/1}

Atom   0C    basis set group =>   1
Atom   1C    basis set group =>   1
Atom   2C    basis set group =>   1
Atom   3C    basis set group =>   1
Atom   4C    basis set group =>   1
Atom   5C    basis set group =>   1
Atom   6F    basis set group =>   2
Atom   7H    basis set group =>   3
Atom   8H    basis set group =>   3
Atom   9H    basis set group =>   3
Atom  10H    basis set group =>   3
Atom  11H    basis set group =>   3
Atom  12H    basis set group =>   3
Atom  13H    basis set group =>   3
Atom  14H    basis set group =>   3
Atom  15H    basis set group =>   3
Atom  16H    basis set group =>   3
Atom  17H    basis set group =>   3
-------------------------------
AUXILIARY BASIS SET INFORMATION
-------------------------------
There are 3 groups of distinct atoms

 Group   1 Type C   : 10s7p5d2f1g contracted to 10s7p5d2f1g pattern {1111111111/1111111/11111/11/1}
 Group   2 Type F   : 10s7p5d2f1g contracted to 10s7p5d2f1g pattern {1111111111/1111111/11111/11/1}
 Group   3 Type H   : 4s3p2d1f contracted to 4s3p2d1f pattern {1111/111/11/1}

Atom   0C    basis set group =>   1
Atom   1C    basis set group =>   1
Atom   2C    basis set group =>   1
Atom   3C    basis set group =>   1
Atom   4C    basis set group =>   1
Atom   5C    basis set group =>   1
Atom   6F    basis set group =>   2
Atom   7H    basis set group =>   3
Atom   8H    basis set group =>   3
Atom   9H    basis set group =>   3
Atom  10H    basis set group =>   3
Atom  11H    basis set group =>   3
Atom  12H    basis set group =>   3
Atom  13H    basis set group =>   3
Atom  14H    basis set group =>   3
Atom  15H    basis set group =>   3
Atom  16H    basis set group =>   3
Atom  17H    basis set group =>   3

Checking for AutoStart:
The File: fluorocyclohexane_eq.gbw exists
Trying to determine its content:
     ... Fine, the file contains calculation information
     ... Fine, the calculation information was read
     ... Fine, the file contains a basis set
     ... Fine, the basis set was read
     ... Fine, the file contains a geometry
     ... Fine, the geometry was read
     ... Fine, the file contains a set of orbitals
     ... Fine, the orbitals can be read
     => possible old guess file was deleted
     => GBW file was renamed to GES file
     => GES file is set as startup file
     => Guess is set to MORead
     ... now leaving AutoStart



           ************************************************************
           *        Program running with 4 parallel MPI-processes     *
           *              working on a common directory               *
           ************************************************************
------------------------------------------------------------------------------
                           ORCA GTO INTEGRAL CALCULATION
                           -- RI-GTO INTEGRALS CHOSEN --
------------------------------------------------------------------------------

                         BASIS SET STATISTICS AND STARTUP INFO

Gaussian basis set:
 # of primitive gaussian shells          ...  209
 # of primitive gaussian functions       ...  315
 # of contracted shells                  ...   75
 # of contracted basis functions         ...  153
 Highest angular momentum                ...    2
 Maximum contraction depth               ...    8
Auxiliary gaussian basis set:
 # of primitive gaussian shells          ...  285
 # of primitive gaussian functions       ...  883
 # of contracted shells                  ...  285
 # of contracted aux-basis functions     ...  883
 Highest angular momentum                ...    4
 Maximum contraction depth               ...    1
Ratio of auxiliary to basis functions    ...  5.77
Integral package used                  ... LIBINT
 One Electron integrals                  ... done
 Ordering auxiliary basis shells         ... done
 Integral threshhold             Thresh  ...  2.500e-11
 Primitive cut-off               TCut    ...  2.500e-12
 Pre-screening matrix                    ... done
 Shell pair data                         ... 
 Ordering of the shell pairs             ... done (   0.000 sec) 2820 of 2850 pairs
 Determination of significant pairs      ... done (   0.000 sec)
 Creation of shell pair data             ... done (   0.001 sec)
 Storage of shell pair data              ... done (   0.001 sec)
 Shell pair data done in (   0.003 sec)
 Computing two index integrals           ... done
 Cholesky decomposition of the V-matrix  ... done


Timings:
 Total evaluation time                   ...  45.323 sec (  0.755 min)
 One electron matrix time                ...  45.012 sec (  0.750 min) = 99.3%
 Schwartz matrix evaluation time         ...   0.174 sec (  0.003 min) =  0.4%
 Two index repulsion integral time       ...   0.048 sec (  0.001 min) =  0.1%
 Cholesky decomposition of V             ...   0.061 sec (  0.001 min) =  0.1%
 Three index repulsion integral time     ...   0.000 sec (  0.000 min) =  0.0%



           ************************************************************
           *        Program running with 4 parallel MPI-processes     *
           *              working on a common directory               *
           ************************************************************
-------------------------------------------------------------------------------
                                 ORCA SCF
-------------------------------------------------------------------------------

------------
SCF SETTINGS
------------
Hamiltonian:
 Ab initio Hamiltonian  Method          .... Hartree-Fock(GTOs)
 RI-approximation to the Coulomb term is turned on
   Number of auxiliary basis functions  .... 883
   RI-JK (J+K treated both via RI)      .... on


General Settings:
 Integral files         IntName         .... fluorocyclohexane_eq
 Hartree-Fock type      HFTyp           .... RHF
 Total Charge           Charge          ....    0
 Multiplicity           Mult            ....    1
 Number of Electrons    NEL             ....   56
 Basis Dimension        Dim             ....  153
 Nuclear Repulsion      ENuc            ....    327.0466910156 Eh

Convergence Acceleration:
 DIIS                   CNVDIIS         .... off
 Newton-Raphson         CNVNR           .... off
 SOSCF                  CNVSOSCF        .... on
   Start iteration      SOSCFMaxIt      ....   150
   Startup grad/error   SOSCFStart      ....  0.003300
 Level Shifting         CNVShift        .... on
   Level shift para.    LevelShift      ....    0.2000
   Turn off err/grad.   ShiftErr        ....    0.1000
 Zerner damping         CNVZerner       .... off
 Static damping         CNVDamp         .... off
 Fernandez-Rico         CNVRico         .... off

SCF Procedure:
 Maximum # iterations   MaxIter         ....   300
 SCF integral mode      SCFMode         .... Direct
   Integral package                     .... LIBINT
 Reset frequency        DirectResetFreq ....    20
 Integral Threshold     Thresh          ....  2.500e-11 Eh
 Primitive CutOff       TCut            ....  2.500e-12 Eh

Convergence Tolerance:
 Convergence Check Mode ConvCheckMode   .... Total+1el-Energy
 Convergence forced     ConvForced      .... 1
 Energy Change          TolE            ....  1.000e-08 Eh
 1-El. energy change                    ....  1.000e-05 Eh
 Orbital Gradient       TolG            ....  1.000e-05
 Orbital Rotation angle TolX            ....  1.000e-05


Diagonalization of the overlap matrix:
Smallest eigenvalue                        ... 3.507e-03
Time for diagonalization                   ...    0.007 sec
Threshold for overlap eigenvalues          ... 1.000e-08
Number of eigenvalues below threshold      ... 0
Time for construction of square roots      ...    0.005 sec
Total time needed                          ...    0.012 sec

---------------------
INITIAL GUESS: MOREAD
---------------------
Guess MOs are being read from file: fluorocyclohexane_eq.ges
Input Geometry matches current geometry (good)
Atom 0: N(Shells)= 6 and 10 - projection required
Input basis set needs projection
NBasis(read)= 364
NBasis(calc)= 153
Basis set overlap was calculated
Using GuessMode=FMatrix for the initial guess
C*T matrix was formed
Effective Fockian was calculated
Effective Fockian was diagonalized
Initial density was built
                      ------------------
                      INITIAL GUESS DONE (   0.0 sec)
                      ------------------
--------------
SCF ITERATIONS
--------------
ITER       Energy         Delta-E        Max-DP      RMS-DP      [F,P]   Gradient Norm
                             ****Turning on KDIIS(Cayley)****
  0   -333.0835479348   0.000000000000 0.00306837  0.00006837  0.0044201   0.006027884
  1   -333.0837030927  -0.000155157958 0.00625485  0.00013287  0.0040239   0.005400608
                      *** Initiating the SOSCF procedure ***
                           *** Shutting down KDIIS ***
                      *** Re-Reading the Fockian *** 
                      *** Removing any level shift *** 
ITER      Energy       Delta-E        Grad      Rot      Max-DP    RMS-DP
  2   -333.08392815  -0.0002250591  0.003238  0.003238  0.010401  0.000220
  3   -333.08421434  -0.0002861911  0.001942  0.001394  0.013486  0.000297
  4   -333.08436348  -0.0001491356  0.000927  0.000465  0.003351  0.000076
  5   -333.08437631  -0.0000128347  0.000252  0.000157  0.001201  0.000028
  6   -333.08437809  -0.0000017815  0.000055  0.000061  0.000142  0.000003
  7   -333.08437816  -0.0000000629  0.000016  0.000031  0.000062  0.000002
                  ***Gradient check signals convergence***
              ***Rediagonalizing the Fockian in SOSCF/NRSCF***

               *****************************************************
               *                     SUCCESS                       *
               *           SCF CONVERGED AFTER   8 CYCLES          *
               *****************************************************


----------------
TOTAL SCF ENERGY
----------------

Total Energy       :         -333.08437817 Eh           -9063.68672 eV

Components:
Nuclear Repulsion  :          327.04669102 Eh            8899.39290 eV
Electronic Energy  :         -660.13106918 Eh          -17963.07962 eV
One Electron Energy:        -1102.99737852 Eh          -30014.08456 eV
Two Electron Energy:          442.86630934 Eh           12051.00494 eV

Virial components:
Potential Energy   :         -665.83242852 Eh          -18118.22149 eV
Kinetic Energy     :          332.74805036 Eh            9054.53477 eV
Virial Ratio       :            2.00101076


---------------
SCF CONVERGENCE
---------------

  Last Energy change         ...   -9.1907e-09  Tolerance :   1.0000e-08
  Last MAX-Density change    ...    7.6824e-06  Tolerance :   1.0000e-07
  Last RMS-Density change    ...    3.2764e-07  Tolerance :   5.0000e-09
  Last Orbital Gradient      ...    2.0148e-06  Tolerance :   1.0000e-05
  Last Orbital Rotation      ...    2.1392e-06  Tolerance :   1.0000e-05

             **** THE GBW FILE WAS UPDATED (fluorocyclohexane_eq.gbw) ****
             **** DENSITY FILE WAS UPDATED (fluorocyclohexane_eq.scfp.tmp) ****
             **** ENERGY FILE WAS UPDATED (fluorocyclohexane_eq.en.tmp) ****
----------------
ORBITAL ENERGIES
----------------

  NO   OCC          E(Eh)            E(eV) 
   0   2.0000     -26.257357      -714.4990 
   1   2.0000     -11.305948      -307.6505 
   2   2.0000     -11.234708      -305.7120 
   3   2.0000     -11.234664      -305.7107 
   4   2.0000     -11.231838      -305.6339 
   5   2.0000     -11.230558      -305.5990 
   6   2.0000     -11.230541      -305.5985 
   7   2.0000      -1.561178       -42.4818 
   8   2.0000      -1.123823       -30.5808 
   9   2.0000      -1.015019       -27.6201 
  10   2.0000      -1.006557       -27.3898 
  11   2.0000      -0.848422       -23.0867 
  12   2.0000      -0.836489       -22.7620 
  13   2.0000      -0.771597       -20.9962 
  14   2.0000      -0.674963       -18.3667 
  15   2.0000      -0.670246       -18.2383 
  16   2.0000      -0.643843       -17.5199 
  17   2.0000      -0.626416       -17.0456 
  18   2.0000      -0.600692       -16.3457 
  19   2.0000      -0.587071       -15.9750 
  20   2.0000      -0.556232       -15.1358 
  21   2.0000      -0.537787       -14.6339 
  22   2.0000      -0.503817       -13.7096 
  23   2.0000      -0.494130       -13.4460 
  24   2.0000      -0.490123       -13.3369 
  25   2.0000      -0.468809       -12.7569 
  26   2.0000      -0.451448       -12.2845 
  27   2.0000      -0.437985       -11.9182 
  28   0.0000       0.171890         4.6774 
  29   0.0000       0.187760         5.1092 
  30   0.0000       0.209642         5.7046 
  31   0.0000       0.220477         5.9995 
  32   0.0000       0.249479         6.7887 
  33   0.0000       0.255333         6.9480 
  34   0.0000       0.259774         7.0688 
  35   0.0000       0.266522         7.2524 
  36   0.0000       0.273544         7.4435 
  37   0.0000       0.285888         7.7794 
  38   0.0000       0.291379         7.9288 
  39   0.0000       0.334164         9.0931 
  40   0.0000       0.366989         9.9863 
  41   0.0000       0.389823        10.6076 
  42   0.0000       0.392023        10.6675 
  43   0.0000       0.435938        11.8625 
  44   0.0000       0.438976        11.9451 
  45   0.0000       0.450887        12.2693 
  46   0.0000       0.578546        15.7430 
  47   0.0000       0.611989        16.6531 
  48   0.0000       0.615304        16.7433 
  49   0.0000       0.625602        17.0235 
  50   0.0000       0.662139        18.0177 
  51   0.0000       0.663898        18.0656 
  52   0.0000       0.702434        19.1142 
  53   0.0000       0.758693        20.6451 
  54   0.0000       0.807359        21.9693 
  55   0.0000       0.827423        22.5153 
  56   0.0000       0.838981        22.8298 
  57   0.0000       0.848890        23.0995 
  58   0.0000       0.852560        23.1993 
  59   0.0000       0.857970        23.3466 
  60   0.0000       0.870301        23.6821 
  61   0.0000       0.878949        23.9174 
  62   0.0000       0.882992        24.0274 
  63   0.0000       0.883673        24.0460 
  64   0.0000       0.893893        24.3241 
  65   0.0000       0.901998        24.5446 
  66   0.0000       0.903383        24.5823 
  67   0.0000       0.914583        24.8871 
  68   0.0000       0.923951        25.1420 
  69   0.0000       0.924948        25.1691 
  70   0.0000       0.933524        25.4025 
  71   0.0000       0.936083        25.4721 
  72   0.0000       0.952641        25.9227 
  73   0.0000       1.079434        29.3729 
  74   0.0000       1.116381        30.3783 
  75   0.0000       1.133278        30.8381 
  76   0.0000       1.221283        33.2328 
  77   0.0000       1.221682        33.2437 
  78   0.0000       1.304923        35.5088 
  79   0.0000       1.343548        36.5598 
  80   0.0000       1.397060        38.0159 
  81   0.0000       1.414075        38.4789 
  82   0.0000       1.447170        39.3795 
  83   0.0000       1.473528        40.0967 
  84   0.0000       1.478031        40.2193 
  85   0.0000       1.495676        40.6994 
  86   0.0000       1.593892        43.3720 
  87   0.0000       1.635934        44.5160 
  88   0.0000       1.638431        44.5840 
  89   0.0000       1.653801        45.0022 
  90   0.0000       1.665562        45.3223 
  91   0.0000       1.705332        46.4044 
  92   0.0000       1.749146        47.5967 
  93   0.0000       1.750144        47.6238 
  94   0.0000       1.848052        50.2881 
  95   0.0000       1.860224        50.6193 
  96   0.0000       1.879989        51.1571 
  97   0.0000       1.881071        51.1865 
  98   0.0000       1.882850        51.2349 
  99   0.0000       1.890276        51.4370 
 100   0.0000       1.896563        51.6081 
 101   0.0000       1.903832        51.8059 
 102   0.0000       1.930972        52.5444 
 103   0.0000       1.935838        52.6768 
 104   0.0000       1.955573        53.2138 
 105   0.0000       1.957504        53.2664 
 106   0.0000       1.969488        53.5925 
 107   0.0000       1.989163        54.1279 
 108   0.0000       2.013725        54.7962 
 109   0.0000       2.023782        55.0699 
 110   0.0000       2.024653        55.0936 
 111   0.0000       2.028111        55.1877 
 112   0.0000       2.036234        55.4087 
 113   0.0000       2.081869        56.6505 
 114   0.0000       2.092400        56.9371 
 115   0.0000       2.111896        57.4676 
 116   0.0000       2.146092        58.3981 
 117   0.0000       2.146146        58.3996 
 118   0.0000       2.195029        59.7298 
 119   0.0000       2.208336        60.0919 
 120   0.0000       2.268174        61.7201 
 121   0.0000       2.287227        62.2386 
 122   0.0000       2.306060        62.7511 
 123   0.0000       2.317036        63.0498 
 124   0.0000       2.380178        64.7679 
 125   0.0000       2.401668        65.3527 
 126   0.0000       2.465923        67.1012 
 127   0.0000       2.467408        67.1416 
 128   0.0000       2.523409        68.6655 
 129   0.0000       2.536069        69.0100 
 130   0.0000       2.544853        69.2490 
 131   0.0000       2.550389        69.3996 
 132   0.0000       2.582590        70.2759 
 133   0.0000       2.605091        70.8881 
 134   0.0000       2.648630        72.0729 
 135   0.0000       2.681146        72.9577 
 136   0.0000       2.734419        74.4073 
 137   0.0000       2.775327        75.5205 
 138   0.0000       2.842510        77.3486 
 139   0.0000       2.859687        77.8160 
 140   0.0000       2.877677        78.3056 
 141   0.0000       2.909399        79.1688 
 142   0.0000       2.929709        79.7214 
 143   0.0000       2.987984        81.3072 
 144   0.0000       3.010093        81.9088 
 145   0.0000       3.023269        82.2673 
 146   0.0000       3.077194        83.7347 
 147   0.0000       3.119864        84.8958 
 148   0.0000       4.052527       110.2749 
 149   0.0000       4.058137       110.4275 
 150   0.0000       4.267730       116.1308 
 151   0.0000       4.281043       116.4931 
 152   0.0000       4.512986       122.8046 

                    ********************************
                    * MULLIKEN POPULATION ANALYSIS *
                    ********************************

-----------------------
MULLIKEN ATOMIC CHARGES
-----------------------
   0 C :   -0.036306
   1 C :    0.279649
   2 C :   -0.036308
   3 C :   -0.065921
   4 C :   -0.041269
   5 C :   -0.065924
   6 F :   -0.382425
   7 H :    0.037915
   8 H :    0.036531
   9 H :    0.032886
  10 H :    0.028725
  11 H :    0.028590
  12 H :    0.020643
  13 H :    0.032886
  14 H :    0.027940
  15 H :    0.036531
  16 H :    0.037916
  17 H :    0.027943
Sum of atomic charges:   -0.0000000

--------------------------------
MULLIKEN REDUCED ORBITAL CHARGES
--------------------------------
  0 C s       :     3.069955  s :     3.069955
      pz      :     0.998083  p :     2.886788
      px      :     0.934178
      py      :     0.954527
      dz2     :     0.021701  d :     0.079563
      dxz     :     0.011335
      dyz     :     0.009649
      dx2y2   :     0.017521
      dxy     :     0.019357
  1 C s       :     3.066449  s :     3.066449
      pz      :     0.950143  p :     2.503515
      px      :     0.575713
      py      :     0.977659
      dz2     :     0.035796  d :     0.150387
      dxz     :     0.023916
      dyz     :     0.015478
      dx2y2   :     0.040954
      dxy     :     0.034243
  2 C s       :     3.069952  s :     3.069952
      pz      :     0.998087  p :     2.886792
      px      :     0.934179
      py      :     0.954526
      dz2     :     0.021701  d :     0.079564
      dxz     :     0.011336
      dyz     :     0.009649
      dx2y2   :     0.017521
      dxy     :     0.019357
  3 C s       :     3.078510  s :     3.078510
      pz      :     0.985097  p :     2.904632
      px      :     0.946388
      py      :     0.973147
      dz2     :     0.022926  d :     0.082780
      dxz     :     0.010759
      dyz     :     0.009546
      dx2y2   :     0.020170
      dxy     :     0.019377
  4 C s       :     3.071318  s :     3.071318
      pz      :     0.983238  p :     2.887208
      px      :     0.971413
      py      :     0.932557
      dz2     :     0.023605  d :     0.082744
      dxz     :     0.006809
      dyz     :     0.013045
      dx2y2   :     0.021699
      dxy     :     0.017585
  5 C s       :     3.078511  s :     3.078511
      pz      :     0.985096  p :     2.904632
      px      :     0.946392
      py      :     0.973145
      dz2     :     0.022927  d :     0.082781
      dxz     :     0.010759
      dyz     :     0.009546
      dx2y2   :     0.020170
      dxy     :     0.019378
  6 F s       :     3.931351  s :     3.931351
      pz      :     1.910922  p :     5.446100
      px      :     1.587867
      py      :     1.947312
      dz2     :     0.000684  d :     0.004973
      dxz     :     0.001370
      dyz     :     0.000074
      dx2y2   :     0.002045
      dxy     :     0.000801
  7 H s       :     0.932136  s :     0.932136
      pz      :     0.006926  p :     0.029948
      px      :     0.007985
      py      :     0.015038
  8 H s       :     0.934159  s :     0.934159
      pz      :     0.020812  p :     0.029310
      px      :     0.004322
      py      :     0.004177
  9 H s       :     0.937677  s :     0.937677
      pz      :     0.007149  p :     0.029437
      px      :     0.007133
      py      :     0.015155
 10 H s       :     0.942530  s :     0.942530
      pz      :     0.020603  p :     0.028745
      px      :     0.004448
      py      :     0.003695
 11 H s       :     0.942044  s :     0.942044
      pz      :     0.006321  p :     0.029366
      px      :     0.019172
      py      :     0.003873
 12 H s       :     0.951347  s :     0.951347
      pz      :     0.021814  p :     0.028010
      px      :     0.002106
      py      :     0.004090
 13 H s       :     0.937677  s :     0.937677
      pz      :     0.007149  p :     0.029437
      px      :     0.007133
      py      :     0.015155
 14 H s       :     0.943315  s :     0.943315
      pz      :     0.020416  p :     0.028744
      px      :     0.003960
      py      :     0.004368
 15 H s       :     0.934159  s :     0.934159
      pz      :     0.020812  p :     0.029310
      px      :     0.004322
      py      :     0.004177
 16 H s       :     0.932136  s :     0.932136
      pz      :     0.006926  p :     0.029948
      px      :     0.007984
      py      :     0.015038
 17 H s       :     0.943313  s :     0.943313
      pz      :     0.020416  p :     0.028745
      px      :     0.003961
      py      :     0.004368


                     *******************************
                     * LOEWDIN POPULATION ANALYSIS *
                     *******************************

----------------------
LOEWDIN ATOMIC CHARGES
----------------------
   0 C :   -0.034320
   1 C :    0.062892
   2 C :   -0.034323
   3 C :   -0.032189
   4 C :   -0.033296
   5 C :   -0.032192
   6 F :   -0.131808
   7 H :    0.025813
   8 H :    0.023349
   9 H :    0.023818
  10 H :    0.018301
  11 H :    0.021867
  12 H :    0.013752
  13 H :    0.023818
  14 H :    0.017679
  15 H :    0.023348
  16 H :    0.025812
  17 H :    0.017679

-------------------------------
LOEWDIN REDUCED ORBITAL CHARGES
-------------------------------
  0 C s       :     2.795630  s :     2.795630
      pz      :     1.033631  p :     3.038722
      px      :     0.997547
      py      :     1.007543
      dz2     :     0.056428  d :     0.199969
      dxz     :     0.026237
      dyz     :     0.023669
      dx2y2   :     0.044095
      dxy     :     0.049540
  1 C s       :     2.815372  s :     2.815372
      pz      :     1.008882  p :     2.766811
      px      :     0.719971
      py      :     1.037958
      dz2     :     0.088193  d :     0.354925
      dxz     :     0.056481
      dyz     :     0.033205
      dx2y2   :     0.094181
      dxy     :     0.082865
  2 C s       :     2.795628  s :     2.795628
      pz      :     1.033632  p :     3.038725
      px      :     0.997548
      py      :     1.007544
      dz2     :     0.056428  d :     0.199971
      dxz     :     0.026237
      dyz     :     0.023669
      dx2y2   :     0.044095
      dxy     :     0.049542
  3 C s       :     2.793422  s :     2.793422
      pz      :     1.030486  p :     3.035133
      px      :     0.992336
      py      :     1.012311
      dz2     :     0.058060  d :     0.203634
      dxz     :     0.024974
      dyz     :     0.023357
      dx2y2   :     0.048580
      dxy     :     0.048663
  4 C s       :     2.793486  s :     2.793486
      pz      :     1.028526  p :     3.035307
      px      :     1.014439
      py      :     0.992343
      dz2     :     0.060528  d :     0.204502
      dxz     :     0.016677
      dyz     :     0.029448
      dx2y2   :     0.055337
      dxy     :     0.042513
  5 C s       :     2.793421  s :     2.793421
      pz      :     1.030483  p :     3.035134
      px      :     0.992338
      py      :     1.012313
      dz2     :     0.058062  d :     0.203637
      dxz     :     0.024973
      dyz     :     0.023356
      dx2y2   :     0.048580
      dxy     :     0.048665
  6 F s       :     3.721291  s :     3.721291
      pz      :     1.896344  p :     5.404382
      px      :     1.584577
      py      :     1.923461
      dz2     :     0.000840  d :     0.006134
      dxz     :     0.001675
      dyz     :     0.000102
      dx2y2   :     0.002429
      dxy     :     0.001088
  7 H s       :     0.894864  s :     0.894864
      pz      :     0.019626  p :     0.079323
      px      :     0.023058
      py      :     0.036640
  8 H s       :     0.897633  s :     0.897633
      pz      :     0.047470  p :     0.079017
      px      :     0.016031
      py      :     0.015517
  9 H s       :     0.897327  s :     0.897327
      pz      :     0.019913  p :     0.078855
      px      :     0.022038
      py      :     0.036904
 10 H s       :     0.903488  s :     0.903488
      pz      :     0.046709  p :     0.078211
      px      :     0.015541
      py      :     0.015961
 11 H s       :     0.899526  s :     0.899526
      pz      :     0.018340  p :     0.078607
      px      :     0.044067
      py      :     0.016200
 12 H s       :     0.910340  s :     0.910340
      pz      :     0.051114  p :     0.075908
      px      :     0.008395
      py      :     0.016399
 13 H s       :     0.897328  s :     0.897328
      pz      :     0.019912  p :     0.078854
      px      :     0.022038
      py      :     0.036904
 14 H s       :     0.903963  s :     0.903963
      pz      :     0.046231  p :     0.078358
      px      :     0.016165
      py      :     0.015962
 15 H s       :     0.897634  s :     0.897634
      pz      :     0.047470  p :     0.079018
      px      :     0.016031
      py      :     0.015517
 16 H s       :     0.894864  s :     0.894864
      pz      :     0.019626  p :     0.079324
      px      :     0.023058
      py      :     0.036640
 17 H s       :     0.903962  s :     0.903962
      pz      :     0.046232  p :     0.078359
      px      :     0.016165
      py      :     0.015962


                      *****************************
                      * MAYER POPULATION ANALYSIS *
                      *****************************

  NA   - Mulliken gross atomic population
  ZA   - Total nuclear charge
  QA   - Mulliken gross atomic charge
  VA   - Mayer's total valence
  BVA  - Mayer's bonded valence
  FA   - Mayer's free valence

  ATOM       NA         ZA         QA         VA         BVA        FA
  0 C      6.0363     6.0000    -0.0363     3.9732     3.9732    -0.0000
  1 C      5.7204     6.0000     0.2796     3.8929     3.8929    -0.0000
  2 C      6.0363     6.0000    -0.0363     3.9732     3.9732    -0.0000
  3 C      6.0659     6.0000    -0.0659     3.9890     3.9890     0.0000
  4 C      6.0413     6.0000    -0.0413     3.9842     3.9842    -0.0000
  5 C      6.0659     6.0000    -0.0659     3.9890     3.9890    -0.0000
  6 F      9.3824     9.0000    -0.3824     0.9109     0.9109    -0.0000
  7 H      0.9621     1.0000     0.0379     0.9754     0.9754    -0.0000
  8 H      0.9635     1.0000     0.0365     0.9745     0.9745    -0.0000
  9 H      0.9671     1.0000     0.0329     0.9717     0.9717    -0.0000
 10 H      0.9713     1.0000     0.0287     0.9648     0.9648    -0.0000
 11 H      0.9714     1.0000     0.0286     0.9712     0.9712    -0.0000
 12 H      0.9794     1.0000     0.0206     0.9673     0.9673     0.0000
 13 H      0.9671     1.0000     0.0329     0.9717     0.9717     0.0000
 14 H      0.9721     1.0000     0.0279     0.9651     0.9651     0.0000
 15 H      0.9635     1.0000     0.0365     0.9745     0.9745     0.0000
 16 H      0.9621     1.0000     0.0379     0.9754     0.9754    -0.0000
 17 H      0.9721     1.0000     0.0279     0.9651     0.9651    -0.0000

  Mayer bond orders larger than 0.1
B(  0-C ,  1-C ) :   1.0377 B(  0-C ,  5-C ) :   1.0337 B(  0-C , 15-H ) :   0.9595 
B(  0-C , 16-H ) :   0.9688 B(  1-C ,  2-C ) :   1.0377 B(  1-C ,  6-F ) :   0.8580 
B(  1-C , 12-H ) :   0.9611 B(  2-C ,  3-C ) :   1.0337 B(  2-C ,  7-H ) :   0.9688 
B(  2-C ,  8-H ) :   0.9595 B(  3-C ,  4-C ) :   1.0402 B(  3-C ,  9-H ) :   0.9717 
B(  3-C , 17-H ) :   0.9643 B(  4-C ,  5-C ) :   1.0402 B(  4-C , 10-H ) :   0.9653 
B(  4-C , 11-H ) :   0.9723 B(  5-C , 13-H ) :   0.9717 B(  5-C , 14-H ) :   0.9643 


-------
TIMINGS
-------

Total SCF time: 0 days 0 hours 0 min 6 sec 

Total time                  ....       6.341 sec
Sum of individual times     ....       6.167 sec  ( 97.3%)

Fock matrix formation       ....       6.088 sec  ( 96.0%)
Diagonalization             ....       0.009 sec  (  0.1%)
Density matrix formation    ....       0.002 sec  (  0.0%)
Population analysis         ....       0.006 sec  (  0.1%)
Initial guess               ....       0.047 sec  (  0.7%)
Orbital Transformation      ....       0.000 sec  (  0.0%)
Orbital Orthonormalization  ....       0.000 sec  (  0.0%)
DIIS solution               ....       0.000 sec  (  0.0%)
SOSCF solution              ....       0.014 sec  (  0.2%)


           ************************************************************
           *        Program running with 4 parallel MPI-processes     *
           *              working on a common directory               *
           ************************************************************


------------------------------------------------------------------------------- 
                              ORCA-MATRIX DRIVEN CI                            
------------------------------------------------------------------------------- 


Wavefunction type
-----------------
Correlation treatment                      ...      CCSD     
Single excitations                         ... ON
Orbital optimization                       ... OFF
Calculation of Z vector                    ... OFF
Calculation of Brueckner orbitals          ... OFF
Perturbative triple excitations            ... ON
Calculation of F12 correction              ... OFF
Frozen core treatment                      ... chemical core (14 el)
Reference Wavefunction                     ... RHF
  Internal Orbitals:     7 ...   27 ( 21 MO's/ 42 electrons)
  Virtual  Orbitals:    28 ...  152 (125 MO's              )
Number of AO's                             ...    153
Number of electrons                        ...     56
Number of correlated electrons             ...     42

Algorithmic settings
--------------------
Integral transformation                    ... All integrals via the RI transformation
K(C) Formation                             ... RI-DLPNO
   PNO-Integral Storage                    ... ON DISK
   PNO occupation number cut-off           ... 1.000e-07
   Singles PNO occupation number cut-off   ... 3.000e-09
   PNO Mulliken prescreening cut-off       ... 1.000e-03
   Domain cut-off (Mulliken population)    ... 1.000e-03
   PNO Normalization                       ...    1
Maximum number of iterations               ...        50
Convergence tolerance (max. residuum)      ... 1.000e-05
Level shift for amplitude update           ... 2.000e-01
Maximum number of DIIS vectors             ...         7
DIIS turned on at iteration                ...         0
Damping before turning on DIIS             ...     0.500
Damping after turning on DIIS              ...     0.000
Pair specific amplitude update             ... OFF
Natural orbital iterations                 ... OFF
Perturbative natural orbital generation    ... OFF
Printlevel                                 ... 2

Singles Fock matrix elements calculated using PNOs.

Memory handling:
----------------
Maximum memory for working arrays          ...   8000 MB
Data storage in matrix containers          ... UNCOMPRESSED
Data type for integral storage             ... DOUBLE
In-Core Storage of quantities:
   Amplitudes+Sigma Vector      ... NO
   J+K operators                ... NO
   DIIS vectors                 ... NO
   3-external integrals         ... NO
   4-external integrals         ... NO

Localization treatment:
-----------------------
Localization option                        ...    6
Localization threshhold                    ... -1.0e+00
Using relative localization threshhold     ... 1.0e-08
Neglect threshold for strong pairs         ... 1.000e-05 Eh
Prescreening threshold for very weak pairs ... 1.000e-07 Eh

Initializing the integral package          ... done
Localizing the valence orbitals
------------------------------------------------------------------------------
                           ORCA ORBITAL LOCALIZATION
------------------------------------------------------------------------------

Input orbitals are from                  ... fluorocyclohexane_eq.proc0.gbw
Output orbitals are to                   ... fluorocyclohexane_eq.proc0.loc
Max. number of iterations                ... 128
Localizations seeded randomly            ... off
Convergence tolerance                    ... 1.000e-06
Using relative localization threshhold   ... 1.000e-08
Treshold for strong local MOs            ... 9.500e-01
Treshold for bond MOs                    ... 8.500e-01
Operator                                 ... 0
Orbital range for localization           ... 7 to 27
Localization criterion                   ... FOSTER-BOYS (AUGMENTED HESSIAN)
Doing the dipole integrals     ... o.k.
Initial value of the localization sum :   264.950362
ITERATION   0 : L=  279.0225235172 DL=  1.41e+01 (AVERGE_DL)=    0.2588634638 
ITERATION   1 : L=  280.7959969196 DL=  1.77e+00 (AVERGE_DL)=    0.0918972874 
ITERATION   2 : L=  280.8148629472 DL=  1.89e-02 (AVERGE_DL)=    0.0094783029 
ITERATION   3 : L=  280.8160869863 DL=  1.22e-03 (AVERGE_DL)=    0.0024142820 
ITERATION   4 : L=  280.8161811014 DL=  9.41e-05 (AVERGE_DL)=    0.0006694530 
ITERATION   5 : L=  280.8161917407 DL=  1.06e-05 (AVERGE_DL)=    0.0002250855 
ITERATION   6 : L=  280.8161940514 DL=  2.31e-06 (AVERGE_DL)=    0.0001048960 
ITERATION   7 : L=  280.8161953331 DL=  1.28e-06 (AVERGE_DL)=    0.0000781235 
ITERATION   8 : L=  280.8161964797 DL=  1.15e-06 (AVERGE_DL)=    0.0000738920 
ITERATION   9 : L=  280.8161975956 DL=  1.12e-06 (AVERGE_DL)=    0.0000728971 
ITERATION  10 : L=  280.8161987046 DL=  1.11e-06 (AVERGE_DL)=    0.0000726684 
ITERATION  11 : L=  280.8161998124 DL=  1.11e-06 (AVERGE_DL)=    0.0000726316 
ITERATION  12 : L=  280.8162009214 DL=  1.11e-06 (AVERGE_DL)=    0.0000726712 
ITERATION  13 : L=  280.8162020313 DL=  1.11e-06 (AVERGE_DL)=    0.0000726982 
ITERATION  14 : L=  280.8162031424 DL=  1.11e-06 (AVERGE_DL)=    0.0000727392 
ITERATION  15 : L=  280.8162042550 DL=  1.11e-06 (AVERGE_DL)=    0.0000727878 
ITERATION  16 : L=  280.8162053675 DL=  1.11e-06 (AVERGE_DL)=    0.0000727854 
DETECTED SLOW CONVERGENCE - QUITTING

------------------------------------------------------
AUGMENTED HESSIAN OPTIMIZATION OF FOSTER-BOYS ORBITALS
------------------------------------------------------

Spin operator:           0
Orbital window:          7 to 27
Number of iterations:    128
Gradient tolerance:      1.000e-06
Number of pairs:         210
Davidson threshold:      2000
Diagonalization method:  LAPACK
Iter:    0   L: 280.8162053675   Grad. norm: 1.820606e-03
Iter:    1   L: 280.8163853652   Grad. norm: 7.780881e-03
Iter:    2   L: 280.8165165726   Grad. norm: 1.195756e-02
Iter:    3   L: 280.8165563867   Grad. norm: 5.958438e-03
   *** Likely close to a maximum now. ***
       Augmented Hessian eigenvalues:  6.97e-07 -2.85e-03 -1.47e+00 -1.48e+00 ... 
Iter:    4   L: 280.8165567352   Grad. norm: 7.532827e-07
LOCALIZATION HAS CONVERGED.

Eigenvalues of the Hessian:
  0 -2.804e-03
  1 -1.472e+00
  2 -1.476e+00
  3 -3.613e+00
  4 -3.619e+00
  5 -5.719e+00
  6 -1.771e+01
  7 -1.778e+01
  8 -1.784e+01
  9 -1.785e+01
    ...


------------------------------------------------------------------------------- 
                    LOCALIZED MOLECULAR ORBITAL COMPOSITIONS                   
------------------------------------------------------------------------------- 

The Mulliken populations for each LMO on each atom are computed
The LMO`s will be ordered according to atom index and type
  (A) Strongly localized MO`s have populations of >=0.950 on one atom
  (B) Two center bond orbitals have populations of >=0.850 on two atoms
  (C) Other MO`s are considered to be `delocalized`

FOUND  -   3 strongly local MO`s
       -  18 two center bond MO`s
       -   0 significantly delocalized MO`s

Rather strongly localized orbitals:
MO   9:   6F  -   0.990147
MO   8:   6F  -   0.985309
MO   7:   6F  -   0.985308
Bond-like localized orbitals:
MO  27:  17H  -   0.507339  and   3C  -   0.505288
MO  26:  16H  -   0.497024  and   0C  -   0.510742
MO  25:  15H  -   0.498863  and   0C  -   0.509773
MO  24:  14H  -   0.507341  and   5C  -   0.505287
MO  23:  13H  -   0.501343  and   5C  -   0.508104
MO  22:  12H  -   0.508916  and   1C  -   0.507882
MO  21:  11H  -   0.503917  and   4C  -   0.506670
MO  20:  10H  -   0.506986  and   4C  -   0.506135
MO  19:   9H  -   0.501343  and   3C  -   0.508103
MO  18:   8H  -   0.498862  and   2C  -   0.509773
MO  17:   7H  -   0.497024  and   2C  -   0.510743
MO  16:   6F  -   0.749520  and   1C  -   0.250977
MO  15:   5C  -   0.525405  and   4C  -   0.520934
MO  14:   5C  -   0.526768  and   0C  -   0.514607
MO  13:   4C  -   0.520934  and   3C  -   0.525406
MO  12:   3C  -   0.526764  and   2C  -   0.514610
MO  11:   2C  -   0.516300  and   1C  -   0.537613
MO  10:   1C  -   0.537612  and   0C  -   0.516302
Localized MO's were stored in: fluorocyclohexane_eq.proc0.loc

Localizing the core orbitals
------------------------------------------------------------------------------
                           ORCA ORBITAL LOCALIZATION
------------------------------------------------------------------------------

Input orbitals are from                  ... fluorocyclohexane_eq.proc0.loc
Output orbitals are to                   ... fluorocyclohexane_eq.proc0.loc
Max. number of iterations                ... 128
Localizations seeded randomly            ... off
Convergence tolerance                    ... 1.000e-06
Using relative localization threshhold   ... 1.000e-08
Treshold for strong local MOs            ... 9.500e-01
Treshold for bond MOs                    ... 8.500e-01
Operator                                 ... 0
Orbital range for localization           ... 0 to 6
Localization criterion                   ... FOSTER-BOYS (AUGMENTED HESSIAN)
Doing the dipole integrals     ... o.k.
Initial value of the localization sum :    70.725950
ITERATION   0 : L=   70.7259670341 DL=  1.73e-05 (AVERGE_DL)=    0.0009069089 
ITERATION   1 : L=   70.7259670341 DL=  0.00e+00 (AVERGE_DL)=    0.0000000000 
LOCALIZATION SUM CONVERGED

------------------------------------------------------
AUGMENTED HESSIAN OPTIMIZATION OF FOSTER-BOYS ORBITALS
------------------------------------------------------

Spin operator:           0
Orbital window:          0 to 6
Number of iterations:    128
Gradient tolerance:      1.000e-06
Number of pairs:         21
Davidson threshold:      2000
Diagonalization method:  LAPACK
Iter:    0   L: 70.7259670341   Grad. norm: 6.179980e-06
   *** Likely close to a maximum now. ***
       Augmented Hessian eigenvalues:  4.06e-13 -2.87e+01 -3.31e+01 -3.31e+01 ... 
Iter:    1   L: 70.7259670341   Grad. norm: 9.250849e-19
LOCALIZATION HAS CONVERGED.

Eigenvalues of the Hessian:
  0 -2.872e+01
  1 -3.314e+01
  2 -3.314e+01
  3 -3.377e+01
  4 -3.377e+01
  5 -3.389e+01
  6 -3.389e+01
  7 -8.194e+01
  8 -8.194e+01
  9 -9.064e+01
    ...


------------------------------------------------------------------------------- 
                    LOCALIZED MOLECULAR ORBITAL COMPOSITIONS                   
------------------------------------------------------------------------------- 

The Mulliken populations for each LMO on each atom are computed
The LMO`s will be ordered according to atom index and type
  (A) Strongly localized MO`s have populations of >=0.950 on one atom
  (B) Two center bond orbitals have populations of >=0.850 on two atoms
  (C) Other MO`s are considered to be `delocalized`

FOUND  -   7 strongly local MO`s
       -   0 two center bond MO`s
       -   0 significantly delocalized MO`s

Rather strongly localized orbitals:
MO   6:   6F  -   0.999738
MO   5:   5C  -   0.999245
MO   4:   4C  -   0.999236
MO   3:   3C  -   0.999245
MO   2:   2C  -   0.999195
MO   1:   1C  -   0.999116
MO   0:   0C  -   0.999195
Localized MO's were stored in: fluorocyclohexane_eq.proc0.loc

Warning: internal orbitals are localized - no re-canonicalization of internal orbitals

--------------------------
CLOSED-SHELL FOCK OPERATOR
--------------------------

RI-JK section for the Fock operator:
  RHF full Fock operator         ... done
  RHF frozen core Fock operator  ... done
Time needed for Fock operator              ...            1.435 sec
Reference energy                           ...   -333.084378167

--------------
DLPNO SETTINGS (2015 fully linear scaling implementation)
--------------

TCutMKN:           1.000e-03
TCutPAO:           1.000e-03
TCutPNO:           1.000e-07
TCutPNOSingles:    3.000e-09
TCutEN:            9.700e-01
TCutPAOExt:        1.000e-01
TCutPairs:         1.000e-05
TCutPre:           1.000e-07
TCutOSV:           1.000e-06
TCutDOij:          1.000e-05
TCutDO:            5.000e-03
TCutC:             1.000e-04
TCutCPAO:          1.000e-03
TCutCMO:           1.000e-03
TScaleDOMP2PreScr: 2.000e+00
TScaleMKNMP2PreScr:1.000e+01
TScalePNOMP2PreScr:1.000e+00
PAO overlap thresh 1.000e-08
Using PNOs for Singles Fock computation
Use new domains
Use fully linear algorithm
TCutTNO:           1.000e-09
TCutMP2Pairs:      1.000e-06
TCutDOStrong:      2.000e-03
TCutMKNStrong:     1.000e-02
TCutMKNWeak:       1.000e-01
TCutDOWeak:        4.000e-03
NTCutTNO:          1

--------------------------
Calculating differential overlap integrals ... ok
--------------------------
ELECTRON PAIR PRESCREENING
--------------------------

Dipole-based pair screening          .... used

   TCutDOij = 1.000000e-05
   TCutPre  = 1.000000e-07
   .... Finished loop over pairs
Total time spent in the prescreening                  ...     0.000 sec
sum of pair energies estimated for screened out pairs ...       0.000000000000 Eh
Thresholds for map construction and integral transformation for crude MP2:
   TCutMKN                    ...     1.0e-02
   TCutDO                     ...     1.0e-02
   TCutPairs                  ...     1.0e-05
   TCutPNO_CrudeMP2           ...     1.0e-07
   TCutPNOSingles_CrudeMP2    ...     3.0e-09
--------------------------------
LOCAL RI TRANSFORMATION (IAVPAO)
--------------------------------

Orbital window:       7 to 27
Number of PAOs:     153
Basis functions:    153 (75 shells)
Aux. functions:     546 (192 shells)

Processing maps (0.0 sec)
Average map sizes:
   Aux shells -> MOs              21.0
   Aux shells -> PAOs            153.0
   MOs        -> AO shells        73.6
   PAOs       -> AO shells        75.0

Calculating integrals (0.4 sec, 13.390 MB)
Sorting integrals (0.0 sec, 13.384 MB)
Total time for the integral transformation: 0.5 sec
--------------------------------
INITIAL GUESS AND PNO GENERATION
--------------------------------

PNO truncation parameters                   .... 
    PAOOverlapThresh   =        1.000e-08

    TCutPairs          =        1.000e-05
    TCutPNO            =        1.000e-07
    TCutPNOSingles     =        3.000e-09
    TCutMP2Pairs       =        1.000e-06
    TCutMKN            =        1.000e-02
    TCutDO             =        1.000e-02

Pair selection                          .... not used
Type of local MP2 treatment                 .... semi-local MP2
Strategy for PNO selection                  .... occupation number selection
Pair density normalization                  .... MP2 norm
Spin component scaling                      .... not used

   .... Finished loop over pairs
Making pair pair interaction lists          ... done

                       ===========================
                        225 OF  231 PAIRS ARE KEPT CCSD PAIRS
                          6 OF  231 PAIRS ARE KEPT MP2 PAIRS FOR (T)
                          0 OF  231 PAIRS ARE SKIPPED
                       ===========================

Total time spent in the initial guess                 ...     0.659 sec
SL-MP2 correlation energy (all non-screened pairs)    ...      -0.996540166702 Eh

Initial PNO correlation energy                        ...      -0.995996616615 Eh
sum of pair energies prescreened and skipped MP2 pairs...       0.000000000000 Eh
sum of pair energies of crude MP2 skipped pairs only  ...       0.000000000000 Eh
sum of MP2 pair energies for pairs that were not kept ...      -0.000043091712 Eh
sum of PNO error estimates for the kept pairs         ...      -0.000500458375 Eh
                                                          --------------------
sum of all corrections                                         -0.000543550087
Initial total correlation energy                               -0.996540166702
Thresholds for map construction and integral transformation for fine MP2 and CCSD(T) calculation:
   TCutMKN   ...     1.0e-03
   TCutDO    ...     5.0e-03
   TCutPairs ...     1.0e-05
   TCutCMO   ...     1.0e-03
   TCutCPAO  ...     1.0e-03

Thresholds for map construction and integral transformation for strong Triples:
   TCutMKN   ...     1.0e-02
   TCutDO    ...     1.0e-02
   TCutCMO   ...     1.0e-03
   TCutCPAO  ...     1.0e-03

Thresholds for map construction and integral transformation for weak Triples:
   TCutMKN   ...     1.0e-01
   TCutDO    ...     2.0e-02
   TCutCMO   ...     1.0e-03
   TCutCPAO  ...     1.0e-03

--------------------------------
LOCAL RI TRANSFORMATION (IAVPAO)
--------------------------------

Orbital window:       7 to 27
Number of PAOs:     153
Basis functions:    153 (75 shells)
Aux. functions:     546 (192 shells)

Processing maps (0.0 sec)
Average map sizes:
   Aux shells -> MOs              21.0
   Aux shells -> PAOs            153.0
   MOs        -> AO shells        73.6
   PAOs       -> AO shells        75.0

Calculating integrals (0.4 sec, 13.390 MB)
Sorting integrals (0.0 sec, 13.384 MB)
Total time for the integral transformation: 0.4 sec
--------------------------------
INITIAL GUESS AND PNO GENERATION
--------------------------------

PNO truncation parameters                   .... 
    ScaleTCutPNO       =        1.000e-02
    PAOOverlapThresh   =        1.000e-08

    TCutPairs          =        1.000e-05
    TCutPNO            =        1.000e-07
    TCutPNOSingles     =        3.000e-09
    TCutMP2Pairs       =        1.000e-06
    TCutMKN            =        1.000e-03
    TCutDO             =        5.000e-03

Pair selection                          .... not used
Type of local MP2 treatment                 .... full local PMP2
Strategy for PNO selection                  .... occupation number selection
Pair density normalization                  .... MP2 norm
Spin component scaling                      .... not used

PASS-1: Formation of initial guess LMP2 amplitudes
Initial amplitudes guess done. Entering LMP2 iteration loop:
   Max. no of iterations          ...  50
   Energy convergence tolerance   ...    1.0e-07
   Residual convergence tolerance ...    5.0e-07
   Fock matrix cutoff             ...    1.0e-05 Eh
   DIIS convergence acceleration parameters:
        Max # vectors in DIIS     ... 7
        Start iteration of DIIS   ... 0
        Levelshift                ... 2.000e-01
        Damping factor 1          ... 5.000e-01
        Damping factor 2          ... 1.000e+00
   L-MP2 PNO cut-off              ...   1.0e-09
   L-MP2 PNO cut-off (core)       ...   1.0e-11
                           *** Turning on DIIS ***
LMP2-Iter=   0:  ELMP2= -1.019235251021  DE=   2.2e-02 RMAX=   6.5e-03
LMP2-Iter=   1:  ELMP2= -1.029799781215  DE=   1.1e-02 RMAX=   6.1e-03
LMP2-Iter=   2:  ELMP2= -1.031382795514  DE=   1.6e-03 RMAX=   8.0e-04
LMP2-Iter=   3:  ELMP2= -1.031561386568  DE=   1.8e-04 RMAX=   5.3e-04
LMP2-Iter=   4:  ELMP2= -1.031575660402  DE=   1.4e-05 RMAX=   3.1e-05
LMP2-Iter=   5:  ELMP2= -1.031574290496  DE=   1.4e-06 RMAX=   1.9e-05
LMP2-Iter=   6:  ELMP2= -1.031573982267  DE=   3.1e-07 RMAX=   8.5e-07
LMP2-Iter=   7:  ELMP2= -1.031573943780  DE=   3.8e-08 RMAX=   3.9e-07
LMP2-Iter=   8:  ELMP2= -1.031573948731  DE=   5.0e-09 RMAX=   2.6e-08 => CONVERGED
PASS-2: Formation of Pair natural orbitals
   .... Finished loop over pairs

 PNO Occupation Number Statistics: 
  | Av. % of trace(Dij) retained        ...  99.445446543179
  | sigma^2 in % of trace(Dij) retained ...   8.34e-01
  | Av. % of trace(Di) retained         ...  99.999853900840
  | sigma^2 in % of trace(Di) retained  ...   8.73e-10
 Distributions of % trace(Dij) recovered:
  |       >= 99.9  ...   100 ( 43.3 % of all pairs)
  |   [90.0, 99.0) ...    37 ( 16.0 % of all pairs)
  |   [99.0, 99.9) ...    94 ( 40.7 % of all pairs)
 Distributions of % trace(Di) recovered :
  |       >= 99.9  ...    21 (100.0 % of all I-pairs )

Making pair pair interaction lists          ... done

                       ===========================
                        225 OF  231 PAIRS ARE KEPT
                       ===========================

Total time spent in the initial guess                 ...     5.109 sec
L-MP2 correlation energy (all non-screened pairs)     ...      -1.031573948731 Eh
L-MP2 PNO error correction                            ...      -0.000008281461 Eh
                                                          --------------------
Initial total L-MP2 energy (non-screened pairs)       ...      -1.031582230192 Eh

Initial PNO correlation energy                        ...      -1.031106649564 Eh
sum of pair energies estimated for screened out pairs ...       0.000000000000 Eh
sum of MP2 pair energies for pairs that were not kept ...      -0.000053524599 Eh
sum of PNO error estimates for the kept pairs         ...      -0.000441719433 Eh
                                                          --------------------
sum of all corrections                                         -0.000495244032
Initial total correlation energy                               -1.031601893595
Thresholds for map construction and integral transformation for fine MP2 and CCSD(T) calculation:
   TCutMKN   ...     1.0e-03
   TCutDO    ...     5.0e-03
   TCutPairs ...     1.0e-05
   TCutCMO   ...     1.0e-03
   TCutCPAO  ...     1.0e-03

Time for aux screen maps:            0.003
Time for maps after fine MP2:            0.010
-----------------------------
LOCAL RI TRANSFORMATION (IJV)
-----------------------------

Orbital window:       7 to 27
Basis functions:    153 (75 shells)
Aux. functions:     546 (192 shells)

Processing maps (0.0 sec)
Average map sizes:
   Aux shells -> MOs(i)           21.0
   Aux shells -> MOs(j)           21.0
   MOs        -> AO shells        73.6

Calculating integrals (1.8 sec, 1.843 MB)
Sorting integrals (0.0 sec, 1.837 MB)
Total time for the integral transformation: 1.8 sec
--------------------------------
LOCAL RI TRANSFORMATION (VABPAO)
--------------------------------

Number of PAOs:     153
Basis functions:    153 (75 shells)
Aux. functions:     546 (192 shells)

Processing maps (0.0 sec)
Average map sizes:
   Aux shells -> PAOs            153.0
   PAOs       -> AO shells        75.0

Calculating integrals (0.6 sec, 172.892 MB)
Finished


-------------------------------------
Pair Pair Term precalculation with     
RI-(ij|mn) and (im|jn) transformation  
ON THE FLY                             
-------------------------------------

   IBatch   1 (of   1)              ... done (   20.397 sec)
Total EXT                           ...          20.397 sec

---------------------
RI-PNO TRANSFORMATION
---------------------

Total Number of PNOs                   ...  6129
Average number of PNOs per pair        ...    27
Maximal number of PNOs per pair        ...    44
   #pairs with  1 -  5 PNOs   :    0
   #pairs with  6 - 10 PNOs   :    9
   #pairs with 11 - 15 PNOs   :   17
   #pairs with 16 - 20 PNOs   :   23
   #pairs with 21 - 25 PNOs   :   51
   #pairs with 26 - 30 PNOs   :   33
   #pairs with 31 - 35 PNOs   :   48
   #pairs with 36 - 40 PNOs   :   38
   #pairs with 41 - 45 PNOs   :    6
   #pairs with 46 - 50 PNOs   :    0

Generation of (ij|ab)[P] integrals            ... on
Generation of (ia|bc)[P],(ja|bc)[P] integrals ... on
Storage of 3 and 4 external integrals         ... on
Generation of ALL (ka|bc)[P] integrals        ... on
Keep RI integrals in memory                   ... off

Ibatch:  1 (of  1)
Starting 2-4 index PNO integral generation ... done

Timings:
Total PNO integral transformation time     ...          5.721 sec
Size of the 3-external file                ...        47 MB
Size of the 4-external file                ...       207 MB
Size of the IKJL file                      ...         0 MB
Size of the all 3-external file            ...       497 MB
Size of the 1-external file                ...         2 MB

Making pair/pair overlap matrices          ... done (    1.162 sec)
Size of the pair overlap file              ... 190 MB
Redoing the guess amplitudes               ... done (    0.002 sec)

-------------------------
FINAL STARTUP INFORMATION
-------------------------

E(0)                                       ...   -333.084378167
E(L-MP2)                                   ...     -1.031582230
E(L-MP2) including corrections             ...     -1.031601894
Initial E(tot)                             ...   -334.115980061
<T|T>                                      ...      0.298222042
Number of pairs included                   ... 225
Total number of pairs                      ... 231

------------------------------------------------
                  RHF COUPLED CLUSTER ITERATIONS
------------------------------------------------

Number of PNO amplitudes to be optimized   ...       185607
Number of non-PNO amplitudes               ...      3515625
Untruncated number of regular amplitudes   ...      3609375

Iter       E(tot)           E(Corr)          Delta-E          Residual     Time
  0   -334.081085373     -0.996211962      0.035370269      0.019001497    3.88
                           *** Turning on DIIS ***
  1   -334.151852827     -1.066979416     -0.070767455      0.012710837    3.93
  2   -334.184867557     -1.099994146     -0.033014730      0.004323265    3.92
  3   -334.189645167     -1.104771756     -0.004777610      0.002665728    4.02
  4   -334.190839145     -1.105965734     -0.001193977      0.000850857    3.97
  5   -334.191092892     -1.106219481     -0.000253747      0.000292857    4.17
  6   -334.191132673     -1.106259262     -0.000039781      0.000138911    6.42
  7   -334.191139635     -1.106266224     -0.000006962      0.000046377    5.05
  8   -334.191140437     -1.106267026     -0.000000802      0.000017953    7.74
  9   -334.191139799     -1.106266388      0.000000639      0.000005569    3.93
               --- The Coupled-Cluster iterations have converged ---

----------------------
COUPLED CLUSTER ENERGY
----------------------

E(0)                                       ...   -333.084378167
E(CORR)(strong-pairs)                      ...     -1.106266388
E(CORR)(weak-pairs)                        ...     -0.000495244
E(CORR)(corrected)                         ...     -1.106761632
E(TOT)                                     ...   -334.191139799
Singles Norm <S|S>**1/2                    ...      0.055035301  
T1 diagnostic                              ...      0.008492131  

------------------
LARGEST AMPLITUDES
------------------
  16-> 28  16-> 28       0.048571
  21-> 37  21-> 37       0.041636
  20-> 37  20-> 37       0.040489
  19-> 37  19-> 37       0.040231
  23-> 37  23-> 37       0.040230
  26-> 37  26-> 37       0.038783
  17-> 37  17-> 37       0.038782
  25-> 36  25-> 36       0.038286
  18-> 36  18-> 36       0.038283
  27-> 37  27-> 37       0.037928
  24-> 37  24-> 37       0.037925
  20-> 28  20-> 28       0.037614
  24-> 28  24-> 28       0.037587
  27-> 28  27-> 28       0.037586
  22-> 28  22-> 28       0.037208
  18-> 28  18-> 28       0.036990


-------------------------------------------
DLPNO BASED TRIPLES CORRECTION
-------------------------------------------

Singles multiplier          ...  1.000000
TCutTNO                     ... 1.000e-09
TCutMP2Pairs                ... 1.000e-06
TCutDOStrong                ... 1.000e-02
TCutMKNStrong               ... 1.000e-02
TCutDOWeak                  ... 2.000e-02
TCutMKNWeak                 ... 1.000e-01

Fragment selection                          .... not used
Number of Triples that are to be computed   ...      1729

 . . . . . . . . .
10% done  
20% done  
30% done  
40% done  
50% done  
60% done  
70% done  
80% done  
90% done               (     50.422 sec)
Triples timings:
Total time for T0               ...    54.221 sec
Total time for Iterative (T)    ...     0.000 sec
Total time of overall (T)       ...    54.354 sec

Triples List generation         ...     0.000 sec
TNO generation                  ...     3.795 sec
Pair density generation         ...     0.002 sec
Look up tables                  ...     0.000 sec
Generating 3-index integrals    ...    25.122 sec
  Make 4-ind.int. from 3-ind.int...     9.437 sec
  Projecting amplitudes (D + S) ...     5.578 sec
  Downprojecting integrals      ...     0.003 sec
  Energy contr. (sum over a,b,c)...     2.979 sec
Fitting ET(->0)                 ...     0.000 sec

Everything after 3-index        ...    25.300 sec

Timing details:
 TNO integrals                  ...    33.394 sec
   Reading 3-index integrals    ...     0.036 sec
   Sorting integrals            ...     6.683 sec
       Sorting integrals 1      ...     0.001 sec
       Sorting integrals 2      ...     2.151 sec
       Sorting integrals 3      ...     0.306 sec
       Sorting integrals 4      ...     0.039 sec
       Sorting integrals 5      ...     0.091 sec
       Sorting integrals 6      ...     4.095 sec
   Calculating local VM**-1/2   ...     0.296 sec
   Orthogonal. integrals        ...     0.543 sec
   Multipl. 3-index integrals   ...    25.836 sec
   All concerning IRIab (w/TNO) ...     4.131 sec

 Calculate W0/W1                ...     7.290 sec
 W 3-ext contribution           ...     3.765 sec
 W 3-int contribution           ...     1.401 sec
 Sorting W                      ...     1.976 sec

 V exchange contribution        ...     1.143 sec

 Timings for Triples without generation
     of 3-index integrals       ...    25.294 sec
       0 weak pairs             ...    24.407 sec
       1 weak pair              ...     0.887 sec
       2 weak pairs             ...     0.000 sec
       3 weak pairs             ...     0.000 sec
  Extra time for extrapolation  ...     0.000 sec

Number of Triples   (0, 1, 2, 3 weak pairs; overall):   1633      96       0       0  (  1729)
Number of Atoms     (0, 1, 2, 3 weak pairs; overall):   17.3    16.1     0.0     0.0  (    18)
Number of PAOs      (0, 1, 2, 3 weak pairs; overall):  148.9   143.3     0.0     0.0  (   153)
Number of AuxFcns   (0, 1, 2, 3 weak pairs; overall):  254.8   203.9     0.0     0.0  (   546)
Number of TNOs      (0, 1, 2, 3 weak pairs         ):   63.4    52.2     0.0     0.0
Aver. Number of NTNO, Atoms, PAOs, AuxFcns / Triples:   1729    62.8    17.2   148.6   252.0

Triples Correction (T)                     ...     -0.031194199
Final correlation energy                   ...     -1.137955831
E(CCSD)                                    ...   -334.191139799
E(CCSD(T))                                 ...   -334.222333998


Maximum memory used throughout the entire calculation: 5006.5 MB


------------------------------------------------------------------------------- 
                                     TIMINGS                                   
------------------------------------------------------------------------------- 


Total execution time                   ...      140.976 sec

Localization of occupied MO's          ...        0.452 sec (  0.3%)
Fock Matrix Formation                  ...        1.435 sec (  1.0%)
Global overlap, Fock, MKN matrices     ...        0.148 sec (  0.1%)
Differential overlap integrals         ...        0.125 sec (  0.1%)
Organizing maps                        ...        0.030 sec (  0.0%)
RI 3-index integral generations        ...        3.217 sec (  2.3%)
RI-PNO integral transformation         ...       28.043 sec ( 19.9%)
Initial Guess                          ...        5.786 sec (  4.1%)
DIIS Solver                            ...        0.634 sec (  0.5%)
State Vector Update                    ...        0.016 sec (  0.0%)
Sigma-vector construction              ...       46.865 sec ( 33.2%)
  <D|H|D>(0-ext)                       ...        2.873 sec (  6.1% of sigma)
  <D|H|D>(2-ext Fock)                  ...        0.015 sec (  0.0% of sigma)
  <D|H|D>(2-ext)                       ...        6.094 sec ( 13.0% of sigma)
  <D|H|D>(4-ext)                       ...        2.655 sec (  5.7% of sigma)
  <D|H|D>(4-ext-corr)                  ...       14.877 sec ( 31.7% of sigma)
  CCSD doubles correction              ...        0.241 sec (  0.5% of sigma)
  <S|H|S>                              ...        0.256 sec (  0.5% of sigma)
  <S|H|D>(1-ext)                       ...        0.347 sec (  0.7% of sigma)
  <D|H|S>(1-ext)                       ...        0.014 sec (  0.0% of sigma)
  <S|H|D>(3-ext)                       ...        0.192 sec (  0.4% of sigma)
  Fock-dressing                        ...       11.285 sec ( 24.1% of sigma)
  Singles amplitudes                   ...        0.253 sec (  0.5% of sigma)
  (ik|jl)-dressing                     ...        2.131 sec (  4.5% of sigma)
  (ij|ab),(ia|jb)-dressing             ...        2.033 sec (  4.3% of sigma)
  Pair energies                        ...        0.006 sec (  0.0% of sigma)
Total Time for computing (T)           ...       54.428 sec ( 38.6% of ALL)


-------------------------   --------------------
FINAL SINGLE POINT ENERGY      -334.222333998244
-------------------------   --------------------


                            ***************************************
                            *     ORCA property calculations      *
                            ***************************************

                                    ---------------------
                                    Active property flags
                                    ---------------------
   (+) Dipole Moment


------------------------------------------------------------------------------
                       ORCA ELECTRIC PROPERTIES CALCULATION
------------------------------------------------------------------------------

Dipole Moment Calculation                       ... on
Quadrupole Moment Calculation                   ... off
Polarizability Calculation                      ... off
GBWName                                         ... fluorocyclohexane_eq.gbw
Electron density file                           ... fluorocyclohexane_eq.scfp.tmp
The origin for moment calculation is the CENTER OF MASS  = ( 0.168779, -0.000004 -0.006063)

-------------
DIPOLE MOMENT
-------------
                                X             Y             Z
Electronic contribution:      8.52585      -0.00007      -0.14880
Nuclear contribution   :     -9.45161       0.00008       0.33961
                        -----------------------------------------
Total Dipole Moment    :     -0.92575       0.00002       0.19081
                        -----------------------------------------
Magnitude (a.u.)       :      0.94521
Magnitude (Debye)      :      2.40255



--------------------
Rotational spectrum 
--------------------
 
Rotational constants in cm-1:     0.142757     0.072109     0.052397 
Rotational constants in MHz :  4279.753102  2161.785236  1570.829704 

 Dipole components along the rotational axes: 
x,y,z [a.u.] :     0.926535     0.000016     0.186989 
x,y,z [Debye]:     2.355064     0.000040     0.475289 

 

Timings for individual modules:

Sum of individual times         ...      193.017 sec (=   3.217 min)
GTO integral calculation        ...       45.430 sec (=   0.757 min)  23.5 %
SCF iterations                  ...        6.440 sec (=   0.107 min)   3.3 %
MDCI module                     ...      141.147 sec (=   2.352 min)  73.1 %
                             ****ORCA TERMINATED NORMALLY****
TOTAL RUN TIME: 0 days 0 hours 3 minutes 13 seconds 260 msec
fluorocyclohexane_eq.gbw -> /home1/pantazis/klk/VDZ/Cyclohexanes/fluorocyclohexane_eq.gbw
fluorocyclohexane_eq.ges -> /home1/pantazis/klk/VDZ/Cyclohexanes/fluorocyclohexane_eq.ges
fluorocyclohexane_eq.job -> /home1/pantazis/klk/VDZ/Cyclohexanes/fluorocyclohexane_eq.job
fluorocyclohexane_eq.loc -> /home1/pantazis/klk/VDZ/Cyclohexanes/fluorocyclohexane_eq.loc
fluorocyclohexane_eq.nodes -> /home1/pantazis/klk/VDZ/Cyclohexanes/fluorocyclohexane_eq.nodes
fluorocyclohexane_eq.prop -> /home1/pantazis/klk/VDZ/Cyclohexanes/fluorocyclohexane_eq.prop
fluorocyclohexane_eq_property.txt -> /home1/pantazis/klk/VDZ/Cyclohexanes/fluorocyclohexane_eq_property.txt
fluorocyclohexane_eq.xyz -> /home1/pantazis/klk/VDZ/Cyclohexanes/fluorocyclohexane_eq.xyz
cp: cannot stat fluorocyclohexane_eq.asa.inp: No such file or directory
