! Job execution by suborca V 6.07 on ZEUS !
Job started from zeus1, running /scratch/pantazis/fluoropropane_g__lGprU1/orca/orca copied from /opt/orca on zeussn127 in /scratch/pantazis/fluoropropane_g__lGprU1
Job execution start: Sat Jun 29 11:10:05 CEST 2019
Shared library path: /scratch/pantazis/fluoropropane_g__lGprU1/orca:/opt/openmpi_1.10.2/lib:/opt/intel/mkl/lib/intel64:/opt/intel/lib/intel64:
PBS Job ID is: 158779.icqc
izeussn127
izeussn127
izeussn127
izeussn127

                                 *****************
                                 * O   R   C   A *
                                 *****************

           --- An Ab Initio, DFT and Semiempirical electronic structure package ---

                  #######################################################
                  #                        -***-                        #
                  #          Department of theory and spectroscopy      #
                  #               Directorship: Frank Neese             #
                  #        Max Planck Institute fuer Kohlenforschung    #
                  #                Kaiser Wilhelm Platz 1               #
                  #                 D-45470 Muelheim/Ruhr               #
                  #                      Germany                        #
                  #                                                     #
                  #                  All rights reserved                #
                  #                        -***-                        #
                  #######################################################


                         Program Version 4.1.x  -  STABLE  -
                                (SVN: $Rev: 14094$)
                ($Date: 2019-06-14 15:01:15 +0200 (Fri, 14 Jun 2019) $)

                         (BUILD: $Sun Jun 23 06:18:31 CEST 2019$)


 With contributions from (in alphabetic order):
   Daniel Aravena         : Magnetic Properties
   Michael Atanasov       : Ab Initio Ligand Field Theory
   Alexander A. Auer      : GIAO ZORA
   Ute Becker             : Parallelization
   Giovanni Bistoni       : ED, Open-shell LED
   Martin Brehm           : Molecular dynamics
   Dmytro Bykov           : SCF Hessian
   Vijay G. Chilkuri      : MRCI spin determinant printing
   Dipayan Datta          : RHF DLPNO-CCSD density
   Achintya Kumar Dutta   : EOM-CC, STEOM-CC
   Dmitry Ganyushin       : Spin-Orbit,Spin-Spin,Magnetic field MRCI
   Miquel Garcia          : C-PCM Hessian
   Yang Guo               : DLPNO-NEVPT2, CIM, IAO-localization
   Andreas Hansen         : Spin unrestricted coupled pair/coupled cluster methods
   Benjamin Helmich-Paris : CASSCF linear response (MC-RPA)
   Lee Huntington         : MR-EOM, pCC
   Robert Izsak           : Overlap fitted RIJCOSX, COSX-SCS-MP3, EOM
   Christian Kollmar      : KDIIS, OOCD, Brueckner-CCSD(T), CCSD density
   Simone Kossmann        : Meta GGA functionals, TD-DFT gradient, OOMP2, MP2 Hessian
   Martin Krupicka        : AUTO-CI
   Lucas Lang             : DCDCAS
   Dagmar Lenk            : GEPOL surface, SMD
   Dimitrios Liakos       : Extrapolation schemes; parallel MDCI
   Dimitrios Manganas     : ROCIS; embedding schemes
   Dimitrios Pantazis     : SARC Basis sets
   Taras Petrenko         : DFT Hessian,TD-DFT gradient, ASA, ECA, R-Raman, ABS, FL, XAS/XES, NRVS
   Peter Pinski           : DLPNO-MP2, DLPNO-MP2 Gradient
   Christoph Reimann      : Effective Core Potentials
   Marius Retegan         : Local ZFS, SOC
   Christoph Riplinger    : Optimizer, TS searches, QM/MM, DLPNO-CCSD(T), (RO)-DLPNO pert. Triples
   Tobias Risthaus        : Range-separated hybrids, TD-DFT gradient, RPA, STAB
   Michael Roemelt        : Restricted open shell CIS
   Masaaki Saitow         : Open-shell DLPNO
   Barbara Sandhoefer     : DKH picture change effects
   Avijit Sen             : IP-ROCIS
   Kantharuban Sivalingam : CASSCF convergence, NEVPT2, FIC-MRCI
   Bernardo de Souza      : ESD, SOC TD-DFT
   Georgi Stoychev        : AutoAux, RI-MP2 NMR
   Willem Van den Heuvel  : Paramagnetic NMR
   Boris Wezisla          : Elementary symmetry handling
   Frank Wennmohs         : Technical directorship


 We gratefully acknowledge several colleagues who have allowed us to
 interface, adapt or use parts of their codes:
   Stefan Grimme, W. Hujo, H. Kruse,             : VdW corrections, initial TS optimization,
                  C. Bannwarth                     DFT functionals, gCP, sTDA/sTD-DF
   Ed Valeev                                     : LibInt (2-el integral package), F12 methods
   Garnet Chan, S. Sharma, J. Yang, R. Olivares  : DMRG
   Ulf Ekstrom                                   : XCFun DFT Library
   Mihaly Kallay                                 : mrcc  (arbitrary order and MRCC methods)
   Andreas Klamt, Michael Diedenhofen            : otool_cosmo (COSMO solvation model)
   Jiri Pittner, Ondrej Demel                    : Mk-CCSD
   Frank Weinhold                                : gennbo (NPA and NBO analysis)
   Christopher J. Cramer and Donald G. Truhlar   : smd solvation model
   Lars Goerigk                                  : TD-DFT with DH, B97 family of functionals
   V. Asgeirsson, H. Jonsson                     : NEB implementation
   FAccTs GmbH                                   : IRC, NEB, NEB-TS, Multilevel


 Your calculation uses the libint2 library for the computation of 2-el integrals
 For citations please refer to: http://libint.valeyev.net

 This ORCA versions uses:
   CBLAS   interface :  Fast vector & matrix operations
   LAPACKE interface :  Fast linear algebra routines
   SCALAPACK package :  Parallel linear algebra routines




***************************************
The coordinates will be read from file: fluoropropane_g.xyz
***************************************


----- Orbital basis set information -----
Your calculation utilizes the basis: cc-pVDZ 
       H, B-Ne : Obtained from the ccRepo (grant-hill.group.shef.ac.uk/ccrepo) Feb. 2017
                 T. H. Dunning, Jr., J. Chem. Phys. 90, 1007 (1989)
            He : Obtained from the ccRepo (grant-hill.group.shef.ac.uk/ccrepo) Feb. 2017
                 D. E. Woon, T. H. Dunning, Jr., J. Chem. Phys. 100, 2975 (1994)
  Li-Be, Na-Mg : Obtained from the ccRepo (grant-hill.group.shef.ac.uk/ccrepo) Feb. 2017
                 B. P. Prascher, D. E. Woon, K. A. Peterson, T. H. Dunning, Jr., A. K. Wilson, Theor. Chem. Acc. 128, 69 (2011)
         Al-Ar : Obtained from the ccRepo (grant-hill.group.shef.ac.uk/ccrepo) Feb. 2017
                 D. E. Woon, T. H. Dunning, Jr., J. Chem. Phys. 98, 1358 (1993)
            Ca : Obtained from the Peterson Research Group Website (tyr0.chem.wsu.edu/~kipeters) Feb. 2017
                 J. Koput, K. A. Peterson, J. Phys. Chem. 106, 9595 (2002)
         Sc-Zn : Obtained from the ccRepo (grant-hill.group.shef.ac.uk/ccrepo) Feb. 2017
                 N. B. Balabanov, K. A. Peterson, J. Chem. Phys. 123, 064107 (2005)
                 N. B. Balabanov, K. A. Peterson, J. Chem. Phys. 125, 074110 (2006)
         Ga-Kr : Obtained from the ccRepo (grant-hill.group.shef.ac.uk/ccrepo) Feb. 2017
                 A. K. Wilson, D. E. Woon, K. A. Peterson, T. H. Dunning, Jr., J. Chem. Phys. 110, 7667 (1999)

----- AuxC basis set information -----
Your calculation utilizes the auxiliary basis: cc-pVDZ/C 
  H-He, B, Ne, Al-Ar, Ga-Br : Obtained from the EMSL Basis Set Exchange (bse.pnl.gov) Feb. 2017
                              F. Weigend, A. Kohn, C. Hattig, J. Chem. Phys. 116, 3175 (2002)
               Li-Be, Na-Mg : Obtained from the EMSL Basis Set Exchange (bse.pnl.gov) Feb. 2017
                              C. Haettig, Phys. Chem. Chem. Phys. 7, 59 (2005)
                        C-F : Obtained from the EMSL Basis Set Exchange (bse.pnl.gov) Feb. 2017
                              C. Haettig, Phys. Chem. Chem. Phys. 7, 59 (2005)
                              F. Weigend, A. Kohn, C. Hattig, J. Chem. Phys. 116, 3175 (2002)
                         Kr : Obtained from the TURBOMOLE 7.0 basis set library
                              F. Weigend, A. Kohn, C. Hattig, J. Chem. Phys. 116, 3175 (2002)
                              S function revised in Sep. 2009

----- AuxJK basis set information -----
Your calculation utilizes the auxiliary basis: cc-pVTZ/JK 
  H, B-F, Al-Cl, Ga-Br : Obtained from the TURBOMOLE 7.0 basis set library

================================================================================
                                        WARNINGS
                       Please study these warnings very carefully!
================================================================================


WARNING: MDCI localization with Augmented Hessian Foster-Boys
  ===> : Switching off randomization!

WARNING: Post HF methods need fully converged wavefunctions
  ===> : Setting SCFConvForced true
         You can overwrite this default with %scf ConvForced false 


INFO   : the flag for use of LIBINT has been found!

================================================================================
                                       INPUT FILE
================================================================================
NAME = fluoropropane_g.inp
|  1> ! RHF DLPNO-CCSD(T) cc-pVDZ RIJK cc-pVTZ/JK cc-pVDZ/C
|  2> ! KDIIS SOSCF TightSCF TightPNO
|  3> 
|  4> %pal nprocs 4 end
|  5> 
|  6> %maxcore 8000
|  7> 
|  8> %scf maxiter 300
|  9>      shift shift 0.2 erroff 0.1 end
| 10> end
| 11> 
| 12> * xyzfile 0 1 fluoropropane_g.xyz 
| 13> 
| 14> 
| 15>                          ****END OF INPUT****
================================================================================

                       ****************************
                       * Single Point Calculation *
                       ****************************

---------------------------------
CARTESIAN COORDINATES (ANGSTROEM)
---------------------------------
  C      0.794360    0.517840    0.303310
  F      1.421040   -0.654700   -0.171130
  C     -0.597390    0.647870   -0.289070
  C     -1.548300   -0.482470    0.119080
  H      1.437980    1.356340    0.016880
  H      0.766440    0.437570    1.396410
  H     -0.999050    1.617830    0.036050
  H     -0.509350    0.695660   -1.381560
  H     -2.537000   -0.343000   -0.329710
  H     -1.163820   -1.453900   -0.205300
  H     -1.676610   -0.517660    1.207490

----------------------------
CARTESIAN COORDINATES (A.U.)
----------------------------
  NO LB      ZA    FRAG     MASS         X           Y           Z
   0 C     6.0000    0    12.011    1.501123    0.978576    0.573173
   1 F     9.0000    0    18.998    2.685376   -1.237204   -0.323389
   2 C     6.0000    0    12.011   -1.128903    1.224297   -0.546263
   3 C     6.0000    0    12.011   -2.925863   -0.911736    0.225029
   4 H     1.0000    0     1.008    2.717388    2.563111    0.031899
   5 H     1.0000    0     1.008    1.448362    0.826887    2.638832
   6 H     1.0000    0     1.008   -1.887931    3.057256    0.068125
   7 H     1.0000    0     1.008   -0.962532    1.314607   -2.610770
   8 H     1.0000    0     1.008   -4.794235   -0.648176   -0.623062
   9 H     1.0000    0     1.008   -2.199301   -2.747473   -0.387961
  10 H     1.0000    0     1.008   -3.168334   -0.978236    2.281825

--------------------------------
INTERNAL COORDINATES (ANGSTROEM)
--------------------------------
 C      0   0   0     0.000000000000     0.00000000     0.00000000
 F      1   0   0     1.411620057806     0.00000000     0.00000000
 C      1   2   0     1.518153459898   110.30273697     0.00000000
 C      3   1   2     1.532476677212   113.68723896    63.21182083
 H      1   2   3     1.095158024807   106.68812194   238.39708682
 H      1   2   3     1.096398836783   106.59335578   121.60543166
 H      3   1   2     1.099025100532   107.16959305   185.23911040
 H      3   1   2     1.097073072224   108.58616771   300.01854697
 H      4   3   1     1.094710936732   110.93188674   179.84652796
 H      4   3   1     1.093948581836   110.97285434   299.90762788
 H      4   3   1     1.096511796699   111.13989602    59.95234591

---------------------------
INTERNAL COORDINATES (A.U.)
---------------------------
 C      0   0   0     0.000000000000     0.00000000     0.00000000
 F      1   0   0     2.667575314403     0.00000000     0.00000000
 C      1   2   0     2.868894268472   110.30273697     0.00000000
 C      3   1   2     2.895961226553   113.68723896    63.21182083
 H      1   2   3     2.069548740252   106.68812194   238.39708682
 H      1   2   3     2.071893535070   106.59335578   121.60543166
 H      3   1   2     2.076856454311   107.16959305   185.23911040
 H      3   1   2     2.073167655404   108.58616771   300.01854697
 H      4   3   1     2.068703866231   110.93188674   179.84652796
 H      4   3   1     2.067263224261   110.97285434   299.90762788
 H      4   3   1     2.072106998375   111.13989602    59.95234591

---------------------
BASIS SET INFORMATION
---------------------
There are 3 groups of distinct atoms

 Group   1 Type C   : 17s4p1d contracted to 3s2p1d pattern {881/31/1}
 Group   2 Type F   : 17s4p1d contracted to 3s2p1d pattern {881/31/1}
 Group   3 Type H   : 4s1p contracted to 2s1p pattern {31/1}

Atom   0C    basis set group =>   1
Atom   1F    basis set group =>   2
Atom   2C    basis set group =>   1
Atom   3C    basis set group =>   1
Atom   4H    basis set group =>   3
Atom   5H    basis set group =>   3
Atom   6H    basis set group =>   3
Atom   7H    basis set group =>   3
Atom   8H    basis set group =>   3
Atom   9H    basis set group =>   3
Atom  10H    basis set group =>   3
-------------------------------
AUXILIARY BASIS SET INFORMATION
-------------------------------
There are 3 groups of distinct atoms

 Group   1 Type C   : 7s5p4d2f contracted to 7s5p4d2f pattern {1111111/11111/1111/11}
 Group   2 Type F   : 7s5p4d2f contracted to 7s5p4d2f pattern {1111111/11111/1111/11}
 Group   3 Type H   : 3s2p1d contracted to 3s2p1d pattern {111/11/1}

Atom   0C    basis set group =>   1
Atom   1F    basis set group =>   2
Atom   2C    basis set group =>   1
Atom   3C    basis set group =>   1
Atom   4H    basis set group =>   3
Atom   5H    basis set group =>   3
Atom   6H    basis set group =>   3
Atom   7H    basis set group =>   3
Atom   8H    basis set group =>   3
Atom   9H    basis set group =>   3
Atom  10H    basis set group =>   3
-------------------------------
AUXILIARY BASIS SET INFORMATION
-------------------------------
There are 3 groups of distinct atoms

 Group   1 Type C   : 10s7p5d2f1g contracted to 10s7p5d2f1g pattern {1111111111/1111111/11111/11/1}
 Group   2 Type F   : 10s7p5d2f1g contracted to 10s7p5d2f1g pattern {1111111111/1111111/11111/11/1}
 Group   3 Type H   : 4s3p2d1f contracted to 4s3p2d1f pattern {1111/111/11/1}

Atom   0C    basis set group =>   1
Atom   1F    basis set group =>   2
Atom   2C    basis set group =>   1
Atom   3C    basis set group =>   1
Atom   4H    basis set group =>   3
Atom   5H    basis set group =>   3
Atom   6H    basis set group =>   3
Atom   7H    basis set group =>   3
Atom   8H    basis set group =>   3
Atom   9H    basis set group =>   3
Atom  10H    basis set group =>   3

Checking for AutoStart:
The File: fluoropropane_g.gbw exists
Trying to determine its content:
     ... Fine, the file contains calculation information
     ... Fine, the calculation information was read
     ... Fine, the file contains a basis set
     ... Fine, the basis set was read
     ... Fine, the file contains a geometry
     ... Fine, the geometry was read
     ... Fine, the file contains a set of orbitals
     ... Fine, the orbitals can be read
     => possible old guess file was deleted
     => GBW file was renamed to GES file
     => GES file is set as startup file
     => Guess is set to MORead
     ... now leaving AutoStart



           ************************************************************
           *        Program running with 4 parallel MPI-processes     *
           *              working on a common directory               *
           ************************************************************
------------------------------------------------------------------------------
                           ORCA GTO INTEGRAL CALCULATION
                           -- RI-GTO INTEGRALS CHOSEN --
------------------------------------------------------------------------------

                         BASIS SET STATISTICS AND STARTUP INFO

Gaussian basis set:
 # of primitive gaussian shells          ...  123
 # of primitive gaussian functions       ...  185
 # of contracted shells                  ...   45
 # of contracted basis functions         ...   91
 Highest angular momentum                ...    2
 Maximum contraction depth               ...    8
Auxiliary gaussian basis set:
 # of primitive gaussian shells          ...  170
 # of primitive gaussian functions       ...  526
 # of contracted shells                  ...  170
 # of contracted aux-basis functions     ...  526
 Highest angular momentum                ...    4
 Maximum contraction depth               ...    1
Ratio of auxiliary to basis functions    ...  5.78
Integral package used                  ... LIBINT
 One Electron integrals                  ... done
 Ordering auxiliary basis shells         ... done
 Integral threshhold             Thresh  ...  2.500e-11
 Primitive cut-off               TCut    ...  2.500e-12
 Pre-screening matrix                    ... done
 Shell pair data                         ... 
 Ordering of the shell pairs             ... done (   0.000 sec) 1034 of 1035 pairs
 Determination of significant pairs      ... done (   0.000 sec)
 Creation of shell pair data             ... done (   0.000 sec)
 Storage of shell pair data              ... done (   0.004 sec)
 Shell pair data done in (   0.004 sec)
 Computing two index integrals           ... done
 Cholesky decomposition of the V-matrix  ... done


Timings:
 Total evaluation time                   ...   0.245 sec (  0.004 min)
 One electron matrix time                ...   0.012 sec (  0.000 min) =  5.1%
 Schwartz matrix evaluation time         ...   0.135 sec (  0.002 min) = 55.1%
 Two index repulsion integral time       ...   0.033 sec (  0.001 min) = 13.4%
 Cholesky decomposition of V             ...   0.035 sec (  0.001 min) = 14.1%
 Three index repulsion integral time     ...   0.000 sec (  0.000 min) =  0.0%



           ************************************************************
           *        Program running with 4 parallel MPI-processes     *
           *              working on a common directory               *
           ************************************************************
-------------------------------------------------------------------------------
                                 ORCA SCF
-------------------------------------------------------------------------------

------------
SCF SETTINGS
------------
Hamiltonian:
 Ab initio Hamiltonian  Method          .... Hartree-Fock(GTOs)
 RI-approximation to the Coulomb term is turned on
   Number of auxiliary basis functions  .... 526
   RI-JK (J+K treated both via RI)      .... on


General Settings:
 Integral files         IntName         .... fluoropropane_g
 Hartree-Fock type      HFTyp           .... RHF
 Total Charge           Charge          ....    0
 Multiplicity           Mult            ....    1
 Number of Electrons    NEL             ....   34
 Basis Dimension        Dim             ....   91
 Nuclear Repulsion      ENuc            ....    129.4874717120 Eh

Convergence Acceleration:
 DIIS                   CNVDIIS         .... off
 Newton-Raphson         CNVNR           .... off
 SOSCF                  CNVSOSCF        .... on
   Start iteration      SOSCFMaxIt      ....   150
   Startup grad/error   SOSCFStart      ....  0.003300
 Level Shifting         CNVShift        .... on
   Level shift para.    LevelShift      ....    0.2000
   Turn off err/grad.   ShiftErr        ....    0.1000
 Zerner damping         CNVZerner       .... off
 Static damping         CNVDamp         .... off
 Fernandez-Rico         CNVRico         .... off

SCF Procedure:
 Maximum # iterations   MaxIter         ....   300
 SCF integral mode      SCFMode         .... Direct
   Integral package                     .... LIBINT
 Reset frequency        DirectResetFreq ....    20
 Integral Threshold     Thresh          ....  2.500e-11 Eh
 Primitive CutOff       TCut            ....  2.500e-12 Eh

Convergence Tolerance:
 Convergence Check Mode ConvCheckMode   .... Total+1el-Energy
 Convergence forced     ConvForced      .... 1
 Energy Change          TolE            ....  1.000e-08 Eh
 1-El. energy change                    ....  1.000e-05 Eh
 Orbital Gradient       TolG            ....  1.000e-05
 Orbital Rotation angle TolX            ....  1.000e-05


Diagonalization of the overlap matrix:
Smallest eigenvalue                        ... 5.445e-03
Time for diagonalization                   ...    0.004 sec
Threshold for overlap eigenvalues          ... 1.000e-08
Number of eigenvalues below threshold      ... 0
Time for construction of square roots      ...    0.004 sec
Total time needed                          ...    0.008 sec

---------------------
INITIAL GUESS: MOREAD
---------------------
Guess MOs are being read from file: fluoropropane_g.ges
Input Geometry matches current geometry (good)
Atom 0: N(Shells)= 6 and 10 - projection required
Input basis set needs projection
NBasis(read)= 218
NBasis(calc)= 91
Basis set overlap was calculated
Using GuessMode=FMatrix for the initial guess
C*T matrix was formed
Effective Fockian was calculated
Effective Fockian was diagonalized
Initial density was built
                      ------------------
                      INITIAL GUESS DONE (   0.0 sec)
                      ------------------
--------------
SCF ITERATIONS
--------------
ITER       Energy         Delta-E        Max-DP      RMS-DP      [F,P]   Gradient Norm
                             ****Turning on KDIIS(Cayley)****
  0   -217.1264826254   0.000000000000 0.00124785  0.00006465  0.0044297   0.006098959
  1   -217.1265786814  -0.000096056026 0.00242144  0.00012352  0.0040144   0.005460801
                      *** Initiating the SOSCF procedure ***
                           *** Shutting down KDIIS ***
                      *** Re-Reading the Fockian *** 
                      *** Removing any level shift *** 
ITER      Energy       Delta-E        Grad      Rot      Max-DP    RMS-DP
  2   -217.12671826  -0.0001395795  0.003228  0.003228  0.004206  0.000209
  3   -217.12689762  -0.0001793641  0.001933  0.001373  0.005541  0.000284
  4   -217.12699101  -0.0000933893  0.000732  0.000359  0.001710  0.000079
  5   -217.12699983  -0.0000088164  0.000216  0.000155  0.000433  0.000023
  6   -217.12700090  -0.0000010714  0.000052  0.000068  0.000118  0.000005
  7   -217.12700097  -0.0000000724  0.000013  0.000024  0.000043  0.000002
                  ***Gradient check signals convergence***
              ***Rediagonalizing the Fockian in SOSCF/NRSCF***

               *****************************************************
               *                     SUCCESS                       *
               *           SCF CONVERGED AFTER   8 CYCLES          *
               *****************************************************


----------------
TOTAL SCF ENERGY
----------------

Total Energy       :         -217.12700098 Eh           -5908.32607 eV

Components:
Nuclear Repulsion  :          129.48747171 Eh            3523.53324 eV
Electronic Energy  :         -346.61447269 Eh           -9431.85931 eV
One Electron Energy:         -554.05023849 Eh          -15076.47346 eV
Two Electron Energy:          207.43576579 Eh            5644.61415 eV

Virial components:
Potential Energy   :         -434.02538658 Eh          -11810.43120 eV
Kinetic Energy     :          216.89838560 Eh            5902.10513 eV
Virial Ratio       :            2.00105402


---------------
SCF CONVERGENCE
---------------

  Last Energy change         ...   -7.4233e-09  Tolerance :   1.0000e-08
  Last MAX-Density change    ...    8.3467e-06  Tolerance :   1.0000e-07
  Last RMS-Density change    ...    4.1451e-07  Tolerance :   5.0000e-09
  Last Orbital Gradient      ...    2.2759e-06  Tolerance :   1.0000e-05
  Last Orbital Rotation      ...    1.9162e-06  Tolerance :   1.0000e-05

             **** THE GBW FILE WAS UPDATED (fluoropropane_g.gbw) ****
             **** DENSITY FILE WAS UPDATED (fluoropropane_g.scfp.tmp) ****
             **** ENERGY FILE WAS UPDATED (fluoropropane_g.en.tmp) ****
----------------
ORBITAL ENERGIES
----------------

  NO   OCC          E(Eh)            E(eV) 
   0   2.0000     -26.262171      -714.6300 
   1   2.0000     -11.309511      -307.7474 
   2   2.0000     -11.237847      -305.7974 
   3   2.0000     -11.226416      -305.4863 
   4   2.0000      -1.566134       -42.6167 
   5   2.0000      -1.064145       -28.9569 
   6   2.0000      -0.935146       -25.4466 
   7   2.0000      -0.817386       -22.2422 
   8   2.0000      -0.687201       -18.6997 
   9   2.0000      -0.681251       -18.5378 
  10   2.0000      -0.640352       -17.4249 
  11   2.0000      -0.595829       -16.2133 
  12   2.0000      -0.567117       -15.4320 
  13   2.0000      -0.538235       -14.6461 
  14   2.0000      -0.495679       -13.4881 
  15   2.0000      -0.483549       -13.1580 
  16   2.0000      -0.481331       -13.0977 
  17   0.0000       0.180723         4.9177 
  18   0.0000       0.218911         5.9569 
  19   0.0000       0.221782         6.0350 
  20   0.0000       0.247263         6.7284 
  21   0.0000       0.258240         7.0271 
  22   0.0000       0.279733         7.6119 
  23   0.0000       0.280959         7.6453 
  24   0.0000       0.325656         8.8616 
  25   0.0000       0.367621        10.0035 
  26   0.0000       0.417065        11.3489 
  27   0.0000       0.576407        15.6848 
  28   0.0000       0.600864        16.3503 
  29   0.0000       0.607889        16.5415 
  30   0.0000       0.654835        17.8190 
  31   0.0000       0.732587        19.9347 
  32   0.0000       0.781975        21.2786 
  33   0.0000       0.816833        22.2272 
  34   0.0000       0.823397        22.4058 
  35   0.0000       0.846870        23.0445 
  36   0.0000       0.868596        23.6357 
  37   0.0000       0.883870        24.0513 
  38   0.0000       0.888101        24.1665 
  39   0.0000       0.895978        24.3808 
  40   0.0000       0.904984        24.6259 
  41   0.0000       0.923170        25.1207 
  42   0.0000       0.956115        26.0172 
  43   0.0000       1.121427        30.5156 
  44   0.0000       1.141503        31.0619 
  45   0.0000       1.150393        31.3038 
  46   0.0000       1.350572        36.7509 
  47   0.0000       1.354946        36.8700 
  48   0.0000       1.447592        39.3910 
  49   0.0000       1.498559        40.7779 
  50   0.0000       1.545904        42.0662 
  51   0.0000       1.586853        43.1805 
  52   0.0000       1.607855        43.7520 
  53   0.0000       1.673141        45.5285 
  54   0.0000       1.686731        45.8983 
  55   0.0000       1.693765        46.0897 
  56   0.0000       1.845607        50.2215 
  57   0.0000       1.860686        50.6318 
  58   0.0000       1.879640        51.1476 
  59   0.0000       1.904629        51.8276 
  60   0.0000       1.916993        52.1640 
  61   0.0000       1.917813        52.1863 
  62   0.0000       1.946374        52.9635 
  63   0.0000       1.949450        53.0472 
  64   0.0000       1.977511        53.8108 
  65   0.0000       1.984256        53.9944 
  66   0.0000       2.004470        54.5444 
  67   0.0000       2.036069        55.4043 
  68   0.0000       2.091604        56.9154 
  69   0.0000       2.185033        59.4578 
  70   0.0000       2.190727        59.6127 
  71   0.0000       2.295625        62.4671 
  72   0.0000       2.317537        63.0634 
  73   0.0000       2.409702        65.5713 
  74   0.0000       2.452993        66.7493 
  75   0.0000       2.498002        67.9741 
  76   0.0000       2.555645        69.5426 
  77   0.0000       2.575070        70.0712 
  78   0.0000       2.709912        73.7404 
  79   0.0000       2.753522        74.9271 
  80   0.0000       2.770414        75.3868 
  81   0.0000       2.837437        77.2106 
  82   0.0000       2.864190        77.9386 
  83   0.0000       2.910006        79.1853 
  84   0.0000       2.960137        80.5494 
  85   0.0000       2.990159        81.3663 
  86   0.0000       4.044687       110.0615 
  87   0.0000       4.051243       110.2399 
  88   0.0000       4.258219       115.8720 
  89   0.0000       4.267768       116.1319 
  90   0.0000       4.489490       122.1652 

                    ********************************
                    * MULLIKEN POPULATION ANALYSIS *
                    ********************************

-----------------------
MULLIKEN ATOMIC CHARGES
-----------------------
   0 C :    0.316136
   1 F :   -0.376830
   2 C :   -0.136379
   3 C :   -0.057641
   4 H :    0.034481
   5 H :    0.029793
   6 H :    0.028967
   7 H :    0.043917
   8 H :    0.035059
   9 H :    0.052608
  10 H :    0.029889
Sum of atomic charges:   -0.0000000

--------------------------------
MULLIKEN REDUCED ORBITAL CHARGES
--------------------------------
  0 C s       :     3.029993  s :     3.029993
      pz      :     0.942311  p :     2.524164
      px      :     0.898657
      py      :     0.683196
      dz2     :     0.031327  d :     0.129708
      dxz     :     0.015801
      dyz     :     0.017931
      dx2y2   :     0.027631
      dxy     :     0.037017
  1 F s       :     3.929134  s :     3.929134
      pz      :     1.905805  p :     5.442607
      px      :     1.871100
      py      :     1.665702
      dz2     :     0.000667  d :     0.005090
      dxz     :     0.000414
      dyz     :     0.001180
      dx2y2   :     0.001172
      dxy     :     0.001657
  2 C s       :     3.108843  s :     3.108843
      pz      :     1.012159  p :     2.944404
      px      :     0.939626
      py      :     0.992619
      dz2     :     0.022128  d :     0.083132
      dxz     :     0.013822
      dyz     :     0.008076
      dx2y2   :     0.022011
      dxy     :     0.017095
  3 C s       :     3.052634  s :     3.052634
      pz      :     0.990349  p :     2.943509
      px      :     0.970500
      py      :     0.982660
      dz2     :     0.017521  d :     0.061498
      dxz     :     0.008389
      dyz     :     0.006636
      dx2y2   :     0.015439
      dxy     :     0.013512
  4 H s       :     0.936106  s :     0.936106
      pz      :     0.005962  p :     0.029413
      px      :     0.010092
      py      :     0.013359
  5 H s       :     0.940977  s :     0.940977
      pz      :     0.021890  p :     0.029230
      px      :     0.004155
      py      :     0.003186
  6 H s       :     0.941579  s :     0.941579
      pz      :     0.006154  p :     0.029454
      px      :     0.006397
      py      :     0.016904
  7 H s       :     0.926656  s :     0.926656
      pz      :     0.020898  p :     0.029427
      px      :     0.003959
      py      :     0.004569
  8 H s       :     0.934411  s :     0.934411
      pz      :     0.007804  p :     0.030531
      px      :     0.017852
      py      :     0.004874
  9 H s       :     0.916717  s :     0.916717
      pz      :     0.006489  p :     0.030675
      px      :     0.006778
      py      :     0.017408
 10 H s       :     0.939811  s :     0.939811
      pz      :     0.020462  p :     0.030300
      px      :     0.005116
      py      :     0.004721


                     *******************************
                     * LOEWDIN POPULATION ANALYSIS *
                     *******************************

----------------------
LOEWDIN ATOMIC CHARGES
----------------------
   0 C :    0.082102
   1 F :   -0.134976
   2 C :   -0.054211
   3 C :   -0.051820
   4 H :    0.017581
   5 H :    0.015003
   6 H :    0.026583
   7 H :    0.027005
   8 H :    0.024313
   9 H :    0.027916
  10 H :    0.020506

-------------------------------
LOEWDIN REDUCED ORBITAL CHARGES
-------------------------------
  0 C s       :     2.823615  s :     2.823615
      pz      :     1.009196  p :     2.778319
      px      :     0.976637
      py      :     0.792485
      dz2     :     0.080683  d :     0.315965
      dxz     :     0.035945
      dyz     :     0.042555
      dx2y2   :     0.067323
      dxy     :     0.089458
  1 F s       :     3.722832  s :     3.722832
      pz      :     1.889222  p :     5.405853
      px      :     1.850677
      py      :     1.665954
      dz2     :     0.000820  d :     0.006291
      dxz     :     0.000501
      dyz     :     0.001473
      dx2y2   :     0.001465
      dxy     :     0.002031
  2 C s       :     2.798073  s :     2.798073
      pz      :     1.035168  p :     3.053871
      px      :     0.998573
      py      :     1.020129
      dz2     :     0.057465  d :     0.202266
      dxz     :     0.031716
      dyz     :     0.018332
      dx2y2   :     0.051959
      dxy     :     0.042794
  3 C s       :     2.797543  s :     2.797543
      pz      :     1.042042  p :     3.094110
      px      :     1.023416
      py      :     1.028651
      dz2     :     0.047009  d :     0.160167
      dxz     :     0.022222
      dyz     :     0.016462
      dx2y2   :     0.041002
      dxy     :     0.033472
  4 H s       :     0.906579  s :     0.906579
      pz      :     0.016560  p :     0.075840
      px      :     0.026288
      py      :     0.032992
  5 H s       :     0.909325  s :     0.909325
      pz      :     0.051666  p :     0.075673
      px      :     0.014295
      py      :     0.009712
  6 H s       :     0.895425  s :     0.895425
      pz      :     0.018274  p :     0.077993
      px      :     0.020194
      py      :     0.039525
  7 H s       :     0.894326  s :     0.894326
      pz      :     0.047514  p :     0.078669
      px      :     0.015669
      py      :     0.015486
  8 H s       :     0.897295  s :     0.897295
      pz      :     0.020730  p :     0.078393
      px      :     0.041322
      py      :     0.016342
  9 H s       :     0.892453  s :     0.892453
      pz      :     0.018239  p :     0.079631
      px      :     0.019850
      py      :     0.041542
 10 H s       :     0.901532  s :     0.901532
      pz      :     0.046393  p :     0.077963
      px      :     0.015850
      py      :     0.015719


                      *****************************
                      * MAYER POPULATION ANALYSIS *
                      *****************************

  NA   - Mulliken gross atomic population
  ZA   - Total nuclear charge
  QA   - Mulliken gross atomic charge
  VA   - Mayer's total valence
  BVA  - Mayer's bonded valence
  FA   - Mayer's free valence

  ATOM       NA         ZA         QA         VA         BVA        FA
  0 C      5.6839     6.0000     0.3161     3.8760     3.8760    -0.0000
  1 F      9.3768     9.0000    -0.3768     0.9140     0.9140    -0.0000
  2 C      6.1364     6.0000    -0.1364     4.0433     4.0433    -0.0000
  3 C      6.0576     6.0000    -0.0576     3.9782     3.9782     0.0000
  4 H      0.9655     1.0000     0.0345     0.9708     0.9708    -0.0000
  5 H      0.9702     1.0000     0.0298     0.9694     0.9694    -0.0000
  6 H      0.9710     1.0000     0.0290     0.9661     0.9661    -0.0000
  7 H      0.9561     1.0000     0.0439     0.9688     0.9688     0.0000
  8 H      0.9649     1.0000     0.0351     0.9759     0.9759     0.0000
  9 H      0.9474     1.0000     0.0526     0.9807     0.9807    -0.0000
 10 H      0.9701     1.0000     0.0299     0.9748     0.9748    -0.0000

  Mayer bond orders larger than 0.1
B(  0-C ,  1-F ) :   0.8829 B(  0-C ,  2-C ) :   1.0572 B(  0-C ,  4-H ) :   0.9770 
B(  0-C ,  5-H ) :   0.9710 B(  2-C ,  3-C ) :   1.0527 B(  2-C ,  6-H ) :   0.9626 
B(  2-C ,  7-H ) :   0.9655 B(  3-C ,  8-H ) :   0.9845 B(  3-C ,  9-H ) :   0.9803 
B(  3-C , 10-H ) :   0.9817 

-------
TIMINGS
-------

Total SCF time: 0 days 0 hours 0 min 2 sec 

Total time                  ....       2.257 sec
Sum of individual times     ....       2.115 sec  ( 93.7%)

Fock matrix formation       ....       2.086 sec  ( 92.4%)
Diagonalization             ....       0.004 sec  (  0.2%)
Density matrix formation    ....       0.001 sec  (  0.0%)
Population analysis         ....       0.003 sec  (  0.1%)
Initial guess               ....       0.017 sec  (  0.8%)
Orbital Transformation      ....       0.000 sec  (  0.0%)
Orbital Orthonormalization  ....       0.000 sec  (  0.0%)
DIIS solution               ....       0.000 sec  (  0.0%)
SOSCF solution              ....       0.004 sec  (  0.2%)


           ************************************************************
           *        Program running with 4 parallel MPI-processes     *
           *              working on a common directory               *
           ************************************************************


------------------------------------------------------------------------------- 
                              ORCA-MATRIX DRIVEN CI                            
------------------------------------------------------------------------------- 


Wavefunction type
-----------------
Correlation treatment                      ...      CCSD     
Single excitations                         ... ON
Orbital optimization                       ... OFF
Calculation of Z vector                    ... OFF
Calculation of Brueckner orbitals          ... OFF
Perturbative triple excitations            ... ON
Calculation of F12 correction              ... OFF
Frozen core treatment                      ... chemical core (8 el)
Reference Wavefunction                     ... RHF
  Internal Orbitals:     4 ...   16 ( 13 MO's/ 26 electrons)
  Virtual  Orbitals:    17 ...   90 ( 74 MO's              )
Number of AO's                             ...     91
Number of electrons                        ...     34
Number of correlated electrons             ...     26

Algorithmic settings
--------------------
Integral transformation                    ... All integrals via the RI transformation
K(C) Formation                             ... RI-DLPNO
   PNO-Integral Storage                    ... ON DISK
   PNO occupation number cut-off           ... 1.000e-07
   Singles PNO occupation number cut-off   ... 3.000e-09
   PNO Mulliken prescreening cut-off       ... 1.000e-03
   Domain cut-off (Mulliken population)    ... 1.000e-03
   PNO Normalization                       ...    1
Maximum number of iterations               ...        50
Convergence tolerance (max. residuum)      ... 1.000e-05
Level shift for amplitude update           ... 2.000e-01
Maximum number of DIIS vectors             ...         7
DIIS turned on at iteration                ...         0
Damping before turning on DIIS             ...     0.500
Damping after turning on DIIS              ...     0.000
Pair specific amplitude update             ... OFF
Natural orbital iterations                 ... OFF
Perturbative natural orbital generation    ... OFF
Printlevel                                 ... 2

Singles Fock matrix elements calculated using PNOs.

Memory handling:
----------------
Maximum memory for working arrays          ...   8000 MB
Data storage in matrix containers          ... UNCOMPRESSED
Data type for integral storage             ... DOUBLE
In-Core Storage of quantities:
   Amplitudes+Sigma Vector      ... NO
   J+K operators                ... NO
   DIIS vectors                 ... NO
   3-external integrals         ... NO
   4-external integrals         ... NO

Localization treatment:
-----------------------
Localization option                        ...    6
Localization threshhold                    ... -1.0e+00
Using relative localization threshhold     ... 1.0e-08
Neglect threshold for strong pairs         ... 1.000e-05 Eh
Prescreening threshold for very weak pairs ... 1.000e-07 Eh

Initializing the integral package          ... done
Localizing the valence orbitals
------------------------------------------------------------------------------
                           ORCA ORBITAL LOCALIZATION
------------------------------------------------------------------------------

Input orbitals are from                  ... fluoropropane_g.proc0.gbw
Output orbitals are to                   ... fluoropropane_g.proc0.loc
Max. number of iterations                ... 128
Localizations seeded randomly            ... off
Convergence tolerance                    ... 1.000e-06
Using relative localization threshhold   ... 1.000e-08
Treshold for strong local MOs            ... 9.500e-01
Treshold for bond MOs                    ... 8.500e-01
Operator                                 ... 0
Orbital range for localization           ... 4 to 16
Localization criterion                   ... FOSTER-BOYS (AUGMENTED HESSIAN)
Doing the dipole integrals     ... o.k.
Initial value of the localization sum :   107.387637
ITERATION   0 : L=  113.0049102067 DL=  5.62e+00 (AVERGE_DL)=    0.2683585770 
ITERATION   1 : L=  113.4619834101 DL=  4.57e-01 (AVERGE_DL)=    0.0765500677 
ITERATION   2 : L=  113.4719995517 DL=  1.00e-02 (AVERGE_DL)=    0.0113319051 
ITERATION   3 : L=  113.4730449920 DL=  1.05e-03 (AVERGE_DL)=    0.0036610217 
ITERATION   4 : L=  113.4732155177 DL=  1.71e-04 (AVERGE_DL)=    0.0014785897 
ITERATION   5 : L=  113.4732997690 DL=  8.43e-05 (AVERGE_DL)=    0.0010393000 
ITERATION   6 : L=  113.4733723466 DL=  7.26e-05 (AVERGE_DL)=    0.0009646151 
ITERATION   7 : L=  113.4734389635 DL=  6.66e-05 (AVERGE_DL)=    0.0009241550 
ITERATION   8 : L=  113.4735017313 DL=  6.28e-05 (AVERGE_DL)=    0.0008970594 
ITERATION   9 : L=  113.4735611271 DL=  5.94e-05 (AVERGE_DL)=    0.0008726309 
ITERATION  10 : L=  113.4736173893 DL=  5.63e-05 (AVERGE_DL)=    0.0008492997 
ITERATION  11 : L=  113.4736706436 DL=  5.33e-05 (AVERGE_DL)=    0.0008262858 
ITERATION  12 : L=  113.4737209970 DL=  5.04e-05 (AVERGE_DL)=    0.0008034653 
ITERATION  13 : L=  113.4737685547 DL=  4.76e-05 (AVERGE_DL)=    0.0007808415 
ITERATION  14 : L=  113.4738134215 DL=  4.49e-05 (AVERGE_DL)=    0.0007584295 
ITERATION  15 : L=  113.4738557059 DL=  4.23e-05 (AVERGE_DL)=    0.0007362799 
ITERATION  16 : L=  113.4738955164 DL=  3.98e-05 (AVERGE_DL)=    0.0007144161 
ITERATION  17 : L=  113.4739329633 DL=  3.74e-05 (AVERGE_DL)=    0.0006928843 
ITERATION  18 : L=  113.4739681556 DL=  3.52e-05 (AVERGE_DL)=    0.0006717021 
ITERATION  19 : L=  113.4740012017 DL=  3.30e-05 (AVERGE_DL)=    0.0006508975 
ITERATION  20 : L=  113.4740322086 DL=  3.10e-05 (AVERGE_DL)=    0.0006304956 
ITERATION  21 : L=  113.4740612802 DL=  2.91e-05 (AVERGE_DL)=    0.0006105019 
ITERATION  22 : L=  113.4740885189 DL=  2.72e-05 (AVERGE_DL)=    0.0005909440 
ITERATION  23 : L=  113.4741140241 DL=  2.55e-05 (AVERGE_DL)=    0.0005718296 
ITERATION  24 : L=  113.4741378916 DL=  2.39e-05 (AVERGE_DL)=    0.0005531669 
ITERATION  25 : L=  113.4741602136 DL=  2.23e-05 (AVERGE_DL)=    0.0005349575 
ITERATION  26 : L=  113.4741810798 DL=  2.09e-05 (AVERGE_DL)=    0.0005172190 
ITERATION  27 : L=  113.4742005747 DL=  1.95e-05 (AVERGE_DL)=    0.0004999341 
ITERATION  28 : L=  113.4742187806 DL=  1.82e-05 (AVERGE_DL)=    0.0004831246 
ITERATION  29 : L=  113.4742357732 DL=  1.70e-05 (AVERGE_DL)=    0.0004667478 
ITERATION  30 : L=  113.4742516325 DL=  1.59e-05 (AVERGE_DL)=    0.0004509147 
ITERATION  31 : L=  113.4742664207 DL=  1.48e-05 (AVERGE_DL)=    0.0004354232 
ITERATION  32 : L=  113.4742802140 DL=  1.38e-05 (AVERGE_DL)=    0.0004205193 
ITERATION  33 : L=  113.4742930664 DL=  1.29e-05 (AVERGE_DL)=    0.0004059246 
ITERATION  34 : L=  113.4743050461 DL=  1.20e-05 (AVERGE_DL)=    0.0003919005 
ITERATION  35 : L=  113.4743162026 DL=  1.12e-05 (AVERGE_DL)=    0.0003781961 
ITERATION  36 : L=  113.4743265952 DL=  1.04e-05 (AVERGE_DL)=    0.0003650180 
ITERATION  37 : L=  113.4743362694 DL=  9.67e-06 (AVERGE_DL)=    0.0003521760 
ITERATION  38 : L=  113.4743452766 DL=  9.01e-06 (AVERGE_DL)=    0.0003398182 
ITERATION  39 : L=  113.4743536566 DL=  8.38e-06 (AVERGE_DL)=    0.0003277749 
ITERATION  40 : L=  113.4743614546 DL=  7.80e-06 (AVERGE_DL)=    0.0003161868 
ITERATION  41 : L=  113.4743687105 DL=  7.26e-06 (AVERGE_DL)=    0.0003050003 
ITERATION  42 : L=  113.4743754569 DL=  6.75e-06 (AVERGE_DL)=    0.0002940952 
ITERATION  43 : L=  113.4743817323 DL=  6.28e-06 (AVERGE_DL)=    0.0002836425 
ITERATION  44 : L=  113.4743875666 DL=  5.83e-06 (AVERGE_DL)=    0.0002734957 
ITERATION  45 : L=  113.4743929925 DL=  5.43e-06 (AVERGE_DL)=    0.0002637457 
ITERATION  46 : L=  113.4743980343 DL=  5.04e-06 (AVERGE_DL)=    0.0002542411 
ITERATION  47 : L=  113.4744027207 DL=  4.69e-06 (AVERGE_DL)=    0.0002451175 
ITERATION  48 : L=  113.4744070756 DL=  4.35e-06 (AVERGE_DL)=    0.0002362877 
ITERATION  49 : L=  113.4744111235 DL=  4.05e-06 (AVERGE_DL)=    0.0002278077 
ITERATION  50 : L=  113.4744148840 DL=  3.76e-06 (AVERGE_DL)=    0.0002195720 
ITERATION  51 : L=  113.4744183777 DL=  3.49e-06 (AVERGE_DL)=    0.0002116386 
ITERATION  52 : L=  113.4744216234 DL=  3.25e-06 (AVERGE_DL)=    0.0002039887 
ITERATION  53 : L=  113.4744246381 DL=  3.01e-06 (AVERGE_DL)=    0.0001965967 
ITERATION  54 : L=  113.4744274383 DL=  2.80e-06 (AVERGE_DL)=    0.0001894704 
ITERATION  55 : L=  113.4744300392 DL=  2.60e-06 (AVERGE_DL)=    0.0001826057 
ITERATION  56 : L=  113.4744324546 DL=  2.42e-06 (AVERGE_DL)=    0.0001759735 
ITERATION  57 : L=  113.4744346986 DL=  2.24e-06 (AVERGE_DL)=    0.0001696149 
ITERATION  58 : L=  113.4744367809 DL=  2.08e-06 (AVERGE_DL)=    0.0001633902 
ITERATION  59 : L=  113.4744387156 DL=  1.93e-06 (AVERGE_DL)=    0.0001574920 
ITERATION  60 : L=  113.4744405112 DL=  1.80e-06 (AVERGE_DL)=    0.0001517266 
ITERATION  61 : L=  113.4744421788 DL=  1.67e-06 (AVERGE_DL)=    0.0001462149 
ITERATION  62 : L=  113.4744437267 DL=  1.55e-06 (AVERGE_DL)=    0.0001408760 
ITERATION  63 : L=  113.4744451641 DL=  1.44e-06 (AVERGE_DL)=    0.0001357485 
ITERATION  64 : L=  113.4744464982 DL=  1.33e-06 (AVERGE_DL)=    0.0001307834 
ITERATION  65 : L=  113.4744477370 DL=  1.24e-06 (AVERGE_DL)=    0.0001260240 
ITERATION  66 : L=  113.4744488866 DL=  1.15e-06 (AVERGE_DL)=    0.0001214010 
ITERATION  67 : L=  113.4744499541 DL=  1.07e-06 (AVERGE_DL)=    0.0001169847 
ITERATION  68 : L=  113.4744509447 DL=  9.91e-07 (AVERGE_DL)=    0.0001126948 
LOCALIZATION SUM CONVERGED

------------------------------------------------------
AUGMENTED HESSIAN OPTIMIZATION OF FOSTER-BOYS ORBITALS
------------------------------------------------------

Spin operator:           0
Orbital window:          4 to 16
Number of iterations:    128
Gradient tolerance:      1.000e-06
Number of pairs:         78
Davidson threshold:      2000
Diagonalization method:  LAPACK
Iter:    0   L: 113.4744509447   Grad. norm: 1.382957e-03
   *** Likely close to a maximum now. ***
       Augmented Hessian eigenvalues:  2.56e-05 -2.86e-02 -1.49e+00 -1.50e+00 ... 
Iter:    1   L: 113.4744637314   Grad. norm: 1.971548e-04
Iter:    2   L: 113.4744637318   Grad. norm: 5.116345e-10
LOCALIZATION HAS CONVERGED.

Eigenvalues of the Hessian:
  0 -2.874e-02
  1 -1.486e+00
  2 -1.501e+00
  3 -3.637e+00
  4 -3.650e+00
  5 -5.750e+00
  6 -1.719e+01
  7 -1.742e+01
  8 -1.796e+01
  9 -1.819e+01
    ...


------------------------------------------------------------------------------- 
                    LOCALIZED MOLECULAR ORBITAL COMPOSITIONS                   
------------------------------------------------------------------------------- 

The Mulliken populations for each LMO on each atom are computed
The LMO`s will be ordered according to atom index and type
  (A) Strongly localized MO`s have populations of >=0.950 on one atom
  (B) Two center bond orbitals have populations of >=0.850 on two atoms
  (C) Other MO`s are considered to be `delocalized`

FOUND  -   3 strongly local MO`s
       -  10 two center bond MO`s
       -   0 significantly delocalized MO`s

Rather strongly localized orbitals:
MO   6:   1F  -   0.990876
MO   5:   1F  -   0.990680
MO   4:   1F  -   0.986063
Bond-like localized orbitals:
MO  16:  10H  -   0.503010  and   3C  -   0.510313
MO  15:   9H  -   0.487921  and   3C  -   0.524994
MO  14:   8H  -   0.499592  and   3C  -   0.512805
MO  13:   7H  -   0.496469  and   2C  -   0.513559
MO  12:   6H  -   0.506939  and   2C  -   0.500872
MO  11:   5H  -   0.503578  and   0C  -   0.512664
MO  10:   4H  -   0.500345  and   0C  -   0.516737
MO   9:   3C  -   0.499350  and   2C  -   0.538850
MO   8:   2C  -   0.522306  and   0C  -   0.524008
MO   7:   1F  -   0.738992  and   0C  -   0.264829
Localized MO's were stored in: fluoropropane_g.proc0.loc

Localizing the core orbitals
------------------------------------------------------------------------------
                           ORCA ORBITAL LOCALIZATION
------------------------------------------------------------------------------

Input orbitals are from                  ... fluoropropane_g.proc0.loc
Output orbitals are to                   ... fluoropropane_g.proc0.loc
Max. number of iterations                ... 128
Localizations seeded randomly            ... off
Convergence tolerance                    ... 1.000e-06
Using relative localization threshhold   ... 1.000e-08
Treshold for strong local MOs            ... 9.500e-01
Treshold for bond MOs                    ... 8.500e-01
Operator                                 ... 0
Orbital range for localization           ... 0 to 3
Localization criterion                   ... FOSTER-BOYS (AUGMENTED HESSIAN)
Doing the dipole integrals     ... o.k.
Initial value of the localization sum :    24.899789
ITERATION   0 : L=   24.8997907226 DL=  2.10e-06 (AVERGE_DL)=    0.0005918368 
ITERATION   1 : L=   24.8997907226 DL=  0.00e+00 (AVERGE_DL)=    0.0000000000 
LOCALIZATION SUM CONVERGED

------------------------------------------------------
AUGMENTED HESSIAN OPTIMIZATION OF FOSTER-BOYS ORBITALS
------------------------------------------------------

Spin operator:           0
Orbital window:          0 to 3
Number of iterations:    128
Gradient tolerance:      1.000e-06
Number of pairs:         6
Davidson threshold:      2000
Diagonalization method:  LAPACK
Iter:    0   L: 24.8997907226   Grad. norm: 8.934061e-07
   *** Likely close to a maximum now. ***
       Augmented Hessian eigenvalues:  2.38e-14 -2.85e+01 -3.29e+01 -3.35e+01 ... 
Iter:    1   L: 24.8997907226   Grad. norm: 2.114853e-20
LOCALIZATION HAS CONVERGED.

Eigenvalues of the Hessian:
  0 -2.846e+01
  1 -3.292e+01
  2 -3.355e+01
  3 -8.263e+01
  4 -9.317e+01
  5 -1.276e+02


------------------------------------------------------------------------------- 
                    LOCALIZED MOLECULAR ORBITAL COMPOSITIONS                   
------------------------------------------------------------------------------- 

The Mulliken populations for each LMO on each atom are computed
The LMO`s will be ordered according to atom index and type
  (A) Strongly localized MO`s have populations of >=0.950 on one atom
  (B) Two center bond orbitals have populations of >=0.850 on two atoms
  (C) Other MO`s are considered to be `delocalized`

FOUND  -   4 strongly local MO`s
       -   0 two center bond MO`s
       -   0 significantly delocalized MO`s

Rather strongly localized orbitals:
MO   3:   3C  -   0.999554
MO   2:   2C  -   0.999279
MO   1:   1F  -   0.999811
MO   0:   0C  -   0.999533
Localized MO's were stored in: fluoropropane_g.proc0.loc

Warning: internal orbitals are localized - no re-canonicalization of internal orbitals

--------------------------
CLOSED-SHELL FOCK OPERATOR
--------------------------

RI-JK section for the Fock operator:
  RHF full Fock operator         ... done
  RHF frozen core Fock operator  ... done
Time needed for Fock operator              ...            0.564 sec
Reference energy                           ...   -217.127000982

--------------
DLPNO SETTINGS (2015 fully linear scaling implementation)
--------------

TCutMKN:           1.000e-03
TCutPAO:           1.000e-03
TCutPNO:           1.000e-07
TCutPNOSingles:    3.000e-09
TCutEN:            9.700e-01
TCutPAOExt:        1.000e-01
TCutPairs:         1.000e-05
TCutPre:           1.000e-07
TCutOSV:           1.000e-06
TCutDOij:          1.000e-05
TCutDO:            5.000e-03
TCutC:             1.000e-04
TCutCPAO:          1.000e-03
TCutCMO:           1.000e-03
TScaleDOMP2PreScr: 2.000e+00
TScaleMKNMP2PreScr:1.000e+01
TScalePNOMP2PreScr:1.000e+00
PAO overlap thresh 1.000e-08
Using PNOs for Singles Fock computation
Use new domains
Use fully linear algorithm
TCutTNO:           1.000e-09
TCutMP2Pairs:      1.000e-06
TCutDOStrong:      2.000e-03
TCutMKNStrong:     1.000e-02
TCutMKNWeak:       1.000e-01
TCutDOWeak:        4.000e-03
NTCutTNO:          1

--------------------------
Calculating differential overlap integrals ... ok
--------------------------
ELECTRON PAIR PRESCREENING
--------------------------

Dipole-based pair screening          .... used

   TCutDOij = 1.000000e-05
   TCutPre  = 1.000000e-07
   .... Finished loop over pairs
Total time spent in the prescreening                  ...     0.000 sec
sum of pair energies estimated for screened out pairs ...       0.000000000000 Eh
Thresholds for map construction and integral transformation for crude MP2:
   TCutMKN                    ...     1.0e-02
   TCutDO                     ...     1.0e-02
   TCutPairs                  ...     1.0e-05
   TCutPNO_CrudeMP2           ...     1.0e-07
   TCutPNOSingles_CrudeMP2    ...     3.0e-09
--------------------------------
LOCAL RI TRANSFORMATION (IAVPAO)
--------------------------------

Orbital window:       4 to 16
Number of PAOs:      91
Basis functions:     91 (45 shells)
Aux. functions:     322 (114 shells)

Processing maps (0.0 sec)
Average map sizes:
   Aux shells -> MOs              13.0
   Aux shells -> PAOs             91.0
   MOs        -> AO shells        45.0
   PAOs       -> AO shells        45.0

Calculating integrals (0.2 sec, 2.910 MB)
Sorting integrals (0.0 sec, 2.906 MB)
Total time for the integral transformation: 0.2 sec
--------------------------------
INITIAL GUESS AND PNO GENERATION
--------------------------------

PNO truncation parameters                   .... 
    PAOOverlapThresh   =        1.000e-08

    TCutPairs          =        1.000e-05
    TCutPNO            =        1.000e-07
    TCutPNOSingles     =        3.000e-09
    TCutMP2Pairs       =        1.000e-06
    TCutMKN            =        1.000e-02
    TCutDO             =        1.000e-02

Pair selection                          .... not used
Type of local MP2 treatment                 .... semi-local MP2
Strategy for PNO selection                  .... occupation number selection
Pair density normalization                  .... MP2 norm
Spin component scaling                      .... not used

   .... Finished loop over pairs
Making pair pair interaction lists          ... done

                       ===========================
                         91 OF   91 PAIRS ARE KEPT CCSD PAIRS
                          0 OF   91 PAIRS ARE KEPT MP2 PAIRS FOR (T)
                          0 OF   91 PAIRS ARE SKIPPED
                       ===========================

Total time spent in the initial guess                 ...     0.091 sec
SL-MP2 correlation energy (all non-screened pairs)    ...      -0.599019764925 Eh

Initial PNO correlation energy                        ...      -0.598855063250 Eh
sum of pair energies prescreened and skipped MP2 pairs...       0.000000000000 Eh
sum of pair energies of crude MP2 skipped pairs only  ...       0.000000000000 Eh
sum of MP2 pair energies for pairs that were not kept ...       0.000000000000 Eh
sum of PNO error estimates for the kept pairs         ...      -0.000164701675 Eh
                                                          --------------------
sum of all corrections                                         -0.000164701675
Initial total correlation energy                               -0.599019764925
Thresholds for map construction and integral transformation for fine MP2 and CCSD(T) calculation:
   TCutMKN   ...     1.0e-03
   TCutDO    ...     5.0e-03
   TCutPairs ...     1.0e-05
   TCutCMO   ...     1.0e-03
   TCutCPAO  ...     1.0e-03

Thresholds for map construction and integral transformation for strong Triples:
   TCutMKN   ...     1.0e-02
   TCutDO    ...     1.0e-02
   TCutCMO   ...     1.0e-03
   TCutCPAO  ...     1.0e-03

Thresholds for map construction and integral transformation for weak Triples:
   TCutMKN   ...     1.0e-01
   TCutDO    ...     2.0e-02
   TCutCMO   ...     1.0e-03
   TCutCPAO  ...     1.0e-03

--------------------------------
LOCAL RI TRANSFORMATION (IAVPAO)
--------------------------------

Orbital window:       4 to 16
Number of PAOs:      91
Basis functions:     91 (45 shells)
Aux. functions:     322 (114 shells)

Processing maps (0.0 sec)
Average map sizes:
   Aux shells -> MOs              13.0
   Aux shells -> PAOs             91.0
   MOs        -> AO shells        45.0
   PAOs       -> AO shells        45.0

Calculating integrals (0.2 sec, 2.910 MB)
Sorting integrals (0.0 sec, 2.906 MB)
Total time for the integral transformation: 0.2 sec
--------------------------------
INITIAL GUESS AND PNO GENERATION
--------------------------------

PNO truncation parameters                   .... 
    ScaleTCutPNO       =        1.000e-02
    PAOOverlapThresh   =        1.000e-08

    TCutPairs          =        1.000e-05
    TCutPNO            =        1.000e-07
    TCutPNOSingles     =        3.000e-09
    TCutMP2Pairs       =        1.000e-06
    TCutMKN            =        1.000e-03
    TCutDO             =        5.000e-03

Pair selection                          .... not used
Type of local MP2 treatment                 .... full local PMP2
Strategy for PNO selection                  .... occupation number selection
Pair density normalization                  .... MP2 norm
Spin component scaling                      .... not used

PASS-1: Formation of initial guess LMP2 amplitudes
Initial amplitudes guess done. Entering LMP2 iteration loop:
   Max. no of iterations          ...  50
   Energy convergence tolerance   ...    1.0e-07
   Residual convergence tolerance ...    5.0e-07
   Fock matrix cutoff             ...    1.0e-05 Eh
   DIIS convergence acceleration parameters:
        Max # vectors in DIIS     ... 7
        Start iteration of DIIS   ... 0
        Levelshift                ... 2.000e-01
        Damping factor 1          ... 5.000e-01
        Damping factor 2          ... 1.000e+00
   L-MP2 PNO cut-off              ...   1.0e-09
   L-MP2 PNO cut-off (core)       ...   1.0e-11
                           *** Turning on DIIS ***
LMP2-Iter=   0:  ELMP2= -0.612017352230  DE=   1.3e-02 RMAX=   9.4e-03
LMP2-Iter=   1:  ELMP2= -0.618101240746  DE=   6.1e-03 RMAX=   5.9e-03
LMP2-Iter=   2:  ELMP2= -0.618982285372  DE=   8.8e-04 RMAX=   1.2e-03
LMP2-Iter=   3:  ELMP2= -0.619095136266  DE=   1.1e-04 RMAX=   4.9e-04
LMP2-Iter=   4:  ELMP2= -0.619104131397  DE=   9.0e-06 RMAX=   4.6e-05
LMP2-Iter=   5:  ELMP2= -0.619103447913  DE=   6.8e-07 RMAX=   1.7e-05
LMP2-Iter=   6:  ELMP2= -0.619103279650  DE=   1.7e-07 RMAX=   1.2e-06
LMP2-Iter=   7:  ELMP2= -0.619103255842  DE=   2.4e-08 RMAX=   3.3e-07
LMP2-Iter=   8:  ELMP2= -0.619103260554  DE=   4.7e-09 RMAX=   3.3e-08 => CONVERGED
PASS-2: Formation of Pair natural orbitals
   .... Finished loop over pairs

 PNO Occupation Number Statistics: 
  | Av. % of trace(Dij) retained        ...  99.649780017016
  | sigma^2 in % of trace(Dij) retained ...   3.90e-01
  | Av. % of trace(Di) retained         ...  99.999894223596
  | sigma^2 in % of trace(Di) retained  ...   2.00e-09
 Distributions of % trace(Dij) recovered:
  |       >= 99.9  ...    58 ( 63.7 % of all pairs)
  |   [90.0, 99.0) ...    10 ( 11.0 % of all pairs)
  |   [99.0, 99.9) ...    23 ( 25.3 % of all pairs)
 Distributions of % trace(Di) recovered :
  |       >= 99.9  ...    13 (100.0 % of all I-pairs )

Making pair pair interaction lists          ... done

                       ===========================
                         91 OF   91 PAIRS ARE KEPT
                       ===========================

Total time spent in the initial guess                 ...     0.792 sec
L-MP2 correlation energy (all non-screened pairs)     ...      -0.619103260554 Eh
L-MP2 PNO error correction                            ...      -0.000001834267 Eh
                                                          --------------------
Initial total L-MP2 energy (non-screened pairs)       ...      -0.619105094821 Eh

Initial PNO correlation energy                        ...      -0.618955055914 Eh
sum of pair energies estimated for screened out pairs ...       0.000000000000 Eh
sum of MP2 pair energies for pairs that were not kept ...       0.000000000000 Eh
sum of PNO error estimates for the kept pairs         ...      -0.000150038907 Eh
                                                          --------------------
sum of all corrections                                         -0.000150038907
Initial total correlation energy                               -0.619105094821
Thresholds for map construction and integral transformation for fine MP2 and CCSD(T) calculation:
   TCutMKN   ...     1.0e-03
   TCutDO    ...     5.0e-03
   TCutPairs ...     1.0e-05
   TCutCMO   ...     1.0e-03
   TCutCPAO  ...     1.0e-03

Time for aux screen maps:            0.001
Time for maps after fine MP2:            0.002
-----------------------------
LOCAL RI TRANSFORMATION (IJV)
-----------------------------

Orbital window:       4 to 16
Basis functions:     91 (45 shells)
Aux. functions:     322 (114 shells)

Processing maps (0.0 sec)
Average map sizes:
   Aux shells -> MOs(i)           13.0
   Aux shells -> MOs(j)           13.0
   MOs        -> AO shells        45.0

Calculating integrals (0.2 sec, 0.419 MB)
Sorting integrals (0.0 sec, 0.415 MB)
Total time for the integral transformation: 0.3 sec
--------------------------------
LOCAL RI TRANSFORMATION (VABPAO)
--------------------------------

Number of PAOs:      91
Basis functions:     91 (45 shells)
Aux. functions:     322 (114 shells)

Processing maps (0.0 sec)
Average map sizes:
   Aux shells -> PAOs             91.0
   PAOs       -> AO shells        45.0

Calculating integrals (0.3 sec, 36.082 MB)
Finished


-------------------------------------
Pair Pair Term precalculation with     
RI-(ij|mn) and (im|jn) transformation  
ON THE FLY                             
-------------------------------------

   IBatch   1 (of   1)              ... done (    2.630 sec)
Total EXT                           ...           2.681 sec

---------------------
RI-PNO TRANSFORMATION
---------------------

Total Number of PNOs                   ...  2369
Average number of PNOs per pair        ...    26
Maximal number of PNOs per pair        ...    42
   #pairs with  1 -  5 PNOs   :    0
   #pairs with  6 - 10 PNOs   :    5
   #pairs with 11 - 15 PNOs   :    8
   #pairs with 16 - 20 PNOs   :   11
   #pairs with 21 - 25 PNOs   :   14
   #pairs with 26 - 30 PNOs   :   17
   #pairs with 31 - 35 PNOs   :   23
   #pairs with 36 - 40 PNOs   :   12
   #pairs with 41 - 45 PNOs   :    1
   #pairs with 46 - 50 PNOs   :    0

Generation of (ij|ab)[P] integrals            ... on
Generation of (ia|bc)[P],(ja|bc)[P] integrals ... on
Storage of 3 and 4 external integrals         ... on
Generation of ALL (ka|bc)[P] integrals        ... on
Keep RI integrals in memory                   ... off

Ibatch:  1 (of  1)
Starting 2-4 index PNO integral generation ... done

Timings:
Total PNO integral transformation time     ...          0.901 sec
Size of the 3-external file                ...        16 MB
Size of the 4-external file                ...        68 MB
Size of the IKJL file                      ...         0 MB
Size of the all 3-external file            ...       107 MB
Size of the 1-external file                ...         0 MB

Making pair/pair overlap matrices          ... done (    0.117 sec)
Size of the pair overlap file              ... 31 MB
Redoing the guess amplitudes               ... done (    0.001 sec)

-------------------------
FINAL STARTUP INFORMATION
-------------------------

E(0)                                       ...   -217.127000982
E(L-MP2)                                   ...     -0.619105095
E(L-MP2) including corrections             ...     -0.619105095
Initial E(tot)                             ...   -217.746106077
<T|T>                                      ...      0.168254873
Number of pairs included                   ... 91
Total number of pairs                      ... 91

------------------------------------------------
                  RHF COUPLED CLUSTER ITERATIONS
------------------------------------------------

Number of PNO amplitudes to be optimized   ...        68181
Number of non-PNO amplitudes               ...       498316
Untruncated number of regular amplitudes   ...       498316

Iter       E(tot)           E(Corr)          Delta-E          Residual     Time
  0   -217.726196952     -0.599045931      0.020059164      0.021748417    0.77
                           *** Turning on DIIS ***
  1   -217.770266319     -0.643115298     -0.044069367      0.011818983    0.79
  2   -217.790430638     -0.663279617     -0.020164319      0.004192456    0.84
  3   -217.793410380     -0.666259358     -0.002979742      0.002484388    0.84
  4   -217.794220124     -0.667069103     -0.000809745      0.000812664   11.25
  5   -217.794403987     -0.667252966     -0.000183863      0.000272525   29.48
  6   -217.794431467     -0.667280446     -0.000027480      0.000127866   19.35
  7   -217.794436761     -0.667285740     -0.000005294      0.000043573    0.80
  8   -217.794437507     -0.667286486     -0.000000746      0.000013874    0.82
  9   -217.794437116     -0.667286095      0.000000391      0.000003455    0.82
               --- The Coupled-Cluster iterations have converged ---

----------------------
COUPLED CLUSTER ENERGY
----------------------

E(0)                                       ...   -217.127000982
E(CORR)(strong-pairs)                      ...     -0.667286095
E(CORR)(weak-pairs)                        ...     -0.000150039
E(CORR)(corrected)                         ...     -0.667436134
E(TOT)                                     ...   -217.794437116
Singles Norm <S|S>**1/2                    ...      0.043805432  
T1 diagnostic                              ...      0.008590952  

------------------
LARGEST AMPLITUDES
------------------
  11-> 25  11-> 25       0.044435
   7-> 17   7-> 17       0.044318
  14-> 26  14-> 26       0.042540
  16-> 26  16-> 26       0.042513
  15-> 26  15-> 26       0.040126
  12-> 17  12-> 17       0.037660
  10-> 17  10-> 17       0.036667
  13-> 17  13-> 17       0.036564
  11-> 17  11-> 17       0.036316
  16-> 17  16-> 17       0.036297
  14-> 17  14-> 17       0.036008
  12-> 26  12-> 26       0.035824
  15-> 17  15-> 17       0.034540
  13-> 26  13-> 26       0.034117
   9-> 29   9-> 29       0.031266
  14-> 17  14-> 26       0.030753


-------------------------------------------
DLPNO BASED TRIPLES CORRECTION
-------------------------------------------

Singles multiplier          ...  1.000000
TCutTNO                     ... 1.000e-09
TCutMP2Pairs                ... 1.000e-06
TCutDOStrong                ... 1.000e-02
TCutMKNStrong               ... 1.000e-02
TCutDOWeak                  ... 2.000e-02
TCutMKNWeak                 ... 1.000e-01

Fragment selection                          .... not used
Number of Triples that are to be computed   ...       442

 . . . . . . . . .
10% done  
20% done  
30% done  
40% done  
50% done  
60% done  
70% done  
80% done  
90% done               (      4.404 sec)
Triples timings:
Total time for T0               ...     4.766 sec
Total time for Iterative (T)    ...     0.000 sec
Total time of overall (T)       ...     4.962 sec

Triples List generation         ...     0.000 sec
TNO generation                  ...     0.361 sec
Pair density generation         ...     0.001 sec
Look up tables                  ...     0.000 sec
Generating 3-index integrals    ...     1.726 sec
  Make 4-ind.int. from 3-ind.int...     1.045 sec
  Projecting amplitudes (D + S) ...     0.358 sec
  Downprojecting integrals      ...     0.000 sec
  Energy contr. (sum over a,b,c)...     0.393 sec
Fitting ET(->0)                 ...     0.000 sec

Everything after 3-index        ...     2.677 sec

Timing details:
 TNO integrals                  ...     2.624 sec
   Reading 3-index integrals    ...     0.007 sec
   Sorting integrals            ...     0.614 sec
       Sorting integrals 1      ...     0.000 sec
       Sorting integrals 2      ...     0.138 sec
       Sorting integrals 3      ...     0.035 sec
       Sorting integrals 4      ...     0.004 sec
       Sorting integrals 5      ...     0.009 sec
       Sorting integrals 6      ...     0.428 sec
   Calculating local VM**-1/2   ...     0.033 sec
   Orthogonal. integrals        ...     0.064 sec
   Multipl. 3-index integrals   ...     1.906 sec
   All concerning IRIab (w/TNO) ...     0.469 sec

 Calculate W0/W1                ...     0.878 sec
 W 3-ext contribution           ...     0.499 sec
 W 3-int contribution           ...     0.149 sec
 Sorting W                      ...     0.206 sec

 V exchange contribution        ...     0.158 sec

 Timings for Triples without generation
     of 3-index integrals       ...     2.676 sec
       0 weak pairs             ...     2.676 sec
       1 weak pair              ...     0.000 sec
       2 weak pairs             ...     0.000 sec
       3 weak pairs             ...     0.000 sec
  Extra time for extrapolation  ...     0.000 sec

Number of Triples   (0, 1, 2, 3 weak pairs; overall):    442       0       0       0  (   442)
Number of Atoms     (0, 1, 2, 3 weak pairs; overall):   10.9     0.0     0.0     0.0  (    11)
Number of PAOs      (0, 1, 2, 3 weak pairs; overall):   90.4     0.0     0.0     0.0  (    91)
Number of AuxFcns   (0, 1, 2, 3 weak pairs; overall):  176.0     0.0     0.0     0.0  (   322)
Number of TNOs      (0, 1, 2, 3 weak pairs         ):   52.5     0.0     0.0     0.0
Aver. Number of NTNO, Atoms, PAOs, AuxFcns / Triples:    442    52.5    10.9    90.4   176.0

Triples Correction (T)                     ...     -0.015578105
Final correlation energy                   ...     -0.683014239
E(CCSD)                                    ...   -217.794437116
E(CCSD(T))                                 ...   -217.810015221


Maximum memory used throughout the entire calculation: 1069.9 MB


------------------------------------------------------------------------------- 
                                     TIMINGS                                   
------------------------------------------------------------------------------- 


Total execution time                   ...       77.715 sec

Localization of occupied MO's          ...        0.359 sec (  0.5%)
Fock Matrix Formation                  ...        0.564 sec (  0.7%)
Global overlap, Fock, MKN matrices     ...        0.108 sec (  0.1%)
Differential overlap integrals         ...        0.050 sec (  0.1%)
Organizing maps                        ...        0.008 sec (  0.0%)
RI 3-index integral generations        ...        1.018 sec (  1.3%)
RI-PNO integral transformation         ...        3.807 sec (  4.9%)
Initial Guess                          ...        0.891 sec (  1.1%)
DIIS Solver                            ...        0.185 sec (  0.2%)
State Vector Update                    ...        0.006 sec (  0.0%)
Sigma-vector construction              ...       65.718 sec ( 84.6%)
  <D|H|D>(0-ext)                       ...        0.459 sec (  0.7% of sigma)
  <D|H|D>(2-ext Fock)                  ...        0.005 sec (  0.0% of sigma)
  <D|H|D>(2-ext)                       ...        0.910 sec (  1.4% of sigma)
  <D|H|D>(4-ext)                       ...        0.844 sec (  1.3% of sigma)
  <D|H|D>(4-ext-corr)                  ...        3.233 sec (  4.9% of sigma)
  CCSD doubles correction              ...        0.053 sec (  0.1% of sigma)
  <S|H|S>                              ...        0.047 sec (  0.1% of sigma)
  <S|H|D>(1-ext)                       ...        0.079 sec (  0.1% of sigma)
  <D|H|S>(1-ext)                       ...        0.004 sec (  0.0% of sigma)
  <S|H|D>(3-ext)                       ...        0.065 sec (  0.1% of sigma)
  Fock-dressing                        ...        1.221 sec (  1.9% of sigma)
  Singles amplitudes                   ...        0.059 sec (  0.1% of sigma)
  (ik|jl)-dressing                     ...        0.322 sec (  0.5% of sigma)
  (ij|ab),(ia|jb)-dressing             ...       58.322 sec ( 88.7% of sigma)
  Pair energies                        ...        0.002 sec (  0.0% of sigma)
Total Time for computing (T)           ...        4.976 sec (  6.4% of ALL)


-------------------------   --------------------
FINAL SINGLE POINT ENERGY      -217.810015221325
-------------------------   --------------------


                            ***************************************
                            *     ORCA property calculations      *
                            ***************************************

                                    ---------------------
                                    Active property flags
                                    ---------------------
   (+) Dipole Moment


------------------------------------------------------------------------------
                       ORCA ELECTRIC PROPERTIES CALCULATION
------------------------------------------------------------------------------

Dipole Moment Calculation                       ... on
Quadrupole Moment Calculation                   ... off
Polarizability Calculation                      ... off
GBWName                                         ... fluoropropane_g.gbw
Electron density file                           ... fluoropropane_g.scfp.tmp
The origin for moment calculation is the CENTER OF MASS  = ( 0.184058, -0.073791 -0.027504)

-------------
DIPOLE MOMENT
-------------
                                X             Y             Z
Electronic contribution:      5.80022      -1.83679      -0.70738
Nuclear contribution   :     -6.25803       2.50886       0.93515
                        -----------------------------------------
Total Dipole Moment    :     -0.45781       0.67207       0.22777
                        -----------------------------------------
Magnitude (a.u.)       :      0.84448
Magnitude (Debye)      :      2.14650



--------------------
Rotational spectrum 
--------------------
 
Rotational constants in cm-1:     0.483966     0.165797     0.140611 
Rotational constants in MHz : 14508.930837  4970.454611  4215.414416 

 Dipole components along the rotational axes: 
x,y,z [a.u.] :     0.503817     0.646108     0.204601 
x,y,z [Debye]:     1.280602     1.642276     0.520055 

 

Timings for individual modules:

Sum of individual times         ...       80.496 sec (=   1.342 min)
GTO integral calculation        ...        0.337 sec (=   0.006 min)   0.4 %
SCF iterations                  ...        2.337 sec (=   0.039 min)   2.9 %
MDCI module                     ...       77.823 sec (=   1.297 min)  96.7 %
                             ****ORCA TERMINATED NORMALLY****
TOTAL RUN TIME: 0 days 0 hours 1 minutes 20 seconds 738 msec
fluoropropane_g.gbw -> /home1/pantazis/klk/VDZ/Haloalkanes/fluoropropane_g.gbw
fluoropropane_g.ges -> /home1/pantazis/klk/VDZ/Haloalkanes/fluoropropane_g.ges
fluoropropane_g.job -> /home1/pantazis/klk/VDZ/Haloalkanes/fluoropropane_g.job
fluoropropane_g.loc -> /home1/pantazis/klk/VDZ/Haloalkanes/fluoropropane_g.loc
fluoropropane_g.nodes -> /home1/pantazis/klk/VDZ/Haloalkanes/fluoropropane_g.nodes
fluoropropane_g.prop -> /home1/pantazis/klk/VDZ/Haloalkanes/fluoropropane_g.prop
fluoropropane_g_property.txt -> /home1/pantazis/klk/VDZ/Haloalkanes/fluoropropane_g_property.txt
fluoropropane_g.xyz -> /home1/pantazis/klk/VDZ/Haloalkanes/fluoropropane_g.xyz
cp: cannot stat fluoropropane_g.asa.inp: No such file or directory
