! Job execution by suborca V 6.07 on ZEUS !
Job started from zeus1, running /scratch/pantazis/formamidine_t__iUYnLF/orca/orca copied from /opt/orca on zeussn129 in /scratch/pantazis/formamidine_t__iUYnLF
Job execution start: Sat Jun 29 11:26:59 CEST 2019
Shared library path: /scratch/pantazis/formamidine_t__iUYnLF/orca:/opt/openmpi_1.10.2/lib:/opt/intel/mkl/lib/intel64:/opt/intel/lib/intel64:
PBS Job ID is: 158833.icqc
izeussn129
izeussn129
izeussn129
izeussn129

                                 *****************
                                 * O   R   C   A *
                                 *****************

           --- An Ab Initio, DFT and Semiempirical electronic structure package ---

                  #######################################################
                  #                        -***-                        #
                  #          Department of theory and spectroscopy      #
                  #               Directorship: Frank Neese             #
                  #        Max Planck Institute fuer Kohlenforschung    #
                  #                Kaiser Wilhelm Platz 1               #
                  #                 D-45470 Muelheim/Ruhr               #
                  #                      Germany                        #
                  #                                                     #
                  #                  All rights reserved                #
                  #                        -***-                        #
                  #######################################################


                         Program Version 4.1.x  -  STABLE  -
                                (SVN: $Rev: 14094$)
                ($Date: 2019-06-14 15:01:15 +0200 (Fri, 14 Jun 2019) $)

                         (BUILD: $Sun Jun 23 06:18:31 CEST 2019$)


 With contributions from (in alphabetic order):
   Daniel Aravena         : Magnetic Properties
   Michael Atanasov       : Ab Initio Ligand Field Theory
   Alexander A. Auer      : GIAO ZORA
   Ute Becker             : Parallelization
   Giovanni Bistoni       : ED, Open-shell LED
   Martin Brehm           : Molecular dynamics
   Dmytro Bykov           : SCF Hessian
   Vijay G. Chilkuri      : MRCI spin determinant printing
   Dipayan Datta          : RHF DLPNO-CCSD density
   Achintya Kumar Dutta   : EOM-CC, STEOM-CC
   Dmitry Ganyushin       : Spin-Orbit,Spin-Spin,Magnetic field MRCI
   Miquel Garcia          : C-PCM Hessian
   Yang Guo               : DLPNO-NEVPT2, CIM, IAO-localization
   Andreas Hansen         : Spin unrestricted coupled pair/coupled cluster methods
   Benjamin Helmich-Paris : CASSCF linear response (MC-RPA)
   Lee Huntington         : MR-EOM, pCC
   Robert Izsak           : Overlap fitted RIJCOSX, COSX-SCS-MP3, EOM
   Christian Kollmar      : KDIIS, OOCD, Brueckner-CCSD(T), CCSD density
   Simone Kossmann        : Meta GGA functionals, TD-DFT gradient, OOMP2, MP2 Hessian
   Martin Krupicka        : AUTO-CI
   Lucas Lang             : DCDCAS
   Dagmar Lenk            : GEPOL surface, SMD
   Dimitrios Liakos       : Extrapolation schemes; parallel MDCI
   Dimitrios Manganas     : ROCIS; embedding schemes
   Dimitrios Pantazis     : SARC Basis sets
   Taras Petrenko         : DFT Hessian,TD-DFT gradient, ASA, ECA, R-Raman, ABS, FL, XAS/XES, NRVS
   Peter Pinski           : DLPNO-MP2, DLPNO-MP2 Gradient
   Christoph Reimann      : Effective Core Potentials
   Marius Retegan         : Local ZFS, SOC
   Christoph Riplinger    : Optimizer, TS searches, QM/MM, DLPNO-CCSD(T), (RO)-DLPNO pert. Triples
   Tobias Risthaus        : Range-separated hybrids, TD-DFT gradient, RPA, STAB
   Michael Roemelt        : Restricted open shell CIS
   Masaaki Saitow         : Open-shell DLPNO
   Barbara Sandhoefer     : DKH picture change effects
   Avijit Sen             : IP-ROCIS
   Kantharuban Sivalingam : CASSCF convergence, NEVPT2, FIC-MRCI
   Bernardo de Souza      : ESD, SOC TD-DFT
   Georgi Stoychev        : AutoAux, RI-MP2 NMR
   Willem Van den Heuvel  : Paramagnetic NMR
   Boris Wezisla          : Elementary symmetry handling
   Frank Wennmohs         : Technical directorship


 We gratefully acknowledge several colleagues who have allowed us to
 interface, adapt or use parts of their codes:
   Stefan Grimme, W. Hujo, H. Kruse,             : VdW corrections, initial TS optimization,
                  C. Bannwarth                     DFT functionals, gCP, sTDA/sTD-DF
   Ed Valeev                                     : LibInt (2-el integral package), F12 methods
   Garnet Chan, S. Sharma, J. Yang, R. Olivares  : DMRG
   Ulf Ekstrom                                   : XCFun DFT Library
   Mihaly Kallay                                 : mrcc  (arbitrary order and MRCC methods)
   Andreas Klamt, Michael Diedenhofen            : otool_cosmo (COSMO solvation model)
   Jiri Pittner, Ondrej Demel                    : Mk-CCSD
   Frank Weinhold                                : gennbo (NPA and NBO analysis)
   Christopher J. Cramer and Donald G. Truhlar   : smd solvation model
   Lars Goerigk                                  : TD-DFT with DH, B97 family of functionals
   V. Asgeirsson, H. Jonsson                     : NEB implementation
   FAccTs GmbH                                   : IRC, NEB, NEB-TS, Multilevel


 Your calculation uses the libint2 library for the computation of 2-el integrals
 For citations please refer to: http://libint.valeyev.net

 This ORCA versions uses:
   CBLAS   interface :  Fast vector & matrix operations
   LAPACKE interface :  Fast linear algebra routines
   SCALAPACK package :  Parallel linear algebra routines




***************************************
The coordinates will be read from file: formamidine_t.xyz
***************************************


----- Orbital basis set information -----
Your calculation utilizes the basis: cc-pVDZ 
       H, B-Ne : Obtained from the ccRepo (grant-hill.group.shef.ac.uk/ccrepo) Feb. 2017
                 T. H. Dunning, Jr., J. Chem. Phys. 90, 1007 (1989)
            He : Obtained from the ccRepo (grant-hill.group.shef.ac.uk/ccrepo) Feb. 2017
                 D. E. Woon, T. H. Dunning, Jr., J. Chem. Phys. 100, 2975 (1994)
  Li-Be, Na-Mg : Obtained from the ccRepo (grant-hill.group.shef.ac.uk/ccrepo) Feb. 2017
                 B. P. Prascher, D. E. Woon, K. A. Peterson, T. H. Dunning, Jr., A. K. Wilson, Theor. Chem. Acc. 128, 69 (2011)
         Al-Ar : Obtained from the ccRepo (grant-hill.group.shef.ac.uk/ccrepo) Feb. 2017
                 D. E. Woon, T. H. Dunning, Jr., J. Chem. Phys. 98, 1358 (1993)
            Ca : Obtained from the Peterson Research Group Website (tyr0.chem.wsu.edu/~kipeters) Feb. 2017
                 J. Koput, K. A. Peterson, J. Phys. Chem. 106, 9595 (2002)
         Sc-Zn : Obtained from the ccRepo (grant-hill.group.shef.ac.uk/ccrepo) Feb. 2017
                 N. B. Balabanov, K. A. Peterson, J. Chem. Phys. 123, 064107 (2005)
                 N. B. Balabanov, K. A. Peterson, J. Chem. Phys. 125, 074110 (2006)
         Ga-Kr : Obtained from the ccRepo (grant-hill.group.shef.ac.uk/ccrepo) Feb. 2017
                 A. K. Wilson, D. E. Woon, K. A. Peterson, T. H. Dunning, Jr., J. Chem. Phys. 110, 7667 (1999)

----- AuxC basis set information -----
Your calculation utilizes the auxiliary basis: cc-pVDZ/C 
  H-He, B, Ne, Al-Ar, Ga-Br : Obtained from the EMSL Basis Set Exchange (bse.pnl.gov) Feb. 2017
                              F. Weigend, A. Kohn, C. Hattig, J. Chem. Phys. 116, 3175 (2002)
               Li-Be, Na-Mg : Obtained from the EMSL Basis Set Exchange (bse.pnl.gov) Feb. 2017
                              C. Haettig, Phys. Chem. Chem. Phys. 7, 59 (2005)
                        C-F : Obtained from the EMSL Basis Set Exchange (bse.pnl.gov) Feb. 2017
                              C. Haettig, Phys. Chem. Chem. Phys. 7, 59 (2005)
                              F. Weigend, A. Kohn, C. Hattig, J. Chem. Phys. 116, 3175 (2002)
                         Kr : Obtained from the TURBOMOLE 7.0 basis set library
                              F. Weigend, A. Kohn, C. Hattig, J. Chem. Phys. 116, 3175 (2002)
                              S function revised in Sep. 2009

----- AuxJK basis set information -----
Your calculation utilizes the auxiliary basis: cc-pVTZ/JK 
  H, B-F, Al-Cl, Ga-Br : Obtained from the TURBOMOLE 7.0 basis set library

================================================================================
                                        WARNINGS
                       Please study these warnings very carefully!
================================================================================


WARNING: MDCI localization with Augmented Hessian Foster-Boys
  ===> : Switching off randomization!

WARNING: Post HF methods need fully converged wavefunctions
  ===> : Setting SCFConvForced true
         You can overwrite this default with %scf ConvForced false 


INFO   : the flag for use of LIBINT has been found!

================================================================================
                                       INPUT FILE
================================================================================
NAME = formamidine_t.inp
|  1> ! RHF DLPNO-CCSD(T) cc-pVDZ RIJK cc-pVTZ/JK cc-pVDZ/C
|  2> ! KDIIS SOSCF TightSCF TightPNO
|  3> 
|  4> %pal nprocs 4 end
|  5> 
|  6> %maxcore 8000
|  7> 
|  8> %scf maxiter 300
|  9>      shift shift 0.2 erroff 0.1 end
| 10> end
| 11> 
| 12> * xyzfile 0 1 formamidine_t.xyz 
| 13> 
| 14> 
| 15>                          ****END OF INPUT****
================================================================================

                       ****************************
                       * Single Point Calculation *
                       ****************************

---------------------------------
CARTESIAN COORDINATES (ANGSTROEM)
---------------------------------
  C      0.000000    0.411170    0.000000
  N     -1.036080   -0.478590    0.000000
  N      1.223920    0.032920    0.000000
  H     -0.335660    1.456290    0.000000
  H      1.848040    0.837160    0.000000
  H     -1.993710   -0.173420    0.000000
  H     -0.833530   -1.467340    0.000000

----------------------------
CARTESIAN COORDINATES (A.U.)
----------------------------
  NO LB      ZA    FRAG     MASS         X           Y           Z
   0 C     6.0000    0    12.011    0.000000    0.776999    0.000000
   1 N     7.0000    0    14.007   -1.957907   -0.904404    0.000000
   2 N     7.0000    0    14.007    2.312874    0.062210    0.000000
   3 H     1.0000    0     1.008   -0.634305    2.751989    0.000000
   4 H     1.0000    0     1.008    3.492289    1.582003    0.000000
   5 H     1.0000    0     1.008   -3.767566   -0.327716    0.000000
   6 H     1.0000    0     1.008   -1.575143   -2.772871    0.000000

--------------------------------
INTERNAL COORDINATES (ANGSTROEM)
--------------------------------
 C      0   0   0     0.000000000000     0.00000000     0.00000000
 N      1   0   0     1.365699316834     0.00000000     0.00000000
 N      1   2   0     1.281035998284   122.17116928     0.00000000
 H      1   2   3     1.097699161884   112.84977144   180.00000000
 H      3   1   2     1.018001842827   110.63912787   180.00000000
 H      2   1   3     1.005079074402   121.66919635   180.00000000
 H      2   1   3     1.009283441358   119.07804048     0.00000000

---------------------------
INTERNAL COORDINATES (A.U.)
---------------------------
 C      0   0   0     0.000000000000     0.00000000     0.00000000
 N      1   0   0     2.580797690099     0.00000000     0.00000000
 N      1   2   0     2.420807204452   122.17116928     0.00000000
 H      1   2   3     2.074350793395   112.84977144   180.00000000
 H      3   1   2     1.923744686771   110.63912787   180.00000000
 H      2   1   3     1.899324193554   121.66919635   180.00000000
 H      2   1   3     1.907269295669   119.07804048     0.00000000

---------------------
BASIS SET INFORMATION
---------------------
There are 3 groups of distinct atoms

 Group   1 Type C   : 17s4p1d contracted to 3s2p1d pattern {881/31/1}
 Group   2 Type N   : 17s4p1d contracted to 3s2p1d pattern {881/31/1}
 Group   3 Type H   : 4s1p contracted to 2s1p pattern {31/1}

Atom   0C    basis set group =>   1
Atom   1N    basis set group =>   2
Atom   2N    basis set group =>   2
Atom   3H    basis set group =>   3
Atom   4H    basis set group =>   3
Atom   5H    basis set group =>   3
Atom   6H    basis set group =>   3
-------------------------------
AUXILIARY BASIS SET INFORMATION
-------------------------------
There are 3 groups of distinct atoms

 Group   1 Type C   : 7s5p4d2f contracted to 7s5p4d2f pattern {1111111/11111/1111/11}
 Group   2 Type N   : 7s5p4d2f contracted to 7s5p4d2f pattern {1111111/11111/1111/11}
 Group   3 Type H   : 3s2p1d contracted to 3s2p1d pattern {111/11/1}

Atom   0C    basis set group =>   1
Atom   1N    basis set group =>   2
Atom   2N    basis set group =>   2
Atom   3H    basis set group =>   3
Atom   4H    basis set group =>   3
Atom   5H    basis set group =>   3
Atom   6H    basis set group =>   3
-------------------------------
AUXILIARY BASIS SET INFORMATION
-------------------------------
There are 3 groups of distinct atoms

 Group   1 Type C   : 10s7p5d2f1g contracted to 10s7p5d2f1g pattern {1111111111/1111111/11111/11/1}
 Group   2 Type N   : 10s7p5d2f1g contracted to 10s7p5d2f1g pattern {1111111111/1111111/11111/11/1}
 Group   3 Type H   : 4s3p2d1f contracted to 4s3p2d1f pattern {1111/111/11/1}

Atom   0C    basis set group =>   1
Atom   1N    basis set group =>   2
Atom   2N    basis set group =>   2
Atom   3H    basis set group =>   3
Atom   4H    basis set group =>   3
Atom   5H    basis set group =>   3
Atom   6H    basis set group =>   3

Checking for AutoStart:
The File: formamidine_t.gbw exists
Trying to determine its content:
     ... Fine, the file contains calculation information
     ... Fine, the calculation information was read
     ... Fine, the file contains a basis set
     ... Fine, the basis set was read
     ... Fine, the file contains a geometry
     ... Fine, the geometry was read
     ... Fine, the file contains a set of orbitals
     ... Fine, the orbitals can be read
     => possible old guess file was deleted
     => GBW file was renamed to GES file
     => GES file is set as startup file
     => Guess is set to MORead
     ... now leaving AutoStart



           ************************************************************
           *        Program running with 4 parallel MPI-processes     *
           *              working on a common directory               *
           ************************************************************
------------------------------------------------------------------------------
                           ORCA GTO INTEGRAL CALCULATION
                           -- RI-GTO INTEGRALS CHOSEN --
------------------------------------------------------------------------------

                         BASIS SET STATISTICS AND STARTUP INFO

Gaussian basis set:
 # of primitive gaussian shells          ...   86
 # of primitive gaussian functions       ...  130
 # of contracted shells                  ...   30
 # of contracted basis functions         ...   62
 Highest angular momentum                ...    2
 Maximum contraction depth               ...    8
Auxiliary gaussian basis set:
 # of primitive gaussian shells          ...  115
 # of primitive gaussian functions       ...  357
 # of contracted shells                  ...  115
 # of contracted aux-basis functions     ...  357
 Highest angular momentum                ...    4
 Maximum contraction depth               ...    1
Ratio of auxiliary to basis functions    ...  5.76
Integral package used                  ... LIBINT
 One Electron integrals                  ... done
 Ordering auxiliary basis shells         ... done
 Integral threshhold             Thresh  ...  2.500e-11
 Primitive cut-off               TCut    ...  2.500e-12
 Pre-screening matrix                    ... done
 Shell pair data                         ... 
 Ordering of the shell pairs             ... done (   0.000 sec) 465 of 465 pairs
 Determination of significant pairs      ... done (   0.000 sec)
 Creation of shell pair data             ... done (   0.000 sec)
 Storage of shell pair data              ... done (   0.000 sec)
 Shell pair data done in (   0.001 sec)
 Computing two index integrals           ... done
 Cholesky decomposition of the V-matrix  ... done


Timings:
 Total evaluation time                   ...   0.217 sec (  0.004 min)
 One electron matrix time                ...   0.009 sec (  0.000 min) =  4.2%
 Schwartz matrix evaluation time         ...   0.131 sec (  0.002 min) = 60.3%
 Two index repulsion integral time       ...   0.026 sec (  0.000 min) = 11.9%
 Cholesky decomposition of V             ...   0.025 sec (  0.000 min) = 11.4%
 Three index repulsion integral time     ...   0.000 sec (  0.000 min) =  0.0%



           ************************************************************
           *        Program running with 4 parallel MPI-processes     *
           *              working on a common directory               *
           ************************************************************
-------------------------------------------------------------------------------
                                 ORCA SCF
-------------------------------------------------------------------------------

------------
SCF SETTINGS
------------
Hamiltonian:
 Ab initio Hamiltonian  Method          .... Hartree-Fock(GTOs)
 RI-approximation to the Coulomb term is turned on
   Number of auxiliary basis functions  .... 357
   RI-JK (J+K treated both via RI)      .... on


General Settings:
 Integral files         IntName         .... formamidine_t
 Hartree-Fock type      HFTyp           .... RHF
 Total Charge           Charge          ....    0
 Multiplicity           Mult            ....    1
 Number of Electrons    NEL             ....   24
 Basis Dimension        Dim             ....   62
 Nuclear Repulsion      ENuc            ....     72.0012552270 Eh

Convergence Acceleration:
 DIIS                   CNVDIIS         .... off
 Newton-Raphson         CNVNR           .... off
 SOSCF                  CNVSOSCF        .... on
   Start iteration      SOSCFMaxIt      ....   150
   Startup grad/error   SOSCFStart      ....  0.003300
 Level Shifting         CNVShift        .... on
   Level shift para.    LevelShift      ....    0.2000
   Turn off err/grad.   ShiftErr        ....    0.1000
 Zerner damping         CNVZerner       .... off
 Static damping         CNVDamp         .... off
 Fernandez-Rico         CNVRico         .... off

SCF Procedure:
 Maximum # iterations   MaxIter         ....   300
 SCF integral mode      SCFMode         .... Direct
   Integral package                     .... LIBINT
 Reset frequency        DirectResetFreq ....    20
 Integral Threshold     Thresh          ....  2.500e-11 Eh
 Primitive CutOff       TCut            ....  2.500e-12 Eh

Convergence Tolerance:
 Convergence Check Mode ConvCheckMode   .... Total+1el-Energy
 Convergence forced     ConvForced      .... 1
 Energy Change          TolE            ....  1.000e-08 Eh
 1-El. energy change                    ....  1.000e-05 Eh
 Orbital Gradient       TolG            ....  1.000e-05
 Orbital Rotation angle TolX            ....  1.000e-05


Diagonalization of the overlap matrix:
Smallest eigenvalue                        ... 5.655e-03
Time for diagonalization                   ...    0.003 sec
Threshold for overlap eigenvalues          ... 1.000e-08
Number of eigenvalues below threshold      ... 0
Time for construction of square roots      ...    0.003 sec
Total time needed                          ...    0.006 sec

---------------------
INITIAL GUESS: MOREAD
---------------------
Guess MOs are being read from file: formamidine_t.ges
Input Geometry matches current geometry (good)
Atom 0: N(Shells)= 6 and 10 - projection required
Input basis set needs projection
NBasis(read)= 146
NBasis(calc)= 62
Basis set overlap was calculated
Using GuessMode=FMatrix for the initial guess
C*T matrix was formed
Effective Fockian was calculated
Effective Fockian was diagonalized
Initial density was built
                      ------------------
                      INITIAL GUESS DONE (   0.0 sec)
                      ------------------
--------------
SCF ITERATIONS
--------------
ITER       Energy         Delta-E        Max-DP      RMS-DP      [F,P]   Gradient Norm
                             ****Turning on KDIIS(Cayley)****
  0   -149.0921660267   0.000000000000 0.00122297  0.00008163  0.0049466   0.005803727
  1   -149.0922333452  -0.000067318519 0.00263912  0.00017015  0.0044498   0.005261908
  2   -149.0923450397  -0.000111694428 0.00447049  0.00029046  0.0036092   0.004266428
                      *** Initiating the SOSCF procedure ***
                           *** Shutting down KDIIS ***
                      *** Re-Reading the Fockian *** 
                      *** Removing any level shift *** 
ITER      Energy       Delta-E        Grad      Rot      Max-DP    RMS-DP
  3   -149.09248729  -0.0001422532  0.002167  0.002167  0.006948  0.000444
  4   -149.09257017  -0.0000828785  0.000109  0.000194  0.000184  0.000008
  5   -149.09257024  -0.0000000726  0.000038  0.000075  0.000067  0.000005
  6   -149.09257028  -0.0000000317  0.000011  0.000054  0.000048  0.000003
  7   -149.09257028  -0.0000000040  0.000003  0.000003  0.000011  0.000001
                  ***Gradient check signals convergence***
              ***Rediagonalizing the Fockian in SOSCF/NRSCF***

               *****************************************************
               *                     SUCCESS                       *
               *           SCF CONVERGED AFTER   8 CYCLES          *
               *****************************************************


----------------
TOTAL SCF ENERGY
----------------

Total Energy       :         -149.09257028 Eh           -4057.01509 eV

Components:
Nuclear Repulsion  :           72.00125523 Eh            1959.25376 eV
Electronic Energy  :         -221.09382551 Eh           -6016.26885 eV
One Electron Energy:         -344.52847946 Eh           -9375.09655 eV
Two Electron Energy:          123.43465396 Eh            3358.82769 eV

Virial components:
Potential Energy   :         -297.92450169 Eh           -8106.93784 eV
Kinetic Energy     :          148.83193141 Eh            4049.92275 eV
Virial Ratio       :            2.00175123


---------------
SCF CONVERGENCE
---------------

  Last Energy change         ...   -2.2345e-10  Tolerance :   1.0000e-08
  Last MAX-Density change    ...    3.7949e-06  Tolerance :   1.0000e-07
  Last RMS-Density change    ...    1.9216e-07  Tolerance :   5.0000e-09
  Last Orbital Gradient      ...    1.2214e-06  Tolerance :   1.0000e-05
  Last Orbital Rotation      ...    1.3270e-06  Tolerance :   1.0000e-05

             **** THE GBW FILE WAS UPDATED (formamidine_t.gbw) ****
             **** DENSITY FILE WAS UPDATED (formamidine_t.scfp.tmp) ****
             **** ENERGY FILE WAS UPDATED (formamidine_t.en.tmp) ****
----------------
ORBITAL ENERGIES
----------------

  NO   OCC          E(Eh)            E(eV) 
   0   2.0000     -15.570414      -423.6925 
   1   2.0000     -15.515134      -422.1883 
   2   2.0000     -11.313761      -307.8631 
   3   2.0000      -1.243957       -33.8498 
   4   2.0000      -1.127629       -30.6844 
   5   2.0000      -0.818516       -22.2729 
   6   2.0000      -0.731409       -19.9027 
   7   2.0000      -0.624294       -16.9879 
   8   2.0000      -0.609497       -16.5852 
   9   2.0000      -0.516315       -14.0496 
  10   2.0000      -0.409103       -11.1322 
  11   2.0000      -0.349550        -9.5117 
  12   0.0000       0.180445         4.9102 
  13   0.0000       0.207642         5.6502 
  14   0.0000       0.213377         5.8063 
  15   0.0000       0.245449         6.6790 
  16   0.0000       0.278321         7.5735 
  17   0.0000       0.451811        12.2944 
  18   0.0000       0.523075        14.2336 
  19   0.0000       0.649941        17.6858 
  20   0.0000       0.704539        19.1715 
  21   0.0000       0.722673        19.6649 
  22   0.0000       0.756418        20.5832 
  23   0.0000       0.812864        22.1192 
  24   0.0000       0.909095        24.7377 
  25   0.0000       0.950340        25.8601 
  26   0.0000       0.962016        26.1778 
  27   0.0000       1.010453        27.4958 
  28   0.0000       1.069214        29.0948 
  29   0.0000       1.077819        29.3290 
  30   0.0000       1.092906        29.7395 
  31   0.0000       1.210811        32.9478 
  32   0.0000       1.235088        33.6085 
  33   0.0000       1.351393        36.7733 
  34   0.0000       1.416876        38.5552 
  35   0.0000       1.439749        39.1776 
  36   0.0000       1.527168        41.5564 
  37   0.0000       1.568679        42.6859 
  38   0.0000       1.598256        43.4907 
  39   0.0000       1.742122        47.4055 
  40   0.0000       1.803562        49.0774 
  41   0.0000       1.845414        50.2163 
  42   0.0000       1.879171        51.1348 
  43   0.0000       1.918694        52.2103 
  44   0.0000       2.002084        54.4795 
  45   0.0000       2.026267        55.1375 
  46   0.0000       2.132044        58.0159 
  47   0.0000       2.297605        62.5210 
  48   0.0000       2.379681        64.7544 
  49   0.0000       2.425445        65.9997 
  50   0.0000       2.456515        66.8452 
  51   0.0000       2.540744        69.1372 
  52   0.0000       2.653953        72.2177 
  53   0.0000       2.719159        73.9921 
  54   0.0000       2.793666        76.0195 
  55   0.0000       2.807273        76.3898 
  56   0.0000       2.908431        79.1424 
  57   0.0000       2.988554        81.3227 
  58   0.0000       3.073941        83.6462 
  59   0.0000       3.270933        89.0066 
  60   0.0000       3.385687        92.1292 
  61   0.0000       3.735553       101.6496 

                    ********************************
                    * MULLIKEN POPULATION ANALYSIS *
                    ********************************

-----------------------
MULLIKEN ATOMIC CHARGES
-----------------------
   0 C :    0.212718
   1 N :   -0.244544
   2 N :   -0.344148
   3 H :    0.027254
   4 H :    0.096235
   5 H :    0.121348
   6 H :    0.131138
Sum of atomic charges:    0.0000000

--------------------------------
MULLIKEN REDUCED ORBITAL CHARGES
--------------------------------
  0 C s       :     3.045301  s :     3.045301
      pz      :     0.805264  p :     2.574801
      px      :     0.853002
      py      :     0.916535
      dz2     :     0.006676  d :     0.167181
      dxz     :     0.048468
      dyz     :     0.008097
      dx2y2   :     0.042567
      dxy     :     0.061374
  1 N s       :     3.324352  s :     3.324352
      pz      :     1.782380  p :     3.897105
      px      :     1.047385
      py      :     1.067339
      dz2     :     0.001299  d :     0.023087
      dxz     :     0.001954
      dyz     :     0.001394
      dx2y2   :     0.009886
      dxy     :     0.008555
  2 N s       :     3.519322  s :     3.519322
      pz      :     1.295677  p :     3.788824
      px      :     1.062490
      py      :     1.430657
      dz2     :     0.003972  d :     0.036002
      dxz     :     0.007425
      dyz     :     0.002986
      dx2y2   :     0.008301
      dxy     :     0.013318
  3 H s       :     0.944056  s :     0.944056
      pz      :     0.003551  p :     0.028690
      px      :     0.003993
      py      :     0.021146
  4 H s       :     0.848060  s :     0.848060
      pz      :     0.011917  p :     0.055706
      px      :     0.020057
      py      :     0.023732
  5 H s       :     0.818430  s :     0.818430
      pz      :     0.016571  p :     0.060222
      px      :     0.033476
      py      :     0.010174
  6 H s       :     0.810701  s :     0.810701
      pz      :     0.014316  p :     0.058161
      px      :     0.008622
      py      :     0.035223


                     *******************************
                     * LOEWDIN POPULATION ANALYSIS *
                     *******************************

----------------------
LOEWDIN ATOMIC CHARGES
----------------------
   0 C :   -0.011869
   1 N :    0.032574
   2 N :   -0.168523
   3 H :    0.003302
   4 H :    0.031556
   5 H :    0.053286
   6 H :    0.059674

-------------------------------
LOEWDIN REDUCED ORBITAL CHARGES
-------------------------------
  0 C s       :     2.832713  s :     2.832713
      pz      :     0.803929  p :     2.789620
      px      :     0.994332
      py      :     0.991360
      dz2     :     0.020387  d :     0.389536
      dxz     :     0.103653
      dyz     :     0.018490
      dx2y2   :     0.097636
      dxy     :     0.149371
  1 N s       :     2.978821  s :     2.978821
      pz      :     1.655903  p :     3.922046
      px      :     1.126856
      py      :     1.139288
      dz2     :     0.004315  d :     0.066560
      dxz     :     0.004173
      dyz     :     0.002756
      dx2y2   :     0.031429
      dxy     :     0.023887
  2 N s       :     3.203105  s :     3.203105
      pz      :     1.249803  p :     3.892336
      px      :     1.173081
      py      :     1.469452
      dz2     :     0.009438  d :     0.073082
      dxz     :     0.010383
      dyz     :     0.001954
      dx2y2   :     0.019689
      dxy     :     0.031618
  3 H s       :     0.921431  s :     0.921431
      pz      :     0.011566  p :     0.075267
      px      :     0.014849
      py      :     0.048853
  4 H s       :     0.823097  s :     0.823097
      pz      :     0.034583  p :     0.145346
      px      :     0.042552
      py      :     0.068211
  5 H s       :     0.796582  s :     0.796582
      pz      :     0.053212  p :     0.150132
      px      :     0.071987
      py      :     0.024933
  6 H s       :     0.792687  s :     0.792687
      pz      :     0.049597  p :     0.147638
      px      :     0.021025
      py      :     0.077016


                      *****************************
                      * MAYER POPULATION ANALYSIS *
                      *****************************

  NA   - Mulliken gross atomic population
  ZA   - Total nuclear charge
  QA   - Mulliken gross atomic charge
  VA   - Mayer's total valence
  BVA  - Mayer's bonded valence
  FA   - Mayer's free valence

  ATOM       NA         ZA         QA         VA         BVA        FA
  0 C      5.7873     6.0000     0.2127     4.1986     4.1986    -0.0000
  1 N      7.2445     7.0000    -0.2445     3.1845     3.1845     0.0000
  2 N      7.3441     7.0000    -0.3441     3.0269     3.0269     0.0000
  3 H      0.9727     1.0000     0.0273     0.9643     0.9643     0.0000
  4 H      0.9038     1.0000     0.0962     1.0033     1.0033     0.0000
  5 H      0.8787     1.0000     0.1213     1.0033     1.0033     0.0000
  6 H      0.8689     1.0000     0.1311     1.0104     1.0104    -0.0000

  Mayer bond orders larger than 0.1
B(  0-C ,  1-N ) :   1.1934 B(  0-C ,  2-N ) :   1.9850 B(  0-C ,  3-H ) :   0.9605 
B(  1-N ,  5-H ) :   0.9821 B(  1-N ,  6-H ) :   0.9676 B(  2-N ,  4-H ) :   0.9685 


-------
TIMINGS
-------

Total SCF time: 0 days 0 hours 0 min 1 sec 

Total time                  ....       1.436 sec
Sum of individual times     ....       1.303 sec  ( 90.7%)

Fock matrix formation       ....       1.288 sec  ( 89.6%)
Diagonalization             ....       0.003 sec  (  0.2%)
Density matrix formation    ....       0.000 sec  (  0.0%)
Population analysis         ....       0.002 sec  (  0.2%)
Initial guess               ....       0.008 sec  (  0.6%)
Orbital Transformation      ....       0.000 sec  (  0.0%)
Orbital Orthonormalization  ....       0.000 sec  (  0.0%)
DIIS solution               ....       0.000 sec  (  0.0%)
SOSCF solution              ....       0.002 sec  (  0.1%)


           ************************************************************
           *        Program running with 4 parallel MPI-processes     *
           *              working on a common directory               *
           ************************************************************


------------------------------------------------------------------------------- 
                              ORCA-MATRIX DRIVEN CI                            
------------------------------------------------------------------------------- 


Wavefunction type
-----------------
Correlation treatment                      ...      CCSD     
Single excitations                         ... ON
Orbital optimization                       ... OFF
Calculation of Z vector                    ... OFF
Calculation of Brueckner orbitals          ... OFF
Perturbative triple excitations            ... ON
Calculation of F12 correction              ... OFF
Frozen core treatment                      ... chemical core (6 el)
Reference Wavefunction                     ... RHF
  Internal Orbitals:     3 ...   11 (  9 MO's/ 18 electrons)
  Virtual  Orbitals:    12 ...   61 ( 50 MO's              )
Number of AO's                             ...     62
Number of electrons                        ...     24
Number of correlated electrons             ...     18

Algorithmic settings
--------------------
Integral transformation                    ... All integrals via the RI transformation
K(C) Formation                             ... RI-DLPNO
   PNO-Integral Storage                    ... ON DISK
   PNO occupation number cut-off           ... 1.000e-07
   Singles PNO occupation number cut-off   ... 3.000e-09
   PNO Mulliken prescreening cut-off       ... 1.000e-03
   Domain cut-off (Mulliken population)    ... 1.000e-03
   PNO Normalization                       ...    1
Maximum number of iterations               ...        50
Convergence tolerance (max. residuum)      ... 1.000e-05
Level shift for amplitude update           ... 2.000e-01
Maximum number of DIIS vectors             ...         7
DIIS turned on at iteration                ...         0
Damping before turning on DIIS             ...     0.500
Damping after turning on DIIS              ...     0.000
Pair specific amplitude update             ... OFF
Natural orbital iterations                 ... OFF
Perturbative natural orbital generation    ... OFF
Printlevel                                 ... 2

Singles Fock matrix elements calculated using PNOs.

Memory handling:
----------------
Maximum memory for working arrays          ...   8000 MB
Data storage in matrix containers          ... UNCOMPRESSED
Data type for integral storage             ... DOUBLE
In-Core Storage of quantities:
   Amplitudes+Sigma Vector      ... NO
   J+K operators                ... NO
   DIIS vectors                 ... NO
   3-external integrals         ... NO
   4-external integrals         ... NO

Localization treatment:
-----------------------
Localization option                        ...    6
Localization threshhold                    ... -1.0e+00
Using relative localization threshhold     ... 1.0e-08
Neglect threshold for strong pairs         ... 1.000e-05 Eh
Prescreening threshold for very weak pairs ... 1.000e-07 Eh

Initializing the integral package          ... done
Localizing the valence orbitals
------------------------------------------------------------------------------
                           ORCA ORBITAL LOCALIZATION
------------------------------------------------------------------------------

Input orbitals are from                  ... formamidine_t.proc0.gbw
Output orbitals are to                   ... formamidine_t.proc0.loc
Max. number of iterations                ... 128
Localizations seeded randomly            ... off
Convergence tolerance                    ... 1.000e-06
Using relative localization threshhold   ... 1.000e-08
Treshold for strong local MOs            ... 9.500e-01
Treshold for bond MOs                    ... 8.500e-01
Operator                                 ... 0
Orbital range for localization           ... 3 to 11
Localization criterion                   ... FOSTER-BOYS (AUGMENTED HESSIAN)
Doing the dipole integrals     ... o.k.
Initial value of the localization sum :    40.299417
ITERATION   0 : L=   46.7856851460 DL=  6.49e+00 (AVERGE_DL)=    0.4244692299 
ITERATION   1 : L=   48.0885770786 DL=  1.30e+00 (AVERGE_DL)=    0.1902404862 
ITERATION   2 : L=   48.1121858416 DL=  2.36e-02 (AVERGE_DL)=    0.0256085723 
ITERATION   3 : L=   48.1126231226 DL=  4.37e-04 (AVERGE_DL)=    0.0034852106 
ITERATION   4 : L=   48.1127582299 DL=  1.35e-04 (AVERGE_DL)=    0.0019372615 
ITERATION   5 : L=   48.1128162949 DL=  5.81e-05 (AVERGE_DL)=    0.0012700059 
ITERATION   6 : L=   48.1128429819 DL=  2.67e-05 (AVERGE_DL)=    0.0008609923 
ITERATION   7 : L=   48.1128558178 DL=  1.28e-05 (AVERGE_DL)=    0.0005971206 
ITERATION   8 : L=   48.1128621951 DL=  6.38e-06 (AVERGE_DL)=    0.0004208869 
ITERATION   9 : L=   48.1128654360 DL=  3.24e-06 (AVERGE_DL)=    0.0003000415 
ITERATION  10 : L=   48.1128671096 DL=  1.67e-06 (AVERGE_DL)=    0.0002156157 
ITERATION  11 : L=   48.1128679842 DL=  8.75e-07 (AVERGE_DL)=    0.0001558637 
LOCALIZATION SUM CONVERGED

------------------------------------------------------
AUGMENTED HESSIAN OPTIMIZATION OF FOSTER-BOYS ORBITALS
------------------------------------------------------

Spin operator:           0
Orbital window:          3 to 11
Number of iterations:    128
Gradient tolerance:      1.000e-06
Number of pairs:         36
Davidson threshold:      2000
Diagonalization method:  LAPACK
Iter:    0   L: 48.1128679842   Grad. norm: 1.504201e-03
   *** Likely close to a maximum now. ***
       Augmented Hessian eigenvalues:  1.95e-06 -1.78e-01 -3.22e+00 -5.79e+00 ... 
Iter:    1   L: 48.1128689682   Grad. norm: 2.055697e-05
Iter:    2   L: 48.1128689685   Grad. norm: 6.326290e-09
LOCALIZATION HAS CONVERGED.

Eigenvalues of the Hessian:
  0 -1.727e-01
  1 -3.218e+00
  2 -5.804e+00
  3 -6.652e+00
  4 -6.753e+00
  5 -7.039e+00
  6 -1.053e+01
  7 -1.124e+01
  8 -1.174e+01
  9 -1.397e+01
    ...


------------------------------------------------------------------------------- 
                    LOCALIZED MOLECULAR ORBITAL COMPOSITIONS                   
------------------------------------------------------------------------------- 

The Mulliken populations for each LMO on each atom are computed
The LMO`s will be ordered according to atom index and type
  (A) Strongly localized MO`s have populations of >=0.950 on one atom
  (B) Two center bond orbitals have populations of >=0.850 on two atoms
  (C) Other MO`s are considered to be `delocalized`

FOUND  -   1 strongly local MO`s
       -   8 two center bond MO`s
       -   0 significantly delocalized MO`s

Rather strongly localized orbitals:
MO   3:   2N  -   0.959141
Bond-like localized orbitals:
MO  11:   6H  -   0.433377  and   1N  -   0.570209
MO  10:   5H  -   0.443703  and   1N  -   0.557556
MO   9:   4H  -   0.461536  and   2N  -   0.536275
MO   8:   3H  -   0.503571  and   0C  -   0.516200
MO   7:   2N  -   0.595358  and   0C  -   0.414217
MO   6:   2N  -   0.594755  and   0C  -   0.415101
MO   5:   1N  -   0.689399  and   0C  -   0.324879
MO   4:   1N  -   0.831374  and   0C  -   0.160344
Localized MO's were stored in: formamidine_t.proc0.loc

Localizing the core orbitals
------------------------------------------------------------------------------
                           ORCA ORBITAL LOCALIZATION
------------------------------------------------------------------------------

Input orbitals are from                  ... formamidine_t.proc0.loc
Output orbitals are to                   ... formamidine_t.proc0.loc
Max. number of iterations                ... 128
Localizations seeded randomly            ... off
Convergence tolerance                    ... 1.000e-06
Using relative localization threshhold   ... 1.000e-08
Treshold for strong local MOs            ... 9.500e-01
Treshold for bond MOs                    ... 8.500e-01
Operator                                 ... 0
Orbital range for localization           ... 0 to 2
Localization criterion                   ... FOSTER-BOYS (AUGMENTED HESSIAN)
Doing the dipole integrals     ... o.k.
Initial value of the localization sum :    10.607590
ITERATION   0 : L=   10.6075900927 DL=  5.47e-07 (AVERGE_DL)=    0.0004271238 
LOCALIZATION SUM CONVERGED

------------------------------------------------------
AUGMENTED HESSIAN OPTIMIZATION OF FOSTER-BOYS ORBITALS
------------------------------------------------------

Spin operator:           0
Orbital window:          0 to 2
Number of iterations:    128
Gradient tolerance:      1.000e-06
Number of pairs:         3
Davidson threshold:      2000
Diagonalization method:  LAPACK
Iter:    0   L: 10.6075900927   Grad. norm: 3.761201e-07
   *** Likely close to a maximum now. ***
       Augmented Hessian eigenvalues:  1.84e-15 -2.34e+01 -2.66e+01 -7.67e+01
Iter:    1   L: 10.6075900927   Grad. norm: 7.458672e-22
LOCALIZATION HAS CONVERGED.

Eigenvalues of the Hessian:
  0 -2.344e+01
  1 -2.664e+01
  2 -7.669e+01


------------------------------------------------------------------------------- 
                    LOCALIZED MOLECULAR ORBITAL COMPOSITIONS                   
------------------------------------------------------------------------------- 

The Mulliken populations for each LMO on each atom are computed
The LMO`s will be ordered according to atom index and type
  (A) Strongly localized MO`s have populations of >=0.950 on one atom
  (B) Two center bond orbitals have populations of >=0.850 on two atoms
  (C) Other MO`s are considered to be `delocalized`

FOUND  -   3 strongly local MO`s
       -   0 two center bond MO`s
       -   0 significantly delocalized MO`s

Rather strongly localized orbitals:
MO   2:   2N  -   0.999700
MO   1:   1N  -   0.999783
MO   0:   0C  -   1.000569
Localized MO's were stored in: formamidine_t.proc0.loc

Warning: internal orbitals are localized - no re-canonicalization of internal orbitals

--------------------------
CLOSED-SHELL FOCK OPERATOR
--------------------------

RI-JK section for the Fock operator:
  RHF full Fock operator         ... done
  RHF frozen core Fock operator  ... done
Time needed for Fock operator              ...            0.427 sec
Reference energy                           ...   -149.092570280

--------------
DLPNO SETTINGS (2015 fully linear scaling implementation)
--------------

TCutMKN:           1.000e-03
TCutPAO:           1.000e-03
TCutPNO:           1.000e-07
TCutPNOSingles:    3.000e-09
TCutEN:            9.700e-01
TCutPAOExt:        1.000e-01
TCutPairs:         1.000e-05
TCutPre:           1.000e-07
TCutOSV:           1.000e-06
TCutDOij:          1.000e-05
TCutDO:            5.000e-03
TCutC:             1.000e-04
TCutCPAO:          1.000e-03
TCutCMO:           1.000e-03
TScaleDOMP2PreScr: 2.000e+00
TScaleMKNMP2PreScr:1.000e+01
TScalePNOMP2PreScr:1.000e+00
PAO overlap thresh 1.000e-08
Using PNOs for Singles Fock computation
Use new domains
Use fully linear algorithm
TCutTNO:           1.000e-09
TCutMP2Pairs:      1.000e-06
TCutDOStrong:      2.000e-03
TCutMKNStrong:     1.000e-02
TCutMKNWeak:       1.000e-01
TCutDOWeak:        4.000e-03
NTCutTNO:          1

--------------------------
Calculating differential overlap integrals ... ok
--------------------------
ELECTRON PAIR PRESCREENING
--------------------------

Dipole-based pair screening          .... used

   TCutDOij = 1.000000e-05
   TCutPre  = 1.000000e-07
   .... Finished loop over pairs
Total time spent in the prescreening                  ...     0.000 sec
sum of pair energies estimated for screened out pairs ...       0.000000000000 Eh
Thresholds for map construction and integral transformation for crude MP2:
   TCutMKN                    ...     1.0e-02
   TCutDO                     ...     1.0e-02
   TCutPairs                  ...     1.0e-05
   TCutPNO_CrudeMP2           ...     1.0e-07
   TCutPNOSingles_CrudeMP2    ...     3.0e-09
--------------------------------
LOCAL RI TRANSFORMATION (IAVPAO)
--------------------------------

Orbital window:       3 to 11
Number of PAOs:      62
Basis functions:     62 (30 shells)
Aux. functions:     224 (78 shells)

Processing maps (0.0 sec)
Average map sizes:
   Aux shells -> MOs               9.0
   Aux shells -> PAOs             62.0
   MOs        -> AO shells        30.0
   PAOs       -> AO shells        30.0

Calculating integrals (0.2 sec, 0.956 MB)
Sorting integrals (0.0 sec, 0.954 MB)
Total time for the integral transformation: 0.2 sec
--------------------------------
INITIAL GUESS AND PNO GENERATION
--------------------------------

PNO truncation parameters                   .... 
    PAOOverlapThresh   =        1.000e-08

    TCutPairs          =        1.000e-05
    TCutPNO            =        1.000e-07
    TCutPNOSingles     =        3.000e-09
    TCutMP2Pairs       =        1.000e-06
    TCutMKN            =        1.000e-02
    TCutDO             =        1.000e-02

Pair selection                          .... not used
Type of local MP2 treatment                 .... semi-local MP2
Strategy for PNO selection                  .... occupation number selection
Pair density normalization                  .... MP2 norm
Spin component scaling                      .... not used

   .... Finished loop over pairs
Making pair pair interaction lists          ... done

                       ===========================
                         45 OF   45 PAIRS ARE KEPT CCSD PAIRS
                          0 OF   45 PAIRS ARE KEPT MP2 PAIRS FOR (T)
                          0 OF   45 PAIRS ARE SKIPPED
                       ===========================

Total time spent in the initial guess                 ...     0.029 sec
SL-MP2 correlation energy (all non-screened pairs)    ...      -0.450458546730 Eh

Initial PNO correlation energy                        ...      -0.450390059034 Eh
sum of pair energies prescreened and skipped MP2 pairs...       0.000000000000 Eh
sum of pair energies of crude MP2 skipped pairs only  ...       0.000000000000 Eh
sum of MP2 pair energies for pairs that were not kept ...       0.000000000000 Eh
sum of PNO error estimates for the kept pairs         ...      -0.000068487697 Eh
                                                          --------------------
sum of all corrections                                         -0.000068487697
Initial total correlation energy                               -0.450458546730
Thresholds for map construction and integral transformation for fine MP2 and CCSD(T) calculation:
   TCutMKN   ...     1.0e-03
   TCutDO    ...     5.0e-03
   TCutPairs ...     1.0e-05
   TCutCMO   ...     1.0e-03
   TCutCPAO  ...     1.0e-03

Thresholds for map construction and integral transformation for strong Triples:
   TCutMKN   ...     1.0e-02
   TCutDO    ...     1.0e-02
   TCutCMO   ...     1.0e-03
   TCutCPAO  ...     1.0e-03

Thresholds for map construction and integral transformation for weak Triples:
   TCutMKN   ...     1.0e-01
   TCutDO    ...     2.0e-02
   TCutCMO   ...     1.0e-03
   TCutCPAO  ...     1.0e-03

--------------------------------
LOCAL RI TRANSFORMATION (IAVPAO)
--------------------------------

Orbital window:       3 to 11
Number of PAOs:      62
Basis functions:     62 (30 shells)
Aux. functions:     224 (78 shells)

Processing maps (0.0 sec)
Average map sizes:
   Aux shells -> MOs               9.0
   Aux shells -> PAOs             62.0
   MOs        -> AO shells        30.0
   PAOs       -> AO shells        30.0

Calculating integrals (0.2 sec, 0.956 MB)
Sorting integrals (0.0 sec, 0.954 MB)
Total time for the integral transformation: 0.2 sec
--------------------------------
INITIAL GUESS AND PNO GENERATION
--------------------------------

PNO truncation parameters                   .... 
    ScaleTCutPNO       =        1.000e-02
    PAOOverlapThresh   =        1.000e-08

    TCutPairs          =        1.000e-05
    TCutPNO            =        1.000e-07
    TCutPNOSingles     =        3.000e-09
    TCutMP2Pairs       =        1.000e-06
    TCutMKN            =        1.000e-03
    TCutDO             =        5.000e-03

Pair selection                          .... not used
Type of local MP2 treatment                 .... full local PMP2
Strategy for PNO selection                  .... occupation number selection
Pair density normalization                  .... MP2 norm
Spin component scaling                      .... not used

PASS-1: Formation of initial guess LMP2 amplitudes
Initial amplitudes guess done. Entering LMP2 iteration loop:
   Max. no of iterations          ...  50
   Energy convergence tolerance   ...    1.0e-07
   Residual convergence tolerance ...    5.0e-07
   Fock matrix cutoff             ...    1.0e-05 Eh
   DIIS convergence acceleration parameters:
        Max # vectors in DIIS     ... 7
        Start iteration of DIIS   ... 0
        Levelshift                ... 2.000e-01
        Damping factor 1          ... 5.000e-01
        Damping factor 2          ... 1.000e+00
   L-MP2 PNO cut-off              ...   1.0e-09
   L-MP2 PNO cut-off (core)       ...   1.0e-11
                           *** Turning on DIIS ***
LMP2-Iter=   0:  ELMP2= -0.461183651787  DE=   1.0e-02 RMAX=   2.0e-02
LMP2-Iter=   1:  ELMP2= -0.467584324399  DE=   6.4e-03 RMAX=   8.5e-03
LMP2-Iter=   2:  ELMP2= -0.468901182108  DE=   1.3e-03 RMAX=   3.4e-03
LMP2-Iter=   3:  ELMP2= -0.469077531403  DE=   1.8e-04 RMAX=   1.1e-03
LMP2-Iter=   4:  ELMP2= -0.469071241202  DE=   6.3e-06 RMAX=   2.8e-04
LMP2-Iter=   5:  ELMP2= -0.469068322023  DE=   2.9e-06 RMAX=   4.7e-05
LMP2-Iter=   6:  ELMP2= -0.469067769091  DE=   5.5e-07 RMAX=   7.7e-06
LMP2-Iter=   7:  ELMP2= -0.469067791529  DE=   2.2e-08 RMAX=   1.2e-06
LMP2-Iter=   8:  ELMP2= -0.469067801313  DE=   9.8e-09 RMAX=   2.9e-07
LMP2-Iter=   9:  ELMP2= -0.469067798151  DE=   3.2e-09 RMAX=   7.1e-08 => CONVERGED
PASS-2: Formation of Pair natural orbitals
   .... Finished loop over pairs

 PNO Occupation Number Statistics: 
  | Av. % of trace(Dij) retained        ...  99.959047090607
  | sigma^2 in % of trace(Dij) retained ...   5.52e-03
  | Av. % of trace(Di) retained         ...  99.999934689136
  | sigma^2 in % of trace(Di) retained  ...   2.50e-10
 Distributions of % trace(Dij) recovered:
  |       >= 99.9  ...    41 ( 91.1 % of all pairs)
  |   [99.0, 99.9) ...     4 (  8.9 % of all pairs)
 Distributions of % trace(Di) recovered :
  |       >= 99.9  ...     9 (100.0 % of all I-pairs )

Making pair pair interaction lists          ... done

                       ===========================
                         45 OF   45 PAIRS ARE KEPT
                       ===========================

Total time spent in the initial guess                 ...     0.281 sec
L-MP2 correlation energy (all non-screened pairs)     ...      -0.469067798151 Eh
L-MP2 PNO error correction                            ...      -0.000000246666 Eh
                                                          --------------------
Initial total L-MP2 energy (non-screened pairs)       ...      -0.469068044817 Eh

Initial PNO correlation energy                        ...      -0.469006673499 Eh
sum of pair energies estimated for screened out pairs ...       0.000000000000 Eh
sum of MP2 pair energies for pairs that were not kept ...       0.000000000000 Eh
sum of PNO error estimates for the kept pairs         ...      -0.000061371318 Eh
                                                          --------------------
sum of all corrections                                         -0.000061371318
Initial total correlation energy                               -0.469068044817
Thresholds for map construction and integral transformation for fine MP2 and CCSD(T) calculation:
   TCutMKN   ...     1.0e-03
   TCutDO    ...     5.0e-03
   TCutPairs ...     1.0e-05
   TCutCMO   ...     1.0e-03
   TCutCPAO  ...     1.0e-03

Time for aux screen maps:            0.000
Time for maps after fine MP2:            0.001
-----------------------------
LOCAL RI TRANSFORMATION (IJV)
-----------------------------

Orbital window:       3 to 11
Basis functions:     62 (30 shells)
Aux. functions:     224 (78 shells)

Processing maps (0.0 sec)
Average map sizes:
   Aux shells -> MOs(i)            9.0
   Aux shells -> MOs(j)            9.0
   MOs        -> AO shells        30.0

Calculating integrals (0.2 sec, 0.141 MB)
Sorting integrals (0.0 sec, 0.139 MB)
Total time for the integral transformation: 0.2 sec
--------------------------------
LOCAL RI TRANSFORMATION (VABPAO)
--------------------------------

Number of PAOs:      62
Basis functions:     62 (30 shells)
Aux. functions:     224 (78 shells)

Processing maps (0.0 sec)
Average map sizes:
   Aux shells -> PAOs             62.0
   PAOs       -> AO shells        30.0

Calculating integrals (0.2 sec, 11.560 MB)
Finished


-------------------------------------
Pair Pair Term precalculation with     
RI-(ij|mn) and (im|jn) transformation  
ON THE FLY                             
-------------------------------------

   IBatch   1 (of   1)              ... done (    0.787 sec)
Total EXT                           ...           0.787 sec

---------------------
RI-PNO TRANSFORMATION
---------------------

Total Number of PNOs                   ...  1414
Average number of PNOs per pair        ...    31
Maximal number of PNOs per pair        ...    40
   #pairs with  1 -  5 PNOs   :    0
   #pairs with  6 - 10 PNOs   :    0
   #pairs with 11 - 15 PNOs   :    0
   #pairs with 16 - 20 PNOs   :    0
   #pairs with 21 - 25 PNOs   :    5
   #pairs with 26 - 30 PNOs   :   11
   #pairs with 31 - 35 PNOs   :   22
   #pairs with 36 - 40 PNOs   :    7
   #pairs with 41 - 45 PNOs   :    0
   #pairs with 46 - 50 PNOs   :    0

Generation of (ij|ab)[P] integrals            ... on
Generation of (ia|bc)[P],(ja|bc)[P] integrals ... on
Storage of 3 and 4 external integrals         ... on
Generation of ALL (ka|bc)[P] integrals        ... on
Keep RI integrals in memory                   ... off

Ibatch:  1 (of  1)
Starting 2-4 index PNO integral generation ... done

Timings:
Total PNO integral transformation time     ...          0.395 sec
Size of the 3-external file                ...        11 MB
Size of the 4-external file                ...        49 MB
Size of the IKJL file                      ...         0 MB
Size of the all 3-external file            ...        52 MB
Size of the 1-external file                ...         0 MB

Making pair/pair overlap matrices          ... done (    0.031 sec)
Size of the pair overlap file              ... 12 MB
Redoing the guess amplitudes               ... done (    0.000 sec)

-------------------------
FINAL STARTUP INFORMATION
-------------------------

E(0)                                       ...   -149.092570280
E(L-MP2)                                   ...     -0.469068045
E(L-MP2) including corrections             ...     -0.469068045
Initial E(tot)                             ...   -149.561638325
<T|T>                                      ...      0.134638304
Number of pairs included                   ... 45
Total number of pairs                      ... 45

------------------------------------------------
                  RHF COUPLED CLUSTER ITERATIONS
------------------------------------------------

Number of PNO amplitudes to be optimized   ...        45244
Number of non-PNO amplitudes               ...       112500
Untruncated number of regular amplitudes   ...       112500

Iter       E(tot)           E(Corr)          Delta-E          Residual     Time
  0   -149.543238152     -0.450606500      0.018461544      0.018262938    0.48
                           *** Turning on DIIS ***
  1   -149.567986188     -0.475354537     -0.024748036      0.012632720    0.47
  2   -149.583143790     -0.490512138     -0.015157602      0.007053004    0.47
  3   -149.586166811     -0.493535160     -0.003023021      0.003728450    0.47
  4   -149.587260401     -0.494628750     -0.001093591      0.001809004    0.47
  5   -149.587663120     -0.495031469     -0.000402719      0.000580326    0.47
  6   -149.587756908     -0.495125257     -0.000093788      0.000182190    0.47
  7   -149.587770262     -0.495138610     -0.000013353      0.000077479    0.47
  8   -149.587771172     -0.495139520     -0.000000910      0.000043072    0.48
  9   -149.587770573     -0.495138922      0.000000599      0.000026338    0.47
 10   -149.587770240     -0.495138588      0.000000333      0.000014293    0.47
 11   -149.587769945     -0.495138294      0.000000295      0.000006062    0.48
               --- The Coupled-Cluster iterations have converged ---

----------------------
COUPLED CLUSTER ENERGY
----------------------

E(0)                                       ...   -149.092570280
E(CORR)(strong-pairs)                      ...     -0.495138294
E(CORR)(weak-pairs)                        ...     -0.000061371
E(CORR)(corrected)                         ...     -0.495199665
E(TOT)                                     ...   -149.587769945
Singles Norm <S|S>**1/2                    ...      0.058425819  
T1 diagnostic                              ...      0.013771098  

------------------
LARGEST AMPLITUDES
------------------
   7-> 12   7-> 12       0.058467
   6-> 12   6-> 12       0.058124
   7-> 12   6-> 12       0.051626
   8-> 12   8-> 12       0.037078
   9-> 13   9-> 13       0.033724
  10-> 12  10-> 12       0.031386
  11-> 12  11-> 12       0.030735
   9-> 17   9-> 17       0.028921
   4-> 12   4-> 12       0.027094
   4-> 22   4-> 22       0.026817
   8-> 20   8-> 20       0.024944
  10-> 16  10-> 16       0.024827
   8-> 17   8-> 17       0.024398
   8-> 20   8-> 12       0.024119
   8-> 12   8-> 20       0.024119
   4-> 13  -1-> -1       0.023948


-------------------------------------------
DLPNO BASED TRIPLES CORRECTION
-------------------------------------------

Singles multiplier          ...  1.000000
TCutTNO                     ... 1.000e-09
TCutMP2Pairs                ... 1.000e-06
TCutDOStrong                ... 1.000e-02
TCutMKNStrong               ... 1.000e-02
TCutDOWeak                  ... 2.000e-02
TCutMKNWeak                 ... 1.000e-01

Fragment selection                          .... not used
Number of Triples that are to be computed   ...       156

 . . . . . . . . .
10% done  
20% done  
30% done  
40% done  
50% done  
60% done  
70% done  
80% done  
90% done               (      0.755 sec)
Triples timings:
Total time for T0               ...     0.821 sec
Total time for Iterative (T)    ...     0.000 sec
Total time of overall (T)       ...     0.855 sec

Triples List generation         ...     0.000 sec
TNO generation                  ...     0.065 sec
Pair density generation         ...     0.001 sec
Look up tables                  ...     0.000 sec
Generating 3-index integrals    ...     0.264 sec
  Make 4-ind.int. from 3-ind.int...     0.183 sec
  Projecting amplitudes (D + S) ...     0.054 sec
  Downprojecting integrals      ...     0.000 sec
  Energy contr. (sum over a,b,c)...     0.086 sec
Fitting ET(->0)                 ...     0.000 sec

Everything after 3-index        ...     0.490 sec

Timing details:
 TNO integrals                  ...     0.431 sec
   Reading 3-index integrals    ...     0.003 sec
   Sorting integrals            ...     0.083 sec
       Sorting integrals 1      ...     0.000 sec
       Sorting integrals 2      ...     0.020 sec
       Sorting integrals 3      ...     0.007 sec
       Sorting integrals 4      ...     0.001 sec
       Sorting integrals 5      ...     0.002 sec
       Sorting integrals 6      ...     0.052 sec
   Calculating local VM**-1/2   ...     0.009 sec
   Orthogonal. integrals        ...     0.016 sec
   Multipl. 3-index integrals   ...     0.320 sec
   All concerning IRIab (w/TNO) ...     0.095 sec

 Calculate W0/W1                ...     0.166 sec
 W 3-ext contribution           ...     0.095 sec
 W 3-int contribution           ...     0.026 sec
 Sorting W                      ...     0.039 sec

 V exchange contribution        ...     0.038 sec

 Timings for Triples without generation
     of 3-index integrals       ...     0.490 sec
       0 weak pairs             ...     0.490 sec
       1 weak pair              ...     0.000 sec
       2 weak pairs             ...     0.000 sec
       3 weak pairs             ...     0.000 sec
  Extra time for extrapolation  ...     0.000 sec

Number of Triples   (0, 1, 2, 3 weak pairs; overall):    156       0       0       0  (   156)
Number of Atoms     (0, 1, 2, 3 weak pairs; overall):    7.0     0.0     0.0     0.0  (     7)
Number of PAOs      (0, 1, 2, 3 weak pairs; overall):   62.0     0.0     0.0     0.0  (    62)
Number of AuxFcns   (0, 1, 2, 3 weak pairs; overall):  159.7     0.0     0.0     0.0  (   224)
Number of TNOs      (0, 1, 2, 3 weak pairs         ):   47.3     0.0     0.0     0.0
Aver. Number of NTNO, Atoms, PAOs, AuxFcns / Triples:    156    47.3     7.0    62.0   159.7

Triples Correction (T)                     ...     -0.014989459
Final correlation energy                   ...     -0.510189124
E(CCSD)                                    ...   -149.587769945
E(CCSD(T))                                 ...   -149.602759404


Maximum memory used throughout the entire calculation: 432.5 MB


------------------------------------------------------------------------------- 
                                     TIMINGS                                   
------------------------------------------------------------------------------- 


Total execution time                   ...       10.172 sec

Localization of occupied MO's          ...        0.345 sec (  3.4%)
Fock Matrix Formation                  ...        0.427 sec (  4.2%)
Global overlap, Fock, MKN matrices     ...        0.107 sec (  1.1%)
Differential overlap integrals         ...        0.029 sec (  0.3%)
Organizing maps                        ...        0.003 sec (  0.0%)
RI 3-index integral generations        ...        0.917 sec (  9.0%)
RI-PNO integral transformation         ...        1.346 sec ( 13.2%)
Initial Guess                          ...        0.314 sec (  3.1%)
DIIS Solver                            ...        0.116 sec (  1.1%)
State Vector Update                    ...        0.004 sec (  0.0%)
Sigma-vector construction              ...        5.634 sec ( 55.4%)
  <D|H|D>(0-ext)                       ...        0.178 sec (  3.2% of sigma)
  <D|H|D>(2-ext Fock)                  ...        0.004 sec (  0.1% of sigma)
  <D|H|D>(2-ext)                       ...        0.361 sec (  6.4% of sigma)
  <D|H|D>(4-ext)                       ...        0.728 sec ( 12.9% of sigma)
  <D|H|D>(4-ext-corr)                  ...        2.468 sec ( 43.8% of sigma)
  CCSD doubles correction              ...        0.026 sec (  0.5% of sigma)
  <S|H|S>                              ...        0.054 sec (  1.0% of sigma)
  <S|H|D>(1-ext)                       ...        0.037 sec (  0.7% of sigma)
  <D|H|S>(1-ext)                       ...        0.002 sec (  0.0% of sigma)
  <S|H|D>(3-ext)                       ...        0.056 sec (  1.0% of sigma)
  Fock-dressing                        ...        0.624 sec ( 11.1% of sigma)
  Singles amplitudes                   ...        0.028 sec (  0.5% of sigma)
  (ik|jl)-dressing                     ...        0.130 sec (  2.3% of sigma)
  (ij|ab),(ia|jb)-dressing             ...        0.298 sec (  5.3% of sigma)
  Pair energies                        ...        0.002 sec (  0.0% of sigma)
Total Time for computing (T)           ...        0.855 sec (  8.4% of ALL)


-------------------------   --------------------
FINAL SINGLE POINT ENERGY      -149.602759404262
-------------------------   --------------------


                            ***************************************
                            *     ORCA property calculations      *
                            ***************************************

                                    ---------------------
                                    Active property flags
                                    ---------------------
   (+) Dipole Moment


------------------------------------------------------------------------------
                       ORCA ELECTRIC PROPERTIES CALCULATION
------------------------------------------------------------------------------

Dipole Moment Calculation                       ... on
Quadrupole Moment Calculation                   ... off
Polarizability Calculation                      ... off
GBWName                                         ... formamidine_t.gbw
Electron density file                           ... formamidine_t.scfp.tmp
The origin for moment calculation is the CENTER OF MASS  = ( 0.056005, -0.027710  0.000000)

-------------
DIPOLE MOMENT
-------------
                                X             Y             Z
Electronic contribution:      0.29373      -0.15695      -0.00000
Nuclear contribution   :     -1.34408       0.66507       0.00000
                        -----------------------------------------
Total Dipole Moment    :     -1.05034       0.50812      -0.00000
                        -----------------------------------------
Magnitude (a.u.)       :      1.16680
Magnitude (Debye)      :      2.96576



--------------------
Rotational spectrum 
--------------------
 
Rotational constants in cm-1:     2.255927     0.358220     0.309133 
Rotational constants in MHz : 67630.996781 10739.174471  9267.570333 

 Dipole components along the rotational axes: 
x,y,z [a.u.] :     0.876746     0.769891    -0.000000 
x,y,z [Debye]:     2.228510     1.956907    -0.000000 

 

Timings for individual modules:

Sum of individual times         ...       12.145 sec (=   0.202 min)
GTO integral calculation        ...        0.323 sec (=   0.005 min)   2.7 %
SCF iterations                  ...        1.540 sec (=   0.026 min)  12.7 %
MDCI module                     ...       10.282 sec (=   0.171 min)  84.7 %
                             ****ORCA TERMINATED NORMALLY****
TOTAL RUN TIME: 0 days 0 hours 0 minutes 12 seconds 356 msec
formamidine_t.gbw -> /home1/pantazis/klk/VDZ/Nitrogen_compounds/formamidine_t.gbw
formamidine_t.ges -> /home1/pantazis/klk/VDZ/Nitrogen_compounds/formamidine_t.ges
formamidine_t.job -> /home1/pantazis/klk/VDZ/Nitrogen_compounds/formamidine_t.job
formamidine_t.loc -> /home1/pantazis/klk/VDZ/Nitrogen_compounds/formamidine_t.loc
formamidine_t.nodes -> /home1/pantazis/klk/VDZ/Nitrogen_compounds/formamidine_t.nodes
formamidine_t.prop -> /home1/pantazis/klk/VDZ/Nitrogen_compounds/formamidine_t.prop
formamidine_t_property.txt -> /home1/pantazis/klk/VDZ/Nitrogen_compounds/formamidine_t_property.txt
formamidine_t.xyz -> /home1/pantazis/klk/VDZ/Nitrogen_compounds/formamidine_t.xyz
cp: cannot stat formamidine_t.asa.inp: No such file or directory
