! Job execution by suborca V 6.07 on ZEUS !
Job started from zeus1, running /scratch/pantazis/Formaldehyde_dimethylacetal_g_ecl_dimethoxymethane__Lz862Q/orca/orca copied from /opt/orca on zeussn149 in /scratch/pantazis/Formaldehyde_dimethylacetal_g_ecl_dimethoxymethane__Lz862Q
Job execution start: Sat Jun 29 11:49:40 CEST 2019
Shared library path: /scratch/pantazis/Formaldehyde_dimethylacetal_g_ecl_dimethoxymethane__Lz862Q/orca:/opt/openmpi_1.10.2/lib:/opt/intel/mkl/lib/intel64:/opt/intel/lib/intel64:
PBS Job ID is: 158911.icqc
izeussn149
izeussn149
izeussn149
izeussn149

                                 *****************
                                 * O   R   C   A *
                                 *****************

           --- An Ab Initio, DFT and Semiempirical electronic structure package ---

                  #######################################################
                  #                        -***-                        #
                  #          Department of theory and spectroscopy      #
                  #               Directorship: Frank Neese             #
                  #        Max Planck Institute fuer Kohlenforschung    #
                  #                Kaiser Wilhelm Platz 1               #
                  #                 D-45470 Muelheim/Ruhr               #
                  #                      Germany                        #
                  #                                                     #
                  #                  All rights reserved                #
                  #                        -***-                        #
                  #######################################################


                         Program Version 4.1.x  -  STABLE  -
                                (SVN: $Rev: 14094$)
                ($Date: 2019-06-14 15:01:15 +0200 (Fri, 14 Jun 2019) $)

                         (BUILD: $Sun Jun 23 06:18:31 CEST 2019$)


 With contributions from (in alphabetic order):
   Daniel Aravena         : Magnetic Properties
   Michael Atanasov       : Ab Initio Ligand Field Theory
   Alexander A. Auer      : GIAO ZORA
   Ute Becker             : Parallelization
   Giovanni Bistoni       : ED, Open-shell LED
   Martin Brehm           : Molecular dynamics
   Dmytro Bykov           : SCF Hessian
   Vijay G. Chilkuri      : MRCI spin determinant printing
   Dipayan Datta          : RHF DLPNO-CCSD density
   Achintya Kumar Dutta   : EOM-CC, STEOM-CC
   Dmitry Ganyushin       : Spin-Orbit,Spin-Spin,Magnetic field MRCI
   Miquel Garcia          : C-PCM Hessian
   Yang Guo               : DLPNO-NEVPT2, CIM, IAO-localization
   Andreas Hansen         : Spin unrestricted coupled pair/coupled cluster methods
   Benjamin Helmich-Paris : CASSCF linear response (MC-RPA)
   Lee Huntington         : MR-EOM, pCC
   Robert Izsak           : Overlap fitted RIJCOSX, COSX-SCS-MP3, EOM
   Christian Kollmar      : KDIIS, OOCD, Brueckner-CCSD(T), CCSD density
   Simone Kossmann        : Meta GGA functionals, TD-DFT gradient, OOMP2, MP2 Hessian
   Martin Krupicka        : AUTO-CI
   Lucas Lang             : DCDCAS
   Dagmar Lenk            : GEPOL surface, SMD
   Dimitrios Liakos       : Extrapolation schemes; parallel MDCI
   Dimitrios Manganas     : ROCIS; embedding schemes
   Dimitrios Pantazis     : SARC Basis sets
   Taras Petrenko         : DFT Hessian,TD-DFT gradient, ASA, ECA, R-Raman, ABS, FL, XAS/XES, NRVS
   Peter Pinski           : DLPNO-MP2, DLPNO-MP2 Gradient
   Christoph Reimann      : Effective Core Potentials
   Marius Retegan         : Local ZFS, SOC
   Christoph Riplinger    : Optimizer, TS searches, QM/MM, DLPNO-CCSD(T), (RO)-DLPNO pert. Triples
   Tobias Risthaus        : Range-separated hybrids, TD-DFT gradient, RPA, STAB
   Michael Roemelt        : Restricted open shell CIS
   Masaaki Saitow         : Open-shell DLPNO
   Barbara Sandhoefer     : DKH picture change effects
   Avijit Sen             : IP-ROCIS
   Kantharuban Sivalingam : CASSCF convergence, NEVPT2, FIC-MRCI
   Bernardo de Souza      : ESD, SOC TD-DFT
   Georgi Stoychev        : AutoAux, RI-MP2 NMR
   Willem Van den Heuvel  : Paramagnetic NMR
   Boris Wezisla          : Elementary symmetry handling
   Frank Wennmohs         : Technical directorship


 We gratefully acknowledge several colleagues who have allowed us to
 interface, adapt or use parts of their codes:
   Stefan Grimme, W. Hujo, H. Kruse,             : VdW corrections, initial TS optimization,
                  C. Bannwarth                     DFT functionals, gCP, sTDA/sTD-DF
   Ed Valeev                                     : LibInt (2-el integral package), F12 methods
   Garnet Chan, S. Sharma, J. Yang, R. Olivares  : DMRG
   Ulf Ekstrom                                   : XCFun DFT Library
   Mihaly Kallay                                 : mrcc  (arbitrary order and MRCC methods)
   Andreas Klamt, Michael Diedenhofen            : otool_cosmo (COSMO solvation model)
   Jiri Pittner, Ondrej Demel                    : Mk-CCSD
   Frank Weinhold                                : gennbo (NPA and NBO analysis)
   Christopher J. Cramer and Donald G. Truhlar   : smd solvation model
   Lars Goerigk                                  : TD-DFT with DH, B97 family of functionals
   V. Asgeirsson, H. Jonsson                     : NEB implementation
   FAccTs GmbH                                   : IRC, NEB, NEB-TS, Multilevel


 Your calculation uses the libint2 library for the computation of 2-el integrals
 For citations please refer to: http://libint.valeyev.net

 This ORCA versions uses:
   CBLAS   interface :  Fast vector & matrix operations
   LAPACKE interface :  Fast linear algebra routines
   SCALAPACK package :  Parallel linear algebra routines




***************************************
The coordinates will be read from file: Formaldehyde_dimethylacetal_g_ecl_dimethoxymethane.xyz
***************************************


----- Orbital basis set information -----
Your calculation utilizes the basis: cc-pVDZ 
       H, B-Ne : Obtained from the ccRepo (grant-hill.group.shef.ac.uk/ccrepo) Feb. 2017
                 T. H. Dunning, Jr., J. Chem. Phys. 90, 1007 (1989)
            He : Obtained from the ccRepo (grant-hill.group.shef.ac.uk/ccrepo) Feb. 2017
                 D. E. Woon, T. H. Dunning, Jr., J. Chem. Phys. 100, 2975 (1994)
  Li-Be, Na-Mg : Obtained from the ccRepo (grant-hill.group.shef.ac.uk/ccrepo) Feb. 2017
                 B. P. Prascher, D. E. Woon, K. A. Peterson, T. H. Dunning, Jr., A. K. Wilson, Theor. Chem. Acc. 128, 69 (2011)
         Al-Ar : Obtained from the ccRepo (grant-hill.group.shef.ac.uk/ccrepo) Feb. 2017
                 D. E. Woon, T. H. Dunning, Jr., J. Chem. Phys. 98, 1358 (1993)
            Ca : Obtained from the Peterson Research Group Website (tyr0.chem.wsu.edu/~kipeters) Feb. 2017
                 J. Koput, K. A. Peterson, J. Phys. Chem. 106, 9595 (2002)
         Sc-Zn : Obtained from the ccRepo (grant-hill.group.shef.ac.uk/ccrepo) Feb. 2017
                 N. B. Balabanov, K. A. Peterson, J. Chem. Phys. 123, 064107 (2005)
                 N. B. Balabanov, K. A. Peterson, J. Chem. Phys. 125, 074110 (2006)
         Ga-Kr : Obtained from the ccRepo (grant-hill.group.shef.ac.uk/ccrepo) Feb. 2017
                 A. K. Wilson, D. E. Woon, K. A. Peterson, T. H. Dunning, Jr., J. Chem. Phys. 110, 7667 (1999)

----- AuxC basis set information -----
Your calculation utilizes the auxiliary basis: cc-pVDZ/C 
  H-He, B, Ne, Al-Ar, Ga-Br : Obtained from the EMSL Basis Set Exchange (bse.pnl.gov) Feb. 2017
                              F. Weigend, A. Kohn, C. Hattig, J. Chem. Phys. 116, 3175 (2002)
               Li-Be, Na-Mg : Obtained from the EMSL Basis Set Exchange (bse.pnl.gov) Feb. 2017
                              C. Haettig, Phys. Chem. Chem. Phys. 7, 59 (2005)
                        C-F : Obtained from the EMSL Basis Set Exchange (bse.pnl.gov) Feb. 2017
                              C. Haettig, Phys. Chem. Chem. Phys. 7, 59 (2005)
                              F. Weigend, A. Kohn, C. Hattig, J. Chem. Phys. 116, 3175 (2002)
                         Kr : Obtained from the TURBOMOLE 7.0 basis set library
                              F. Weigend, A. Kohn, C. Hattig, J. Chem. Phys. 116, 3175 (2002)
                              S function revised in Sep. 2009

----- AuxJK basis set information -----
Your calculation utilizes the auxiliary basis: cc-pVTZ/JK 
  H, B-F, Al-Cl, Ga-Br : Obtained from the TURBOMOLE 7.0 basis set library

================================================================================
                                        WARNINGS
                       Please study these warnings very carefully!
================================================================================


WARNING: MDCI localization with Augmented Hessian Foster-Boys
  ===> : Switching off randomization!

WARNING: Post HF methods need fully converged wavefunctions
  ===> : Setting SCFConvForced true
         You can overwrite this default with %scf ConvForced false 


INFO   : the flag for use of LIBINT has been found!

================================================================================
                                       INPUT FILE
================================================================================
NAME = Formaldehyde_dimethylacetal_g_ecl_dimethoxymethane.inp
|  1> ! RHF DLPNO-CCSD(T) cc-pVDZ RIJK cc-pVTZ/JK cc-pVDZ/C
|  2> ! KDIIS SOSCF TightSCF TightPNO
|  3> 
|  4> %pal nprocs 4 end
|  5> 
|  6> %maxcore 8000
|  7> 
|  8> %scf maxiter 300
|  9>      shift shift 0.2 erroff 0.1 end
| 10> end
| 11> 
| 12> * xyzfile 0 1 Formaldehyde_dimethylacetal_g_ecl_dimethoxymethane.xyz 
| 13> 
| 14> 
| 15>                          ****END OF INPUT****
================================================================================

                       ****************************
                       * Single Point Calculation *
                       ****************************

---------------------------------
CARTESIAN COORDINATES (ANGSTROEM)
---------------------------------
  C      1.621610    0.853630    0.011940
  O      1.317170   -0.528610   -0.127670
  C      0.030490   -0.885600    0.291790
  O     -0.982860   -0.319260   -0.517700
  C     -1.873600    0.577040    0.134100
  H      2.670650    0.973250   -0.264950
  H      1.001440    1.468210   -0.651130
  H      1.483850    1.185410    1.052850
  H     -0.011960   -1.973450    0.190080
  H     -0.128190   -0.591170    1.344520
  H     -2.548860    0.958900   -0.634590
  H     -2.469150    0.068710    0.905230
  H     -1.343160    1.422710    0.593910

----------------------------
CARTESIAN COORDINATES (A.U.)
----------------------------
  NO LB      ZA    FRAG     MASS         X           Y           Z
   0 C     6.0000    0    12.011    3.064399    1.613127    0.022563
   1 O     8.0000    0    15.999    2.489091   -0.998928   -0.241261
   2 C     6.0000    0    12.011    0.057618   -1.673541    0.551403
   3 O     8.0000    0    15.999   -1.857336   -0.603314   -0.978311
   4 C     6.0000    0    12.011   -3.540591    1.090448    0.253412
   5 H     1.0000    0     1.008    5.046797    1.839176   -0.500683
   6 H     1.0000    0     1.008    1.892447    2.774515   -1.230457
   7 H     1.0000    0     1.008    2.804070    2.240100    1.989598
   8 H     1.0000    0     1.008   -0.022601   -3.729280    0.359199
   9 H     1.0000    0     1.008   -0.242244   -1.117149    2.540775
  10 H     1.0000    0     1.008   -4.816647    1.812058   -1.199201
  11 H     1.0000    0     1.008   -4.666017    0.129843    1.710637
  12 H     1.0000    0     1.008   -2.538205    2.688532    1.122327

--------------------------------
INTERNAL COORDINATES (ANGSTROEM)
--------------------------------
 C      0   0   0     0.000000000000     0.00000000     0.00000000
 O      1   0   0     1.422238405929     0.00000000     0.00000000
 C      2   1   0     1.399619224682   114.53532975     0.00000000
 O      3   2   1     1.415236121006   112.62888477    66.16802683
 C      4   3   2     1.421834968483   116.01621490   242.44233941
 H      1   2   3     1.091541084018   106.69803899   175.10989117
 H      1   2   3     1.096349045788   111.36764050   294.18588027
 H      1   2   3     1.101158214836   111.02892036    56.35364980
 H      3   2   1     1.093418743712   105.16359020   184.13397897
 H      3   2   1     1.104585361210   110.46913005   303.23252887
 H      5   4   3     1.092097726076   106.56527697   177.00932573
 H      5   4   3     1.098963451758   111.68976862   295.57888965
 H      5   4   3     1.099067595101   111.99205380    58.02869733

---------------------------
INTERNAL COORDINATES (A.U.)
---------------------------
 C      0   0   0     0.000000000000     0.00000000     0.00000000
 O      1   0   0     2.687641084351     0.00000000     0.00000000
 C      2   1   0     2.644897026421   114.53532975     0.00000000
 O      3   2   1     2.674408683534   112.62888477    66.16802683
 C      4   3   2     2.686878698065   116.01621490   242.44233941
 H      1   2   3     2.062713712718   106.69803899   175.10989117
 H      1   2   3     2.071799443725   111.36764050   294.18588027
 H      1   2   3     2.080887456157   111.02892036    56.35364980
 H      3   2   1     2.066261975311   105.16359020   184.13397897
 H      3   2   1     2.087363824226   110.46913005   303.23252887
 H      5   4   3     2.063765613761   106.56527697   177.00932573
 H      5   4   3     2.076739955012   111.68976862   295.57888965
 H      5   4   3     2.076936757407   111.99205380    58.02869733

---------------------
BASIS SET INFORMATION
---------------------
There are 3 groups of distinct atoms

 Group   1 Type C   : 17s4p1d contracted to 3s2p1d pattern {881/31/1}
 Group   2 Type O   : 17s4p1d contracted to 3s2p1d pattern {881/31/1}
 Group   3 Type H   : 4s1p contracted to 2s1p pattern {31/1}

Atom   0C    basis set group =>   1
Atom   1O    basis set group =>   2
Atom   2C    basis set group =>   1
Atom   3O    basis set group =>   2
Atom   4C    basis set group =>   1
Atom   5H    basis set group =>   3
Atom   6H    basis set group =>   3
Atom   7H    basis set group =>   3
Atom   8H    basis set group =>   3
Atom   9H    basis set group =>   3
Atom  10H    basis set group =>   3
Atom  11H    basis set group =>   3
Atom  12H    basis set group =>   3
-------------------------------
AUXILIARY BASIS SET INFORMATION
-------------------------------
There are 3 groups of distinct atoms

 Group   1 Type C   : 7s5p4d2f contracted to 7s5p4d2f pattern {1111111/11111/1111/11}
 Group   2 Type O   : 7s5p4d2f contracted to 7s5p4d2f pattern {1111111/11111/1111/11}
 Group   3 Type H   : 3s2p1d contracted to 3s2p1d pattern {111/11/1}

Atom   0C    basis set group =>   1
Atom   1O    basis set group =>   2
Atom   2C    basis set group =>   1
Atom   3O    basis set group =>   2
Atom   4C    basis set group =>   1
Atom   5H    basis set group =>   3
Atom   6H    basis set group =>   3
Atom   7H    basis set group =>   3
Atom   8H    basis set group =>   3
Atom   9H    basis set group =>   3
Atom  10H    basis set group =>   3
Atom  11H    basis set group =>   3
Atom  12H    basis set group =>   3
-------------------------------
AUXILIARY BASIS SET INFORMATION
-------------------------------
There are 3 groups of distinct atoms

 Group   1 Type C   : 10s7p5d2f1g contracted to 10s7p5d2f1g pattern {1111111111/1111111/11111/11/1}
 Group   2 Type O   : 10s7p5d2f1g contracted to 10s7p5d2f1g pattern {1111111111/1111111/11111/11/1}
 Group   3 Type H   : 4s3p2d1f contracted to 4s3p2d1f pattern {1111/111/11/1}

Atom   0C    basis set group =>   1
Atom   1O    basis set group =>   2
Atom   2C    basis set group =>   1
Atom   3O    basis set group =>   2
Atom   4C    basis set group =>   1
Atom   5H    basis set group =>   3
Atom   6H    basis set group =>   3
Atom   7H    basis set group =>   3
Atom   8H    basis set group =>   3
Atom   9H    basis set group =>   3
Atom  10H    basis set group =>   3
Atom  11H    basis set group =>   3
Atom  12H    basis set group =>   3

Checking for AutoStart:
The File: Formaldehyde_dimethylacetal_g_ecl_dimethoxymethane.gbw exists
Trying to determine its content:
     ... Fine, the file contains calculation information
     ... Fine, the calculation information was read
     ... Fine, the file contains a basis set
     ... Fine, the basis set was read
     ... Fine, the file contains a geometry
     ... Fine, the geometry was read
     ... Fine, the file contains a set of orbitals
     ... Fine, the orbitals can be read
     => possible old guess file was deleted
     => GBW file was renamed to GES file
     => GES file is set as startup file
     => Guess is set to MORead
     ... now leaving AutoStart



           ************************************************************
           *        Program running with 4 parallel MPI-processes     *
           *              working on a common directory               *
           ************************************************************
------------------------------------------------------------------------------
                           ORCA GTO INTEGRAL CALCULATION
                           -- RI-GTO INTEGRALS CHOSEN --
------------------------------------------------------------------------------

                         BASIS SET STATISTICS AND STARTUP INFO

Gaussian basis set:
 # of primitive gaussian shells          ...  150
 # of primitive gaussian functions       ...  226
 # of contracted shells                  ...   54
 # of contracted basis functions         ...  110
 Highest angular momentum                ...    2
 Maximum contraction depth               ...    8
Auxiliary gaussian basis set:
 # of primitive gaussian shells          ...  205
 # of primitive gaussian functions       ...  635
 # of contracted shells                  ...  205
 # of contracted aux-basis functions     ...  635
 Highest angular momentum                ...    4
 Maximum contraction depth               ...    1
Ratio of auxiliary to basis functions    ...  5.77
Integral package used                  ... LIBINT
 One Electron integrals                  ... done
 Ordering auxiliary basis shells         ... done
 Integral threshhold             Thresh  ...  2.500e-11
 Primitive cut-off               TCut    ...  2.500e-12
 Pre-screening matrix                    ... done
 Shell pair data                         ... 
 Ordering of the shell pairs             ... done (   0.000 sec) 1482 of 1485 pairs
 Determination of significant pairs      ... done (   0.000 sec)
 Creation of shell pair data             ... done (   0.001 sec)
 Storage of shell pair data              ... done (   0.001 sec)
 Shell pair data done in (   0.002 sec)
 Computing two index integrals           ... done
 Cholesky decomposition of the V-matrix  ... done


Timings:
 Total evaluation time                   ...   0.303 sec (  0.005 min)
 One electron matrix time                ...   0.030 sec (  0.000 min) =  9.9%
 Schwartz matrix evaluation time         ...   0.149 sec (  0.002 min) = 49.2%
 Two index repulsion integral time       ...   0.050 sec (  0.001 min) = 16.6%
 Cholesky decomposition of V             ...   0.046 sec (  0.001 min) = 15.2%
 Three index repulsion integral time     ...   0.000 sec (  0.000 min) =  0.0%



           ************************************************************
           *        Program running with 4 parallel MPI-processes     *
           *              working on a common directory               *
           ************************************************************
-------------------------------------------------------------------------------
                                 ORCA SCF
-------------------------------------------------------------------------------

------------
SCF SETTINGS
------------
Hamiltonian:
 Ab initio Hamiltonian  Method          .... Hartree-Fock(GTOs)
 RI-approximation to the Coulomb term is turned on
   Number of auxiliary basis functions  .... 635
   RI-JK (J+K treated both via RI)      .... on


General Settings:
 Integral files         IntName         .... Formaldehyde_dimethylacetal_g_ecl_dimethoxymethane
 Hartree-Fock type      HFTyp           .... RHF
 Total Charge           Charge          ....    0
 Multiplicity           Mult            ....    1
 Number of Electrons    NEL             ....   42
 Basis Dimension        Dim             ....  110
 Nuclear Repulsion      ENuc            ....    196.4736249818 Eh

Convergence Acceleration:
 DIIS                   CNVDIIS         .... off
 Newton-Raphson         CNVNR           .... off
 SOSCF                  CNVSOSCF        .... on
   Start iteration      SOSCFMaxIt      ....   150
   Startup grad/error   SOSCFStart      ....  0.003300
 Level Shifting         CNVShift        .... on
   Level shift para.    LevelShift      ....    0.2000
   Turn off err/grad.   ShiftErr        ....    0.1000
 Zerner damping         CNVZerner       .... off
 Static damping         CNVDamp         .... off
 Fernandez-Rico         CNVRico         .... off

SCF Procedure:
 Maximum # iterations   MaxIter         ....   300
 SCF integral mode      SCFMode         .... Direct
   Integral package                     .... LIBINT
 Reset frequency        DirectResetFreq ....    20
 Integral Threshold     Thresh          ....  2.500e-11 Eh
 Primitive CutOff       TCut            ....  2.500e-12 Eh

Convergence Tolerance:
 Convergence Check Mode ConvCheckMode   .... Total+1el-Energy
 Convergence forced     ConvForced      .... 1
 Energy Change          TolE            ....  1.000e-08 Eh
 1-El. energy change                    ....  1.000e-05 Eh
 Orbital Gradient       TolG            ....  1.000e-05
 Orbital Rotation angle TolX            ....  1.000e-05


Diagonalization of the overlap matrix:
Smallest eigenvalue                        ... 9.152e-03
Time for diagonalization                   ...    0.005 sec
Threshold for overlap eigenvalues          ... 1.000e-08
Number of eigenvalues below threshold      ... 0
Time for construction of square roots      ...    0.005 sec
Total time needed                          ...    0.010 sec

---------------------
INITIAL GUESS: MOREAD
---------------------
Guess MOs are being read from file: Formaldehyde_dimethylacetal_g_ecl_dimethoxymethane.ges
Input Geometry matches current geometry (good)
Atom 0: N(Shells)= 6 and 10 - projection required
Input basis set needs projection
NBasis(read)= 262
NBasis(calc)= 110
Basis set overlap was calculated
Using GuessMode=FMatrix for the initial guess
C*T matrix was formed
Effective Fockian was calculated
Effective Fockian was diagonalized
Initial density was built
                      ------------------
                      INITIAL GUESS DONE (   0.0 sec)
                      ------------------
--------------
SCF ITERATIONS
--------------
ITER       Energy         Delta-E        Max-DP      RMS-DP      [F,P]   Gradient Norm
                             ****Turning on KDIIS(Cayley)****
  0   -267.9648765421   0.000000000000 0.00114716  0.00006859  0.0033214   0.006098469
                      *** Initiating the SOSCF procedure ***
                           *** Shutting down KDIIS ***
                      *** Re-Reading the Fockian *** 
                      *** Removing any level shift *** 
ITER      Energy       Delta-E        Grad      Rot      Max-DP    RMS-DP
  1   -267.96499576  -0.0001192159  0.003018  0.003018  0.002175  0.000132
  2   -267.96518077  -0.0001850107  0.002417  0.001286  0.008322  0.000503
  3   -267.96552061  -0.0003398441  0.000972  0.000603  0.002209  0.000111
  4   -267.96554072  -0.0000201030  0.000390  0.000230  0.000690  0.000035
  5   -267.96554450  -0.0000037863  0.000040  0.000059  0.000125  0.000006
  6   -267.96554463  -0.0000001251  0.000016  0.000026  0.000061  0.000002
  7   -267.96554464  -0.0000000137  0.000003  0.000005  0.000009  0.000000
                  ***Gradient check signals convergence***
              ***Rediagonalizing the Fockian in SOSCF/NRSCF***

               *****************************************************
               *                     SUCCESS                       *
               *           SCF CONVERGED AFTER   8 CYCLES          *
               *****************************************************


----------------
TOTAL SCF ENERGY
----------------

Total Energy       :         -267.96554464 Eh           -7291.71317 eV

Components:
Nuclear Repulsion  :          196.47362498 Eh            5346.31914 eV
Electronic Energy  :         -464.43916962 Eh          -12638.03231 eV
One Electron Energy:         -755.47372418 Eh          -20557.48516 eV
Two Electron Energy:          291.03455456 Eh            7919.45285 eV

Virial components:
Potential Energy   :         -535.59331545 Eh          -14574.23505 eV
Kinetic Energy     :          267.62777081 Eh            7282.52188 eV
Virial Ratio       :            2.00126210


---------------
SCF CONVERGENCE
---------------

  Last Energy change         ...   -6.5540e-10  Tolerance :   1.0000e-08
  Last MAX-Density change    ...    2.7224e-06  Tolerance :   1.0000e-07
  Last RMS-Density change    ...    1.5685e-07  Tolerance :   5.0000e-09
  Last Orbital Gradient      ...    8.2625e-07  Tolerance :   1.0000e-05
  Last Orbital Rotation      ...    1.6846e-06  Tolerance :   1.0000e-05

             **** THE GBW FILE WAS UPDATED (Formaldehyde_dimethylacetal_g_ecl_dimethoxymethane.gbw) ****
             **** DENSITY FILE WAS UPDATED (Formaldehyde_dimethylacetal_g_ecl_dimethoxymethane.scfp.tmp) ****
             **** ENERGY FILE WAS UPDATED (Formaldehyde_dimethylacetal_g_ecl_dimethoxymethane.en.tmp) ****
----------------
ORBITAL ENERGIES
----------------

  NO   OCC          E(Eh)            E(eV) 
   0   2.0000     -20.557147      -559.3884 
   1   2.0000     -20.556472      -559.3700 
   2   2.0000     -11.330718      -308.3245 
   3   2.0000     -11.284909      -307.0780 
   4   2.0000     -11.277601      -306.8791 
   5   2.0000      -1.406802       -38.2810 
   6   2.0000      -1.341558       -36.5056 
   7   2.0000      -0.983222       -26.7548 
   8   2.0000      -0.922790       -25.1104 
   9   2.0000      -0.846287       -23.0286 
  10   2.0000      -0.686140       -18.6708 
  11   2.0000      -0.681481       -18.5441 
  12   2.0000      -0.670445       -18.2437 
  13   2.0000      -0.605057       -16.4644 
  14   2.0000      -0.595984       -16.2176 
  15   2.0000      -0.585191       -15.9238 
  16   2.0000      -0.539306       -14.6753 
  17   2.0000      -0.490827       -13.3561 
  18   2.0000      -0.475625       -12.9424 
  19   2.0000      -0.440341       -11.9823 
  20   2.0000      -0.424424       -11.5492 
  21   0.0000       0.178359         4.8534 
  22   0.0000       0.215671         5.8687 
  23   0.0000       0.229017         6.2319 
  24   0.0000       0.244447         6.6518 
  25   0.0000       0.254629         6.9288 
  26   0.0000       0.263467         7.1693 
  27   0.0000       0.272762         7.4222 
  28   0.0000       0.289959         7.8902 
  29   0.0000       0.321619         8.7517 
  30   0.0000       0.327221         8.9041 
  31   0.0000       0.427622        11.6362 
  32   0.0000       0.447067        12.1653 
  33   0.0000       0.598595        16.2886 
  34   0.0000       0.637774        17.3547 
  35   0.0000       0.650957        17.7135 
  36   0.0000       0.674340        18.3497 
  37   0.0000       0.689923        18.7738 
  38   0.0000       0.738275        20.0895 
  39   0.0000       0.751606        20.4522 
  40   0.0000       0.775948        21.1146 
  41   0.0000       0.836037        22.7497 
  42   0.0000       0.846198        23.0262 
  43   0.0000       0.854950        23.2644 
  44   0.0000       0.868161        23.6239 
  45   0.0000       0.879781        23.9401 
  46   0.0000       0.885384        24.0925 
  47   0.0000       0.903470        24.5847 
  48   0.0000       0.915212        24.9042 
  49   0.0000       0.955901        26.0114 
  50   0.0000       1.058803        28.8115 
  51   0.0000       1.111267        30.2391 
  52   0.0000       1.121805        30.5259 
  53   0.0000       1.151099        31.3230 
  54   0.0000       1.153289        31.3826 
  55   0.0000       1.214541        33.0493 
  56   0.0000       1.274177        34.6721 
  57   0.0000       1.324877        36.0517 
  58   0.0000       1.427200        38.8361 
  59   0.0000       1.470802        40.0225 
  60   0.0000       1.495189        40.6862 
  61   0.0000       1.543245        41.9938 
  62   0.0000       1.579487        42.9800 
  63   0.0000       1.599362        43.5208 
  64   0.0000       1.632773        44.4300 
  65   0.0000       1.668134        45.3922 
  66   0.0000       1.675872        45.6028 
  67   0.0000       1.789062        48.6828 
  68   0.0000       1.838975        50.0410 
  69   0.0000       1.846210        50.2379 
  70   0.0000       1.856609        50.5209 
  71   0.0000       1.898064        51.6490 
  72   0.0000       1.911185        52.0060 
  73   0.0000       1.940003        52.7902 
  74   0.0000       1.956160        53.2298 
  75   0.0000       1.970349        53.6159 
  76   0.0000       1.977379        53.8072 
  77   0.0000       2.002720        54.4968 
  78   0.0000       2.016059        54.8598 
  79   0.0000       2.038444        55.4689 
  80   0.0000       2.051074        55.8126 
  81   0.0000       2.130055        57.9617 
  82   0.0000       2.163389        58.8688 
  83   0.0000       2.205735        60.0211 
  84   0.0000       2.234645        60.8078 
  85   0.0000       2.298534        62.5463 
  86   0.0000       2.349050        63.9209 
  87   0.0000       2.360053        64.2203 
  88   0.0000       2.389055        65.0095 
  89   0.0000       2.443501        66.4911 
  90   0.0000       2.467269        67.1378 
  91   0.0000       2.507408        68.2300 
  92   0.0000       2.722805        74.0913 
  93   0.0000       2.738024        74.5054 
  94   0.0000       2.751188        74.8636 
  95   0.0000       2.764812        75.2344 
  96   0.0000       2.767520        75.3081 
  97   0.0000       2.786150        75.8150 
  98   0.0000       2.805527        76.3423 
  99   0.0000       2.820853        76.7593 
 100   0.0000       3.158123        85.9369 
 101   0.0000       3.293226        89.6132 
 102   0.0000       3.321314        90.3776 
 103   0.0000       3.363334        91.5210 
 104   0.0000       3.393148        92.3323 
 105   0.0000       3.541908        96.3802 
 106   0.0000       3.589125        97.6650 
 107   0.0000       3.696455       100.5856 
 108   0.0000       3.720684       101.2450 
 109   0.0000       3.728706       101.4632 

                    ********************************
                    * MULLIKEN POPULATION ANALYSIS *
                    ********************************

-----------------------
MULLIKEN ATOMIC CHARGES
-----------------------
   0 C :    0.161692
   1 O :   -0.481928
   2 C :    0.438692
   3 O :   -0.505349
   4 C :    0.166028
   5 H :    0.045914
   6 H :    0.037001
   7 H :    0.011155
   8 H :    0.041154
   9 H :   -0.003355
  10 H :    0.048568
  11 H :    0.025098
  12 H :    0.015331
Sum of atomic charges:    0.0000000

--------------------------------
MULLIKEN REDUCED ORBITAL CHARGES
--------------------------------
  0 C s       :     3.031044  s :     3.031044
      pz      :     0.983299  p :     2.704270
      px      :     1.012889
      py      :     0.708082
      dz2     :     0.018695  d :     0.102993
      dxz     :     0.006734
      dyz     :     0.026214
      dx2y2   :     0.031251
      dxy     :     0.020098
  1 O s       :     3.779708  s :     3.779708
      pz      :     1.836793  p :     4.684136
      px      :     1.451347
      py      :     1.395996
      dz2     :     0.002576  d :     0.018085
      dxz     :     0.002820
      dyz     :     0.001987
      dx2y2   :     0.008230
      dxy     :     0.002471
  2 C s       :     2.955100  s :     2.955100
      pz      :     0.826804  p :     2.429091
      px      :     0.647827
      py      :     0.954461
      dz2     :     0.033397  d :     0.177117
      dxz     :     0.043876
      dyz     :     0.014590
      dx2y2   :     0.053221
      dxy     :     0.032033
  3 O s       :     3.785043  s :     3.785043
      pz      :     1.628168  p :     4.703107
      px      :     1.457305
      py      :     1.617635
      dz2     :     0.002127  d :     0.017199
      dxz     :     0.006253
      dyz     :     0.004040
      dx2y2   :     0.002030
      dxy     :     0.002751
  4 C s       :     3.027944  s :     3.027944
      pz      :     0.951177  p :     2.700843
      px      :     0.882270
      py      :     0.867396
      dz2     :     0.008906  d :     0.105185
      dxz     :     0.028660
      dyz     :     0.022849
      dx2y2   :     0.017791
      dxy     :     0.026979
  5 H s       :     0.924524  s :     0.924524
      pz      :     0.006714  p :     0.029563
      px      :     0.020447
      py      :     0.002402
  6 H s       :     0.932930  s :     0.932930
      pz      :     0.011680  p :     0.030069
      px      :     0.010471
      py      :     0.007918
  7 H s       :     0.959350  s :     0.959350
      pz      :     0.019750  p :     0.029495
      px      :     0.005338
      py      :     0.004407
  8 H s       :     0.931705  s :     0.931705
      pz      :     0.004193  p :     0.027141
      px      :     0.001213
      py      :     0.021735
  9 H s       :     0.975687  s :     0.975687
      pz      :     0.020328  p :     0.027667
      px      :     0.002370
      py      :     0.004969
 10 H s       :     0.921910  s :     0.921910
      pz      :     0.012862  p :     0.029522
      px      :     0.010433
      py      :     0.006228
 11 H s       :     0.945307  s :     0.945307
      pz      :     0.013084  p :     0.029594
      px      :     0.009235
      py      :     0.007275
 12 H s       :     0.954980  s :     0.954980
      pz      :     0.007991  p :     0.029689
      px      :     0.007334
      py      :     0.014365


                     *******************************
                     * LOEWDIN POPULATION ANALYSIS *
                     *******************************

----------------------
LOEWDIN ATOMIC CHARGES
----------------------
   0 C :    0.016117
   1 O :   -0.071773
   2 C :    0.044638
   3 O :   -0.092453
   4 C :    0.014412
   5 H :    0.023824
   6 H :    0.011943
   7 H :    0.004693
   8 H :    0.016946
   9 H :   -0.007846
  10 H :    0.025252
  11 H :    0.008726
  12 H :    0.005522

-------------------------------
LOEWDIN REDUCED ORBITAL CHARGES
-------------------------------
  0 C s       :     2.813844  s :     2.813844
      pz      :     1.051962  p :     2.913689
      px      :     1.053200
      py      :     0.808527
      dz2     :     0.047323  d :     0.256349
      dxz     :     0.017697
      dyz     :     0.068582
      dx2y2   :     0.074796
      dxy     :     0.047951
  1 O s       :     3.408801  s :     3.408801
      pz      :     1.781401  p :     4.632985
      px      :     1.451745
      py      :     1.399839
      dz2     :     0.003539  d :     0.029986
      dxz     :     0.004257
      dyz     :     0.003271
      dx2y2   :     0.013392
      dxy     :     0.005528
  2 C s       :     2.812631  s :     2.812631
      pz      :     0.940253  p :     2.725240
      px      :     0.781700
      py      :     1.003287
      dz2     :     0.089246  d :     0.417491
      dxz     :     0.102059
      dyz     :     0.032274
      dx2y2   :     0.127093
      dxy     :     0.066819
  3 O s       :     3.413816  s :     3.413816
      pz      :     1.619229  p :     4.650276
      px      :     1.442353
      py      :     1.588694
      dz2     :     0.003116  d :     0.028361
      dxz     :     0.009882
      dyz     :     0.005968
      dx2y2   :     0.003959
      dxy     :     0.005436
  4 C s       :     2.814036  s :     2.814036
      pz      :     1.017586  p :     2.910508
      px      :     0.947273
      py      :     0.945649
      dz2     :     0.021238  d :     0.261044
      dxz     :     0.074888
      dyz     :     0.059363
      dx2y2   :     0.042320
      dxy     :     0.063236
  5 H s       :     0.900302  s :     0.900302
      pz      :     0.017479  p :     0.075874
      px      :     0.048243
      py      :     0.010152
  6 H s       :     0.910634  s :     0.910634
      pz      :     0.028635  p :     0.077424
      px      :     0.026485
      py      :     0.022304
  7 H s       :     0.920087  s :     0.920087
      pz      :     0.046145  p :     0.075220
      px      :     0.015386
      py      :     0.013688
  8 H s       :     0.909980  s :     0.909980
      pz      :     0.011736  p :     0.073074
      px      :     0.008585
      py      :     0.052753
  9 H s       :     0.934781  s :     0.934781
      pz      :     0.048903  p :     0.073064
      px      :     0.009213
      py      :     0.014948
 10 H s       :     0.899010  s :     0.899010
      pz      :     0.031663  p :     0.075739
      px      :     0.026858
      py      :     0.017218
 11 H s       :     0.915562  s :     0.915562
      pz      :     0.031771  p :     0.075713
      px      :     0.024773
      py      :     0.019169
 12 H s       :     0.918734  s :     0.918734
      pz      :     0.020548  p :     0.075743
      px      :     0.019537
      py      :     0.035658


                      *****************************
                      * MAYER POPULATION ANALYSIS *
                      *****************************

  NA   - Mulliken gross atomic population
  ZA   - Total nuclear charge
  QA   - Mulliken gross atomic charge
  VA   - Mayer's total valence
  BVA  - Mayer's bonded valence
  FA   - Mayer's free valence

  ATOM       NA         ZA         QA         VA         BVA        FA
  0 C      5.8383     6.0000     0.1617     3.9315     3.9315     0.0000
  1 O      8.4819     8.0000    -0.4819     1.9959     1.9959    -0.0000
  2 C      5.5613     6.0000     0.4387     3.9673     3.9673     0.0000
  3 O      8.5053     8.0000    -0.5053     1.9578     1.9578     0.0000
  4 C      5.8340     6.0000     0.1660     3.9419     3.9419     0.0000
  5 H      0.9541     1.0000     0.0459     0.9866     0.9866    -0.0000
  6 H      0.9630     1.0000     0.0370     0.9741     0.9741     0.0000
  7 H      0.9888     1.0000     0.0112     0.9758     0.9758     0.0000
  8 H      0.9588     1.0000     0.0412     0.9851     0.9851     0.0000
  9 H      1.0034     1.0000    -0.0034     0.9770     0.9770     0.0000
 10 H      0.9514     1.0000     0.0486     0.9862     0.9862     0.0000
 11 H      0.9749     1.0000     0.0251     0.9698     0.9698     0.0000
 12 H      0.9847     1.0000     0.0153     0.9697     0.9697     0.0000

  Mayer bond orders larger than 0.1
B(  0-C ,  1-O ) :   0.9598 B(  0-C ,  5-H ) :   0.9955 B(  0-C ,  6-H ) :   0.9823 
B(  0-C ,  7-H ) :   0.9791 B(  1-O ,  2-C ) :   1.0236 B(  2-C ,  3-O ) :   0.9664 
B(  2-C ,  8-H ) :   0.9818 B(  2-C ,  9-H ) :   0.9713 B(  3-O ,  4-C ) :   0.9646 
B(  4-C , 10-H ) :   0.9936 B(  4-C , 11-H ) :   0.9850 B(  4-C , 12-H ) :   0.9803 


-------
TIMINGS
-------

Total SCF time: 0 days 0 hours 0 min 3 sec 

Total time                  ....       3.137 sec
Sum of individual times     ....       2.990 sec  ( 95.3%)

Fock matrix formation       ....       2.949 sec  ( 94.0%)
Diagonalization             ....       0.003 sec  (  0.1%)
Density matrix formation    ....       0.001 sec  (  0.0%)
Population analysis         ....       0.005 sec  (  0.2%)
Initial guess               ....       0.025 sec  (  0.8%)
Orbital Transformation      ....       0.000 sec  (  0.0%)
Orbital Orthonormalization  ....       0.000 sec  (  0.0%)
DIIS solution               ....       0.000 sec  (  0.0%)
SOSCF solution              ....       0.007 sec  (  0.2%)


           ************************************************************
           *        Program running with 4 parallel MPI-processes     *
           *              working on a common directory               *
           ************************************************************


------------------------------------------------------------------------------- 
                              ORCA-MATRIX DRIVEN CI                            
------------------------------------------------------------------------------- 


Wavefunction type
-----------------
Correlation treatment                      ...      CCSD     
Single excitations                         ... ON
Orbital optimization                       ... OFF
Calculation of Z vector                    ... OFF
Calculation of Brueckner orbitals          ... OFF
Perturbative triple excitations            ... ON
Calculation of F12 correction              ... OFF
Frozen core treatment                      ... chemical core (10 el)
Reference Wavefunction                     ... RHF
  Internal Orbitals:     5 ...   20 ( 16 MO's/ 32 electrons)
  Virtual  Orbitals:    21 ...  109 ( 89 MO's              )
Number of AO's                             ...    110
Number of electrons                        ...     42
Number of correlated electrons             ...     32

Algorithmic settings
--------------------
Integral transformation                    ... All integrals via the RI transformation
K(C) Formation                             ... RI-DLPNO
   PNO-Integral Storage                    ... ON DISK
   PNO occupation number cut-off           ... 1.000e-07
   Singles PNO occupation number cut-off   ... 3.000e-09
   PNO Mulliken prescreening cut-off       ... 1.000e-03
   Domain cut-off (Mulliken population)    ... 1.000e-03
   PNO Normalization                       ...    1
Maximum number of iterations               ...        50
Convergence tolerance (max. residuum)      ... 1.000e-05
Level shift for amplitude update           ... 2.000e-01
Maximum number of DIIS vectors             ...         7
DIIS turned on at iteration                ...         0
Damping before turning on DIIS             ...     0.500
Damping after turning on DIIS              ...     0.000
Pair specific amplitude update             ... OFF
Natural orbital iterations                 ... OFF
Perturbative natural orbital generation    ... OFF
Printlevel                                 ... 2

Singles Fock matrix elements calculated using PNOs.

Memory handling:
----------------
Maximum memory for working arrays          ...   8000 MB
Data storage in matrix containers          ... UNCOMPRESSED
Data type for integral storage             ... DOUBLE
In-Core Storage of quantities:
   Amplitudes+Sigma Vector      ... NO
   J+K operators                ... NO
   DIIS vectors                 ... NO
   3-external integrals         ... NO
   4-external integrals         ... NO

Localization treatment:
-----------------------
Localization option                        ...    6
Localization threshhold                    ... -1.0e+00
Using relative localization threshhold     ... 1.0e-08
Neglect threshold for strong pairs         ... 1.000e-05 Eh
Prescreening threshold for very weak pairs ... 1.000e-07 Eh

Initializing the integral package          ... done
Localizing the valence orbitals
------------------------------------------------------------------------------
                           ORCA ORBITAL LOCALIZATION
------------------------------------------------------------------------------

Input orbitals are from                  ... Formaldehyde_dimethylacetal_g_ecl_dimethoxymethane.proc0.gbw
Output orbitals are to                   ... Formaldehyde_dimethylacetal_g_ecl_dimethoxymethane.proc0.loc
Max. number of iterations                ... 128
Localizations seeded randomly            ... off
Convergence tolerance                    ... 1.000e-06
Using relative localization threshhold   ... 1.000e-08
Treshold for strong local MOs            ... 9.500e-01
Treshold for bond MOs                    ... 8.500e-01
Operator                                 ... 0
Orbital range for localization           ... 5 to 20
Localization criterion                   ... FOSTER-BOYS (AUGMENTED HESSIAN)
Doing the dipole integrals     ... o.k.
Initial value of the localization sum :   156.513136
ITERATION   0 : L=  167.0198061118 DL=  1.05e+01 (AVERGE_DL)=    0.2958979269 
ITERATION   1 : L=  168.4942469740 DL=  1.47e+00 (AVERGE_DL)=    0.1108467735 
ITERATION   2 : L=  168.5279583225 DL=  3.37e-02 (AVERGE_DL)=    0.0167609040 
ITERATION   3 : L=  168.5288440992 DL=  8.86e-04 (AVERGE_DL)=    0.0027168864 
ITERATION   4 : L=  168.5289011462 DL=  5.70e-05 (AVERGE_DL)=    0.0006894866 
ITERATION   5 : L=  168.5289077800 DL=  6.63e-06 (AVERGE_DL)=    0.0002351211 
ITERATION   6 : L=  168.5289086008 DL=  8.21e-07 (AVERGE_DL)=    0.0000827046 
LOCALIZATION SUM CONVERGED

------------------------------------------------------
AUGMENTED HESSIAN OPTIMIZATION OF FOSTER-BOYS ORBITALS
------------------------------------------------------

Spin operator:           0
Orbital window:          5 to 20
Number of iterations:    128
Gradient tolerance:      1.000e-06
Number of pairs:         120
Davidson threshold:      2000
Diagonalization method:  LAPACK
Iter:    0   L: 168.5289086008   Grad. norm: 1.105122e-03
   *** Likely close to a maximum now. ***
       Augmented Hessian eigenvalues:  2.31e-07 -1.11e+00 -1.12e+00 -3.51e+00 ... 
Iter:    1   L: 168.5289087163   Grad. norm: 7.861289e-08
LOCALIZATION HAS CONVERGED.

Eigenvalues of the Hessian:
  0 -1.108e+00
  1 -1.123e+00
  2 -3.507e+00
  3 -3.539e+00
  4 -5.273e+00
  5 -5.304e+00
  6 -5.372e+00
  7 -5.394e+00
  8 -7.421e+00
  9 -7.463e+00
    ...


------------------------------------------------------------------------------- 
                    LOCALIZED MOLECULAR ORBITAL COMPOSITIONS                   
------------------------------------------------------------------------------- 

The Mulliken populations for each LMO on each atom are computed
The LMO`s will be ordered according to atom index and type
  (A) Strongly localized MO`s have populations of >=0.950 on one atom
  (B) Two center bond orbitals have populations of >=0.850 on two atoms
  (C) Other MO`s are considered to be `delocalized`

FOUND  -   4 strongly local MO`s
       -  12 two center bond MO`s
       -   0 significantly delocalized MO`s

Rather strongly localized orbitals:
MO   8:   3O  -   0.979051
MO   7:   3O  -   0.976978
MO   6:   1O  -   0.970411
MO   5:   1O  -   0.978711
Bond-like localized orbitals:
MO  20:  12H  -   0.512083  and   4C  -   0.508981
MO  19:  11H  -   0.506433  and   4C  -   0.515619
MO  18:  10H  -   0.487145  and   4C  -   0.529248
MO  17:   9H  -   0.518072  and   2C  -   0.508542
MO  16:   8H  -   0.489972  and   2C  -   0.525831
MO  15:   7H  -   0.512002  and   0C  -   0.507308
MO  14:   6H  -   0.498348  and   0C  -   0.522961
MO  13:   5H  -   0.488583  and   0C  -   0.527926
MO  12:   4C  -   0.353962  and   3O  -   0.662765
MO  11:   3O  -   0.674042  and   2C  -   0.345877
MO  10:   2C  -   0.355384  and   1O  -   0.665524
MO   9:   1O  -   0.663943  and   0C  -   0.355289
Localized MO's were stored in: Formaldehyde_dimethylacetal_g_ecl_dimethoxymethane.proc0.loc

Localizing the core orbitals
------------------------------------------------------------------------------
                           ORCA ORBITAL LOCALIZATION
------------------------------------------------------------------------------

Input orbitals are from                  ... Formaldehyde_dimethylacetal_g_ecl_dimethoxymethane.proc0.loc
Output orbitals are to                   ... Formaldehyde_dimethylacetal_g_ecl_dimethoxymethane.proc0.loc
Max. number of iterations                ... 128
Localizations seeded randomly            ... off
Convergence tolerance                    ... 1.000e-06
Using relative localization threshhold   ... 1.000e-08
Treshold for strong local MOs            ... 9.500e-01
Treshold for bond MOs                    ... 8.500e-01
Operator                                 ... 0
Orbital range for localization           ... 0 to 4
Localization criterion                   ... FOSTER-BOYS (AUGMENTED HESSIAN)
Doing the dipole integrals     ... o.k.
Initial value of the localization sum :    40.909437
ITERATION   0 : L=   40.9094408598 DL=  3.96e-06 (AVERGE_DL)=    0.0006292501 
ITERATION   1 : L=   40.9094408598 DL=  0.00e+00 (AVERGE_DL)=    0.0000000000 
LOCALIZATION SUM CONVERGED

------------------------------------------------------
AUGMENTED HESSIAN OPTIMIZATION OF FOSTER-BOYS ORBITALS
------------------------------------------------------

Spin operator:           0
Orbital window:          0 to 4
Number of iterations:    128
Gradient tolerance:      1.000e-06
Number of pairs:         10
Davidson threshold:      2000
Diagonalization method:  LAPACK
Iter:    0   L: 40.9094408598   Grad. norm: 4.021777e-06
   *** Likely close to a maximum now. ***
       Augmented Hessian eigenvalues:  9.24e-14 -2.80e+01 -2.86e+01 -2.89e+01 ... 
Iter:    1   L: 40.9094408598   Grad. norm: 2.098691e-19
LOCALIZATION HAS CONVERGED.

Eigenvalues of the Hessian:
  0 -2.798e+01
  1 -2.861e+01
  2 -2.887e+01
  3 -2.889e+01
  4 -7.836e+01
  5 -8.048e+01
  6 -8.270e+01
  7 -1.205e+02
  8 -1.639e+02
  9 -1.758e+02


------------------------------------------------------------------------------- 
                    LOCALIZED MOLECULAR ORBITAL COMPOSITIONS                   
------------------------------------------------------------------------------- 

The Mulliken populations for each LMO on each atom are computed
The LMO`s will be ordered according to atom index and type
  (A) Strongly localized MO`s have populations of >=0.950 on one atom
  (B) Two center bond orbitals have populations of >=0.850 on two atoms
  (C) Other MO`s are considered to be `delocalized`

FOUND  -   5 strongly local MO`s
       -   0 two center bond MO`s
       -   0 significantly delocalized MO`s

Rather strongly localized orbitals:
MO   4:   4C  -   0.999762
MO   3:   3O  -   0.999707
MO   2:   2C  -   0.999797
MO   1:   1O  -   0.999714
MO   0:   0C  -   0.999752
Localized MO's were stored in: Formaldehyde_dimethylacetal_g_ecl_dimethoxymethane.proc0.loc

Warning: internal orbitals are localized - no re-canonicalization of internal orbitals

--------------------------
CLOSED-SHELL FOCK OPERATOR
--------------------------

RI-JK section for the Fock operator:
  RHF full Fock operator         ... done
  RHF frozen core Fock operator  ... done
Time needed for Fock operator              ...            0.741 sec
Reference energy                           ...   -267.965544642

--------------
DLPNO SETTINGS (2015 fully linear scaling implementation)
--------------

TCutMKN:           1.000e-03
TCutPAO:           1.000e-03
TCutPNO:           1.000e-07
TCutPNOSingles:    3.000e-09
TCutEN:            9.700e-01
TCutPAOExt:        1.000e-01
TCutPairs:         1.000e-05
TCutPre:           1.000e-07
TCutOSV:           1.000e-06
TCutDOij:          1.000e-05
TCutDO:            5.000e-03
TCutC:             1.000e-04
TCutCPAO:          1.000e-03
TCutCMO:           1.000e-03
TScaleDOMP2PreScr: 2.000e+00
TScaleMKNMP2PreScr:1.000e+01
TScalePNOMP2PreScr:1.000e+00
PAO overlap thresh 1.000e-08
Using PNOs for Singles Fock computation
Use new domains
Use fully linear algorithm
TCutTNO:           1.000e-09
TCutMP2Pairs:      1.000e-06
TCutDOStrong:      2.000e-03
TCutMKNStrong:     1.000e-02
TCutMKNWeak:       1.000e-01
TCutDOWeak:        4.000e-03
NTCutTNO:          1

--------------------------
Calculating differential overlap integrals ... ok
--------------------------
ELECTRON PAIR PRESCREENING
--------------------------

Dipole-based pair screening          .... used

   TCutDOij = 1.000000e-05
   TCutPre  = 1.000000e-07
   .... Finished loop over pairs
Total time spent in the prescreening                  ...     0.000 sec
sum of pair energies estimated for screened out pairs ...       0.000000000000 Eh
Thresholds for map construction and integral transformation for crude MP2:
   TCutMKN                    ...     1.0e-02
   TCutDO                     ...     1.0e-02
   TCutPairs                  ...     1.0e-05
   TCutPNO_CrudeMP2           ...     1.0e-07
   TCutPNOSingles_CrudeMP2    ...     3.0e-09
--------------------------------
LOCAL RI TRANSFORMATION (IAVPAO)
--------------------------------

Orbital window:       5 to 20
Number of PAOs:     110
Basis functions:    110 (54 shells)
Aux. functions:     392 (138 shells)

Processing maps (0.0 sec)
Average map sizes:
   Aux shells -> MOs              16.0
   Aux shells -> PAOs            110.0
   MOs        -> AO shells        52.9
   PAOs       -> AO shells        54.0

Calculating integrals (0.3 sec, 5.268 MB)
Sorting integrals (0.0 sec, 5.264 MB)
Total time for the integral transformation: 0.3 sec
--------------------------------
INITIAL GUESS AND PNO GENERATION
--------------------------------

PNO truncation parameters                   .... 
    PAOOverlapThresh   =        1.000e-08

    TCutPairs          =        1.000e-05
    TCutPNO            =        1.000e-07
    TCutPNOSingles     =        3.000e-09
    TCutMP2Pairs       =        1.000e-06
    TCutMKN            =        1.000e-02
    TCutDO             =        1.000e-02

Pair selection                          .... not used
Type of local MP2 treatment                 .... semi-local MP2
Strategy for PNO selection                  .... occupation number selection
Pair density normalization                  .... MP2 norm
Spin component scaling                      .... not used

   .... Finished loop over pairs
Making pair pair interaction lists          ... done

                       ===========================
                        136 OF  136 PAIRS ARE KEPT CCSD PAIRS
                          0 OF  136 PAIRS ARE KEPT MP2 PAIRS FOR (T)
                          0 OF  136 PAIRS ARE SKIPPED
                       ===========================

Total time spent in the initial guess                 ...     0.190 sec
SL-MP2 correlation energy (all non-screened pairs)    ...      -0.769773381203 Eh

Initial PNO correlation energy                        ...      -0.769516609969 Eh
sum of pair energies prescreened and skipped MP2 pairs...       0.000000000000 Eh
sum of pair energies of crude MP2 skipped pairs only  ...       0.000000000000 Eh
sum of MP2 pair energies for pairs that were not kept ...       0.000000000000 Eh
sum of PNO error estimates for the kept pairs         ...      -0.000256771234 Eh
                                                          --------------------
sum of all corrections                                         -0.000256771234
Initial total correlation energy                               -0.769773381203
Thresholds for map construction and integral transformation for fine MP2 and CCSD(T) calculation:
   TCutMKN   ...     1.0e-03
   TCutDO    ...     5.0e-03
   TCutPairs ...     1.0e-05
   TCutCMO   ...     1.0e-03
   TCutCPAO  ...     1.0e-03

Thresholds for map construction and integral transformation for strong Triples:
   TCutMKN   ...     1.0e-02
   TCutDO    ...     1.0e-02
   TCutCMO   ...     1.0e-03
   TCutCPAO  ...     1.0e-03

Thresholds for map construction and integral transformation for weak Triples:
   TCutMKN   ...     1.0e-01
   TCutDO    ...     2.0e-02
   TCutCMO   ...     1.0e-03
   TCutCPAO  ...     1.0e-03

--------------------------------
LOCAL RI TRANSFORMATION (IAVPAO)
--------------------------------

Orbital window:       5 to 20
Number of PAOs:     110
Basis functions:    110 (54 shells)
Aux. functions:     392 (138 shells)

Processing maps (0.0 sec)
Average map sizes:
   Aux shells -> MOs              16.0
   Aux shells -> PAOs            110.0
   MOs        -> AO shells        52.9
   PAOs       -> AO shells        54.0

Calculating integrals (0.3 sec, 5.268 MB)
Sorting integrals (0.0 sec, 5.264 MB)
Total time for the integral transformation: 0.3 sec
--------------------------------
INITIAL GUESS AND PNO GENERATION
--------------------------------

PNO truncation parameters                   .... 
    ScaleTCutPNO       =        1.000e-02
    PAOOverlapThresh   =        1.000e-08

    TCutPairs          =        1.000e-05
    TCutPNO            =        1.000e-07
    TCutPNOSingles     =        3.000e-09
    TCutMP2Pairs       =        1.000e-06
    TCutMKN            =        1.000e-03
    TCutDO             =        5.000e-03

Pair selection                          .... not used
Type of local MP2 treatment                 .... full local PMP2
Strategy for PNO selection                  .... occupation number selection
Pair density normalization                  .... MP2 norm
Spin component scaling                      .... not used

PASS-1: Formation of initial guess LMP2 amplitudes
Initial amplitudes guess done. Entering LMP2 iteration loop:
   Max. no of iterations          ...  50
   Energy convergence tolerance   ...    1.0e-07
   Residual convergence tolerance ...    5.0e-07
   Fock matrix cutoff             ...    1.0e-05 Eh
   DIIS convergence acceleration parameters:
        Max # vectors in DIIS     ... 7
        Start iteration of DIIS   ... 0
        Levelshift                ... 2.000e-01
        Damping factor 1          ... 5.000e-01
        Damping factor 2          ... 1.000e+00
   L-MP2 PNO cut-off              ...   1.0e-09
   L-MP2 PNO cut-off (core)       ...   1.0e-11
                           *** Turning on DIIS ***
LMP2-Iter=   0:  ELMP2= -0.788818737184  DE=   1.9e-02 RMAX=   6.4e-03
LMP2-Iter=   1:  ELMP2= -0.797771131356  DE=   9.0e-03 RMAX=   3.3e-03
LMP2-Iter=   2:  ELMP2= -0.799154162903  DE=   1.4e-03 RMAX=   6.7e-04
LMP2-Iter=   3:  ELMP2= -0.799302255127  DE=   1.5e-04 RMAX=   2.1e-04
LMP2-Iter=   4:  ELMP2= -0.799310401004  DE=   8.1e-06 RMAX=   2.4e-05
LMP2-Iter=   5:  ELMP2= -0.799309514289  DE=   8.9e-07 RMAX=   7.7e-06
LMP2-Iter=   6:  ELMP2= -0.799309408907  DE=   1.1e-07 RMAX=   1.2e-06
LMP2-Iter=   7:  ELMP2= -0.799309399203  DE=   9.7e-09 RMAX=   3.3e-07
LMP2-Iter=   8:  ELMP2= -0.799309408603  DE=   9.4e-09 RMAX=   5.7e-08 => CONVERGED
PASS-2: Formation of Pair natural orbitals
   .... Finished loop over pairs

 PNO Occupation Number Statistics: 
  | Av. % of trace(Dij) retained        ...  99.641914392987
  | sigma^2 in % of trace(Dij) retained ...   2.94e-01
  | Av. % of trace(Di) retained         ...  99.999881319534
  | sigma^2 in % of trace(Di) retained  ...   5.11e-09
 Distributions of % trace(Dij) recovered:
  |       >= 99.9  ...    76 ( 55.9 % of all pairs)
  |   [90.0, 99.0) ...    18 ( 13.2 % of all pairs)
  |   [99.0, 99.9) ...    42 ( 30.9 % of all pairs)
 Distributions of % trace(Di) recovered :
  |       >= 99.9  ...    16 (100.0 % of all I-pairs )

Making pair pair interaction lists          ... done

                       ===========================
                        136 OF  136 PAIRS ARE KEPT
                       ===========================

Total time spent in the initial guess                 ...     1.698 sec
L-MP2 correlation energy (all non-screened pairs)     ...      -0.799309408603 Eh
L-MP2 PNO error correction                            ...      -0.000003427567 Eh
                                                          --------------------
Initial total L-MP2 energy (non-screened pairs)       ...      -0.799312836171 Eh

Initial PNO correlation energy                        ...      -0.799073388853 Eh
sum of pair energies estimated for screened out pairs ...       0.000000000000 Eh
sum of MP2 pair energies for pairs that were not kept ...       0.000000000000 Eh
sum of PNO error estimates for the kept pairs         ...      -0.000239447318 Eh
                                                          --------------------
sum of all corrections                                         -0.000239447318
Initial total correlation energy                               -0.799312836171
Thresholds for map construction and integral transformation for fine MP2 and CCSD(T) calculation:
   TCutMKN   ...     1.0e-03
   TCutDO    ...     5.0e-03
   TCutPairs ...     1.0e-05
   TCutCMO   ...     1.0e-03
   TCutCPAO  ...     1.0e-03

Time for aux screen maps:            0.001
Time for maps after fine MP2:            0.004
-----------------------------
LOCAL RI TRANSFORMATION (IJV)
-----------------------------

Orbital window:       5 to 20
Basis functions:    110 (54 shells)
Aux. functions:     392 (138 shells)

Processing maps (0.0 sec)
Average map sizes:
   Aux shells -> MOs(i)           16.0
   Aux shells -> MOs(j)           16.0
   MOs        -> AO shells        52.9

Calculating integrals (0.3 sec, 0.770 MB)
Sorting integrals (0.0 sec, 0.766 MB)
Total time for the integral transformation: 0.3 sec
--------------------------------
LOCAL RI TRANSFORMATION (VABPAO)
--------------------------------

Number of PAOs:     110
Basis functions:    110 (54 shells)
Aux. functions:     392 (138 shells)

Processing maps (0.0 sec)
Average map sizes:
   Aux shells -> PAOs            110.0
   PAOs       -> AO shells        54.0

Calculating integrals (0.3 sec, 63.983 MB)
Finished


-------------------------------------
Pair Pair Term precalculation with     
RI-(ij|mn) and (im|jn) transformation  
ON THE FLY                             
-------------------------------------

   IBatch   1 (of   1)              ... done (    5.720 sec)
Total EXT                           ...           5.720 sec

---------------------
RI-PNO TRANSFORMATION
---------------------

Total Number of PNOs                   ...  3503
Average number of PNOs per pair        ...    25
Maximal number of PNOs per pair        ...    36
   #pairs with  1 -  5 PNOs   :    0
   #pairs with  6 - 10 PNOs   :    9
   #pairs with 11 - 15 PNOs   :   12
   #pairs with 16 - 20 PNOs   :   12
   #pairs with 21 - 25 PNOs   :   25
   #pairs with 26 - 30 PNOs   :   23
   #pairs with 31 - 35 PNOs   :   54
   #pairs with 36 - 40 PNOs   :    1
   #pairs with 41 - 45 PNOs   :    0
   #pairs with 46 - 50 PNOs   :    0

Generation of (ij|ab)[P] integrals            ... on
Generation of (ia|bc)[P],(ja|bc)[P] integrals ... on
Storage of 3 and 4 external integrals         ... on
Generation of ALL (ka|bc)[P] integrals        ... on
Keep RI integrals in memory                   ... off

Ibatch:  1 (of  1)
Starting 2-4 index PNO integral generation ... done

Timings:
Total PNO integral transformation time     ...          1.798 sec
Size of the 3-external file                ...        23 MB
Size of the 4-external file                ...        91 MB
Size of the IKJL file                      ...         0 MB
Size of the all 3-external file            ...       184 MB
Size of the 1-external file                ...         1 MB

Making pair/pair overlap matrices          ... done (    0.302 sec)
Size of the pair overlap file              ... 66 MB
Redoing the guess amplitudes               ... done (    0.001 sec)

-------------------------
FINAL STARTUP INFORMATION
-------------------------

E(0)                                       ...   -267.965544642
E(L-MP2)                                   ...     -0.799312836
E(L-MP2) including corrections             ...     -0.799312836
Initial E(tot)                             ...   -268.764857478
<T|T>                                      ...      0.215550084
Number of pairs included                   ... 136
Total number of pairs                      ... 136

------------------------------------------------
                  RHF COUPLED CLUSTER ITERATIONS
------------------------------------------------

Number of PNO amplitudes to be optimized   ...        98693
Number of non-PNO amplitudes               ...      1077256
Untruncated number of regular amplitudes   ...      1077256

Iter       E(tot)           E(Corr)          Delta-E          Residual     Time
  0   -268.735582404     -0.769798315      0.029514522      0.022058039    1.32
                           *** Turning on DIIS ***
  1   -268.786774252     -0.820990163     -0.051191848      0.008246322    1.34
  2   -268.813355898     -0.847571809     -0.026581646      0.002312391    1.33
  3   -268.817380255     -0.851596166     -0.004024357      0.001245774    1.33
  4   -268.818500611     -0.852716522     -0.001120357      0.000519401    1.33
  5   -268.818765476     -0.852981387     -0.000264865      0.000246619    1.33
  6   -268.818818459     -0.853034370     -0.000052983      0.000096086    1.33
  7   -268.818830648     -0.853046559     -0.000012188      0.000032323    1.33
  8   -268.818833952     -0.853049863     -0.000003305      0.000010634    1.35
  9   -268.818833813     -0.853049724      0.000000139      0.000002960    1.34
               --- The Coupled-Cluster iterations have converged ---

----------------------
COUPLED CLUSTER ENERGY
----------------------

E(0)                                       ...   -267.965544642
E(CORR)(strong-pairs)                      ...     -0.853049724
E(CORR)(weak-pairs)                        ...     -0.000239447
E(CORR)(corrected)                         ...     -0.853289171
E(TOT)                                     ...   -268.818833813
Singles Norm <S|S>**1/2                    ...      0.058147149  
T1 diagnostic                              ...      0.010279061  

------------------
LARGEST AMPLITUDES
------------------
  13-> 29  13-> 29       0.044414
  18-> 29  18-> 29       0.043587
  16-> 29  16-> 29       0.043380
  14-> 28  14-> 28       0.043036
  20-> 28  20-> 28       0.041794
  17-> 21  17-> 21       0.037553
  17-> 28  17-> 28       0.037530
  15-> 21  15-> 21       0.037082
  20-> 21  20-> 21       0.036831
  15-> 28  15-> 28       0.036610
  16-> 21  16-> 21       0.036153
  19-> 21  19-> 21       0.035708
  13-> 21  13-> 21       0.034743
  14-> 21  14-> 21       0.034652
  18-> 21  18-> 21       0.034579
  12-> 22  12-> 22       0.033232


-------------------------------------------
DLPNO BASED TRIPLES CORRECTION
-------------------------------------------

Singles multiplier          ...  1.000000
TCutTNO                     ... 1.000e-09
TCutMP2Pairs                ... 1.000e-06
TCutDOStrong                ... 1.000e-02
TCutMKNStrong               ... 1.000e-02
TCutDOWeak                  ... 2.000e-02
TCutMKNWeak                 ... 1.000e-01

Fragment selection                          .... not used
Number of Triples that are to be computed   ...       800

 . . . . . . . . .
10% done  
20% done  
30% done  
40% done  
50% done  
60% done  
70% done  
80% done  
90% done               (     10.929 sec)
Triples timings:
Total time for T0               ...    11.821 sec
Total time for Iterative (T)    ...     0.000 sec
Total time of overall (T)       ...    11.944 sec

Triples List generation         ...     0.000 sec
TNO generation                  ...     0.890 sec
Pair density generation         ...     0.001 sec
Look up tables                  ...     0.000 sec
Generating 3-index integrals    ...     4.883 sec
  Make 4-ind.int. from 3-ind.int...     2.334 sec
  Projecting amplitudes (D + S) ...     1.034 sec
  Downprojecting integrals      ...     0.001 sec
  Energy contr. (sum over a,b,c)...     0.831 sec
Fitting ET(->0)                 ...     0.000 sec

Everything after 3-index        ...     6.046 sec

Timing details:
 TNO integrals                  ...     6.858 sec
   Reading 3-index integrals    ...     0.014 sec
   Sorting integrals            ...     1.469 sec
       Sorting integrals 1      ...     0.000 sec
       Sorting integrals 2      ...     0.412 sec
       Sorting integrals 3      ...     0.079 sec
       Sorting integrals 4      ...     0.010 sec
       Sorting integrals 5      ...     0.023 sec
       Sorting integrals 6      ...     0.945 sec
   Calculating local VM**-1/2   ...     0.079 sec
   Orthogonal. integrals        ...     0.149 sec
   Multipl. 3-index integrals   ...     5.147 sec
   All concerning IRIab (w/TNO) ...     1.050 sec

 Calculate W0/W1                ...     1.841 sec
 W 3-ext contribution           ...     1.020 sec
 W 3-int contribution           ...     0.336 sec
 Sorting W                      ...     0.434 sec

 V exchange contribution        ...     0.335 sec

 Timings for Triples without generation
     of 3-index integrals       ...     6.044 sec
       0 weak pairs             ...     6.044 sec
       1 weak pair              ...     0.000 sec
       2 weak pairs             ...     0.000 sec
       3 weak pairs             ...     0.000 sec
  Extra time for extrapolation  ...     0.000 sec

Number of Triples   (0, 1, 2, 3 weak pairs; overall):    800       0       0       0  (   800)
Number of Atoms     (0, 1, 2, 3 weak pairs; overall):   12.6     0.0     0.0     0.0  (    13)
Number of PAOs      (0, 1, 2, 3 weak pairs; overall):  107.5     0.0     0.0     0.0  (   110)
Number of AuxFcns   (0, 1, 2, 3 weak pairs; overall):  200.3     0.0     0.0     0.0  (   392)
Number of TNOs      (0, 1, 2, 3 weak pairs         ):   55.2     0.0     0.0     0.0
Aver. Number of NTNO, Atoms, PAOs, AuxFcns / Triples:    800    55.2    12.6   107.5   200.3

Triples Correction (T)                     ...     -0.021723726
Final correlation energy                   ...     -0.875012898
E(CCSD)                                    ...   -268.818833813
E(CCSD(T))                                 ...   -268.840557540


Maximum memory used throughout the entire calculation: 1795.3 MB


------------------------------------------------------------------------------- 
                                     TIMINGS                                   
------------------------------------------------------------------------------- 


Total execution time                   ...       38.724 sec

Localization of occupied MO's          ...        0.378 sec (  1.0%)
Fock Matrix Formation                  ...        0.741 sec (  1.9%)
Global overlap, Fock, MKN matrices     ...        0.115 sec (  0.3%)
Differential overlap integrals         ...        0.070 sec (  0.2%)
Organizing maps                        ...        0.013 sec (  0.0%)
RI 3-index integral generations        ...        1.221 sec (  3.2%)
RI-PNO integral transformation         ...        8.795 sec ( 22.7%)
Initial Guess                          ...        1.899 sec (  4.9%)
DIIS Solver                            ...        0.302 sec (  0.8%)
State Vector Update                    ...        0.008 sec (  0.0%)
Sigma-vector construction              ...       13.234 sec ( 34.2%)
  <D|H|D>(0-ext)                       ...        0.971 sec (  7.3% of sigma)
  <D|H|D>(2-ext Fock)                  ...        0.008 sec (  0.1% of sigma)
  <D|H|D>(2-ext)                       ...        1.874 sec ( 14.2% of sigma)
  <D|H|D>(4-ext)                       ...        1.042 sec (  7.9% of sigma)
  <D|H|D>(4-ext-corr)                  ...        4.897 sec ( 37.0% of sigma)
  CCSD doubles correction              ...        0.098 sec (  0.7% of sigma)
  <S|H|S>                              ...        0.122 sec (  0.9% of sigma)
  <S|H|D>(1-ext)                       ...        0.150 sec (  1.1% of sigma)
  <D|H|S>(1-ext)                       ...        0.006 sec (  0.0% of sigma)
  <S|H|D>(3-ext)                       ...        0.095 sec (  0.7% of sigma)
  Fock-dressing                        ...        2.301 sec ( 17.4% of sigma)
  Singles amplitudes                   ...        0.118 sec (  0.9% of sigma)
  (ik|jl)-dressing                     ...        0.676 sec (  5.1% of sigma)
  (ij|ab),(ia|jb)-dressing             ...        0.780 sec (  5.9% of sigma)
  Pair energies                        ...        0.003 sec (  0.0% of sigma)
Total Time for computing (T)           ...       11.974 sec ( 30.9% of ALL)


-------------------------   --------------------
FINAL SINGLE POINT ENERGY      -268.840557539631
-------------------------   --------------------


                            ***************************************
                            *     ORCA property calculations      *
                            ***************************************

                                    ---------------------
                                    Active property flags
                                    ---------------------
   (+) Dipole Moment


------------------------------------------------------------------------------
                       ORCA ELECTRIC PROPERTIES CALCULATION
------------------------------------------------------------------------------

Dipole Moment Calculation                       ... on
Quadrupole Moment Calculation                   ... off
Polarizability Calculation                      ... off
GBWName                                         ... Formaldehyde_dimethylacetal_g_ecl_dimethoxymethane.gbw
Electron density file                           ... Formaldehyde_dimethylacetal_g_ecl_dimethoxymethane.scfp.tmp
The origin for moment calculation is the CENTER OF MASS  = ( 0.033080, -0.086361 -0.062340)

-------------
DIPOLE MOMENT
-------------
                                X             Y             Z
Electronic contribution:      1.04731      -3.02742      -1.88354
Nuclear contribution   :     -1.38916       3.62722       2.61817
                        -----------------------------------------
Total Dipole Moment    :     -0.34185       0.59981       0.73463
                        -----------------------------------------
Magnitude (a.u.)       :      1.00812
Magnitude (Debye)      :      2.56245



--------------------
Rotational spectrum 
--------------------
 
Rotational constants in cm-1:     0.332869     0.110423     0.092707 
Rotational constants in MHz :  9979.171834  3310.410502  2779.277188 

 Dipole components along the rotational axes: 
x,y,z [a.u.] :    -0.341678    -0.613676     0.723169 
x,y,z [Debye]:    -0.868477    -1.559841     1.838149 

 

Timings for individual modules:

Sum of individual times         ...       42.519 sec (=   0.709 min)
GTO integral calculation        ...        0.399 sec (=   0.007 min)   0.9 %
SCF iterations                  ...        3.233 sec (=   0.054 min)   7.6 %
MDCI module                     ...       38.887 sec (=   0.648 min)  91.5 %
                             ****ORCA TERMINATED NORMALLY****
TOTAL RUN TIME: 0 days 0 hours 0 minutes 42 seconds 784 msec
Formaldehyde_dimethylacetal_g_ecl_dimethoxymethane.gbw -> /home1/pantazis/klk/VDZ/Oxygen_compounds/Formaldehyde_dimethylacetal_g_ecl_dimethoxymethane.gbw
Formaldehyde_dimethylacetal_g_ecl_dimethoxymethane.ges -> /home1/pantazis/klk/VDZ/Oxygen_compounds/Formaldehyde_dimethylacetal_g_ecl_dimethoxymethane.ges
Formaldehyde_dimethylacetal_g_ecl_dimethoxymethane.job -> /home1/pantazis/klk/VDZ/Oxygen_compounds/Formaldehyde_dimethylacetal_g_ecl_dimethoxymethane.job
Formaldehyde_dimethylacetal_g_ecl_dimethoxymethane.loc -> /home1/pantazis/klk/VDZ/Oxygen_compounds/Formaldehyde_dimethylacetal_g_ecl_dimethoxymethane.loc
Formaldehyde_dimethylacetal_g_ecl_dimethoxymethane.nodes -> /home1/pantazis/klk/VDZ/Oxygen_compounds/Formaldehyde_dimethylacetal_g_ecl_dimethoxymethane.nodes
Formaldehyde_dimethylacetal_g_ecl_dimethoxymethane.prop -> /home1/pantazis/klk/VDZ/Oxygen_compounds/Formaldehyde_dimethylacetal_g_ecl_dimethoxymethane.prop
Formaldehyde_dimethylacetal_g_ecl_dimethoxymethane_property.txt -> /home1/pantazis/klk/VDZ/Oxygen_compounds/Formaldehyde_dimethylacetal_g_ecl_dimethoxymethane_property.txt
Formaldehyde_dimethylacetal_g_ecl_dimethoxymethane.xyz -> /home1/pantazis/klk/VDZ/Oxygen_compounds/Formaldehyde_dimethylacetal_g_ecl_dimethoxymethane.xyz
cp: cannot stat Formaldehyde_dimethylacetal_g_ecl_dimethoxymethane.asa.inp: No such file or directory
