! Job execution by suborca V 6.07 on ZEUS !
Job started from zeus1, running /scratch/pantazis/me_vinyl_ether_g__E1JS6Q/orca/orca copied from /opt/orca on zeussn149 in /scratch/pantazis/me_vinyl_ether_g__E1JS6Q
Job execution start: Sat Jun 29 11:51:58 CEST 2019
Shared library path: /scratch/pantazis/me_vinyl_ether_g__E1JS6Q/orca:/opt/openmpi_1.10.2/lib:/opt/intel/mkl/lib/intel64:/opt/intel/lib/intel64:
PBS Job ID is: 158923.icqc
izeussn149
izeussn149
izeussn149
izeussn149

                                 *****************
                                 * O   R   C   A *
                                 *****************

           --- An Ab Initio, DFT and Semiempirical electronic structure package ---

                  #######################################################
                  #                        -***-                        #
                  #          Department of theory and spectroscopy      #
                  #               Directorship: Frank Neese             #
                  #        Max Planck Institute fuer Kohlenforschung    #
                  #                Kaiser Wilhelm Platz 1               #
                  #                 D-45470 Muelheim/Ruhr               #
                  #                      Germany                        #
                  #                                                     #
                  #                  All rights reserved                #
                  #                        -***-                        #
                  #######################################################


                         Program Version 4.1.x  -  STABLE  -
                                (SVN: $Rev: 14094$)
                ($Date: 2019-06-14 15:01:15 +0200 (Fri, 14 Jun 2019) $)

                         (BUILD: $Sun Jun 23 06:18:31 CEST 2019$)


 With contributions from (in alphabetic order):
   Daniel Aravena         : Magnetic Properties
   Michael Atanasov       : Ab Initio Ligand Field Theory
   Alexander A. Auer      : GIAO ZORA
   Ute Becker             : Parallelization
   Giovanni Bistoni       : ED, Open-shell LED
   Martin Brehm           : Molecular dynamics
   Dmytro Bykov           : SCF Hessian
   Vijay G. Chilkuri      : MRCI spin determinant printing
   Dipayan Datta          : RHF DLPNO-CCSD density
   Achintya Kumar Dutta   : EOM-CC, STEOM-CC
   Dmitry Ganyushin       : Spin-Orbit,Spin-Spin,Magnetic field MRCI
   Miquel Garcia          : C-PCM Hessian
   Yang Guo               : DLPNO-NEVPT2, CIM, IAO-localization
   Andreas Hansen         : Spin unrestricted coupled pair/coupled cluster methods
   Benjamin Helmich-Paris : CASSCF linear response (MC-RPA)
   Lee Huntington         : MR-EOM, pCC
   Robert Izsak           : Overlap fitted RIJCOSX, COSX-SCS-MP3, EOM
   Christian Kollmar      : KDIIS, OOCD, Brueckner-CCSD(T), CCSD density
   Simone Kossmann        : Meta GGA functionals, TD-DFT gradient, OOMP2, MP2 Hessian
   Martin Krupicka        : AUTO-CI
   Lucas Lang             : DCDCAS
   Dagmar Lenk            : GEPOL surface, SMD
   Dimitrios Liakos       : Extrapolation schemes; parallel MDCI
   Dimitrios Manganas     : ROCIS; embedding schemes
   Dimitrios Pantazis     : SARC Basis sets
   Taras Petrenko         : DFT Hessian,TD-DFT gradient, ASA, ECA, R-Raman, ABS, FL, XAS/XES, NRVS
   Peter Pinski           : DLPNO-MP2, DLPNO-MP2 Gradient
   Christoph Reimann      : Effective Core Potentials
   Marius Retegan         : Local ZFS, SOC
   Christoph Riplinger    : Optimizer, TS searches, QM/MM, DLPNO-CCSD(T), (RO)-DLPNO pert. Triples
   Tobias Risthaus        : Range-separated hybrids, TD-DFT gradient, RPA, STAB
   Michael Roemelt        : Restricted open shell CIS
   Masaaki Saitow         : Open-shell DLPNO
   Barbara Sandhoefer     : DKH picture change effects
   Avijit Sen             : IP-ROCIS
   Kantharuban Sivalingam : CASSCF convergence, NEVPT2, FIC-MRCI
   Bernardo de Souza      : ESD, SOC TD-DFT
   Georgi Stoychev        : AutoAux, RI-MP2 NMR
   Willem Van den Heuvel  : Paramagnetic NMR
   Boris Wezisla          : Elementary symmetry handling
   Frank Wennmohs         : Technical directorship


 We gratefully acknowledge several colleagues who have allowed us to
 interface, adapt or use parts of their codes:
   Stefan Grimme, W. Hujo, H. Kruse,             : VdW corrections, initial TS optimization,
                  C. Bannwarth                     DFT functionals, gCP, sTDA/sTD-DF
   Ed Valeev                                     : LibInt (2-el integral package), F12 methods
   Garnet Chan, S. Sharma, J. Yang, R. Olivares  : DMRG
   Ulf Ekstrom                                   : XCFun DFT Library
   Mihaly Kallay                                 : mrcc  (arbitrary order and MRCC methods)
   Andreas Klamt, Michael Diedenhofen            : otool_cosmo (COSMO solvation model)
   Jiri Pittner, Ondrej Demel                    : Mk-CCSD
   Frank Weinhold                                : gennbo (NPA and NBO analysis)
   Christopher J. Cramer and Donald G. Truhlar   : smd solvation model
   Lars Goerigk                                  : TD-DFT with DH, B97 family of functionals
   V. Asgeirsson, H. Jonsson                     : NEB implementation
   FAccTs GmbH                                   : IRC, NEB, NEB-TS, Multilevel


 Your calculation uses the libint2 library for the computation of 2-el integrals
 For citations please refer to: http://libint.valeyev.net

 This ORCA versions uses:
   CBLAS   interface :  Fast vector & matrix operations
   LAPACKE interface :  Fast linear algebra routines
   SCALAPACK package :  Parallel linear algebra routines




***************************************
The coordinates will be read from file: me_vinyl_ether_g.xyz
***************************************


----- Orbital basis set information -----
Your calculation utilizes the basis: cc-pVDZ 
       H, B-Ne : Obtained from the ccRepo (grant-hill.group.shef.ac.uk/ccrepo) Feb. 2017
                 T. H. Dunning, Jr., J. Chem. Phys. 90, 1007 (1989)
            He : Obtained from the ccRepo (grant-hill.group.shef.ac.uk/ccrepo) Feb. 2017
                 D. E. Woon, T. H. Dunning, Jr., J. Chem. Phys. 100, 2975 (1994)
  Li-Be, Na-Mg : Obtained from the ccRepo (grant-hill.group.shef.ac.uk/ccrepo) Feb. 2017
                 B. P. Prascher, D. E. Woon, K. A. Peterson, T. H. Dunning, Jr., A. K. Wilson, Theor. Chem. Acc. 128, 69 (2011)
         Al-Ar : Obtained from the ccRepo (grant-hill.group.shef.ac.uk/ccrepo) Feb. 2017
                 D. E. Woon, T. H. Dunning, Jr., J. Chem. Phys. 98, 1358 (1993)
            Ca : Obtained from the Peterson Research Group Website (tyr0.chem.wsu.edu/~kipeters) Feb. 2017
                 J. Koput, K. A. Peterson, J. Phys. Chem. 106, 9595 (2002)
         Sc-Zn : Obtained from the ccRepo (grant-hill.group.shef.ac.uk/ccrepo) Feb. 2017
                 N. B. Balabanov, K. A. Peterson, J. Chem. Phys. 123, 064107 (2005)
                 N. B. Balabanov, K. A. Peterson, J. Chem. Phys. 125, 074110 (2006)
         Ga-Kr : Obtained from the ccRepo (grant-hill.group.shef.ac.uk/ccrepo) Feb. 2017
                 A. K. Wilson, D. E. Woon, K. A. Peterson, T. H. Dunning, Jr., J. Chem. Phys. 110, 7667 (1999)

----- AuxC basis set information -----
Your calculation utilizes the auxiliary basis: cc-pVDZ/C 
  H-He, B, Ne, Al-Ar, Ga-Br : Obtained from the EMSL Basis Set Exchange (bse.pnl.gov) Feb. 2017
                              F. Weigend, A. Kohn, C. Hattig, J. Chem. Phys. 116, 3175 (2002)
               Li-Be, Na-Mg : Obtained from the EMSL Basis Set Exchange (bse.pnl.gov) Feb. 2017
                              C. Haettig, Phys. Chem. Chem. Phys. 7, 59 (2005)
                        C-F : Obtained from the EMSL Basis Set Exchange (bse.pnl.gov) Feb. 2017
                              C. Haettig, Phys. Chem. Chem. Phys. 7, 59 (2005)
                              F. Weigend, A. Kohn, C. Hattig, J. Chem. Phys. 116, 3175 (2002)
                         Kr : Obtained from the TURBOMOLE 7.0 basis set library
                              F. Weigend, A. Kohn, C. Hattig, J. Chem. Phys. 116, 3175 (2002)
                              S function revised in Sep. 2009

----- AuxJK basis set information -----
Your calculation utilizes the auxiliary basis: cc-pVTZ/JK 
  H, B-F, Al-Cl, Ga-Br : Obtained from the TURBOMOLE 7.0 basis set library

================================================================================
                                        WARNINGS
                       Please study these warnings very carefully!
================================================================================


WARNING: MDCI localization with Augmented Hessian Foster-Boys
  ===> : Switching off randomization!

WARNING: Post HF methods need fully converged wavefunctions
  ===> : Setting SCFConvForced true
         You can overwrite this default with %scf ConvForced false 


INFO   : the flag for use of LIBINT has been found!

================================================================================
                                       INPUT FILE
================================================================================
NAME = me_vinyl_ether_g.inp
|  1> ! RHF DLPNO-CCSD(T) cc-pVDZ RIJK cc-pVTZ/JK cc-pVDZ/C
|  2> ! KDIIS SOSCF TightSCF TightPNO
|  3> 
|  4> %pal nprocs 4 end
|  5> 
|  6> %maxcore 8000
|  7> 
|  8> %scf maxiter 300
|  9>      shift shift 0.2 erroff 0.1 end
| 10> end
| 11> 
| 12> * xyzfile 0 1 me_vinyl_ether_g.xyz 
| 13> 
| 14> 
| 15>                          ****END OF INPUT****
================================================================================

                       ****************************
                       * Single Point Calculation *
                       ****************************

---------------------------------
CARTESIAN COORDINATES (ANGSTROEM)
---------------------------------
  C     -1.880300   -0.073640    0.030000
  C     -0.616390    0.354090   -0.027660
  O      0.445520   -0.500920   -0.052600
  C      1.730040    0.108340    0.035140
  H     -2.690290    0.645240    0.026610
  H     -2.120220   -1.130490    0.074350
  H     -0.362730    1.413780   -0.071430
  H      2.461360   -0.695930   -0.055770
  H      1.883250    0.829360   -0.778610
  H      1.864360    0.612690    1.000790

----------------------------
CARTESIAN COORDINATES (A.U.)
----------------------------
  NO LB      ZA    FRAG     MASS         X           Y           Z
   0 C     6.0000    0    12.011   -3.553252   -0.139159    0.056692
   1 C     6.0000    0    12.011   -1.164808    0.669133   -0.052270
   2 O     8.0000    0    15.999    0.841911   -0.946602   -0.099400
   3 C     6.0000    0    12.011    3.269302    0.204733    0.066405
   4 H     1.0000    0     1.008   -5.083911    1.219327    0.050286
   5 H     1.0000    0     1.008   -4.006635   -2.136316    0.140501
   6 H     1.0000    0     1.008   -0.685460    2.671657   -0.134983
   7 H     1.0000    0     1.008    4.651296   -1.315117   -0.105390
   8 H     1.0000    0     1.008    3.558827    1.567263   -1.471360
   9 H     1.0000    0     1.008    3.523130    1.157816    1.891219

--------------------------------
INTERNAL COORDINATES (ANGSTROEM)
--------------------------------
 C      0   0   0     0.000000000000     0.00000000     0.00000000
 C      1   0   0     1.335569585083     0.00000000     0.00000000
 O      2   1   0     1.363567729084   122.47708715     0.00000000
 C      3   2   1     1.424390285561   115.65605734   186.68994819
 H      1   2   3     1.082997574605   119.67409206   181.28502778
 H      1   2   3     1.084647616233   121.54351477     0.89921048
 H      2   1   3     1.090505435383   122.21315431   179.17180188
 H      4   3   2     1.090845453490   106.50419491   183.18415078
 H      4   3   2     1.097967306890   111.16599727   302.03417782
 H      4   3   2     1.097675137461   111.16607090    64.24706918

---------------------------
INTERNAL COORDINATES (A.U.)
---------------------------
 C      0   0   0     0.000000000000     0.00000000     0.00000000
 C      1   0   0     2.523860748603     0.00000000     0.00000000
 O      2   1   0     2.576769573022   122.47708715     0.00000000
 C      3   2   1     2.691707547528   115.65605734   186.68994819
 H      1   2   3     2.046568819704   119.67409206   181.28502778
 H      1   2   3     2.049686946491   121.54351477     0.89921048
 H      2   1   3     2.060756620427   122.21315431   179.17180188
 H      4   3   2     2.061399161529   106.50419491   183.18415078
 H      4   3   2     2.074857514022   111.16599727   302.03417782
 H      4   3   2     2.074305393816   111.16607090    64.24706918

---------------------
BASIS SET INFORMATION
---------------------
There are 3 groups of distinct atoms

 Group   1 Type C   : 17s4p1d contracted to 3s2p1d pattern {881/31/1}
 Group   2 Type O   : 17s4p1d contracted to 3s2p1d pattern {881/31/1}
 Group   3 Type H   : 4s1p contracted to 2s1p pattern {31/1}

Atom   0C    basis set group =>   1
Atom   1C    basis set group =>   1
Atom   2O    basis set group =>   2
Atom   3C    basis set group =>   1
Atom   4H    basis set group =>   3
Atom   5H    basis set group =>   3
Atom   6H    basis set group =>   3
Atom   7H    basis set group =>   3
Atom   8H    basis set group =>   3
Atom   9H    basis set group =>   3
-------------------------------
AUXILIARY BASIS SET INFORMATION
-------------------------------
There are 3 groups of distinct atoms

 Group   1 Type C   : 7s5p4d2f contracted to 7s5p4d2f pattern {1111111/11111/1111/11}
 Group   2 Type O   : 7s5p4d2f contracted to 7s5p4d2f pattern {1111111/11111/1111/11}
 Group   3 Type H   : 3s2p1d contracted to 3s2p1d pattern {111/11/1}

Atom   0C    basis set group =>   1
Atom   1C    basis set group =>   1
Atom   2O    basis set group =>   2
Atom   3C    basis set group =>   1
Atom   4H    basis set group =>   3
Atom   5H    basis set group =>   3
Atom   6H    basis set group =>   3
Atom   7H    basis set group =>   3
Atom   8H    basis set group =>   3
Atom   9H    basis set group =>   3
-------------------------------
AUXILIARY BASIS SET INFORMATION
-------------------------------
There are 3 groups of distinct atoms

 Group   1 Type C   : 10s7p5d2f1g contracted to 10s7p5d2f1g pattern {1111111111/1111111/11111/11/1}
 Group   2 Type O   : 10s7p5d2f1g contracted to 10s7p5d2f1g pattern {1111111111/1111111/11111/11/1}
 Group   3 Type H   : 4s3p2d1f contracted to 4s3p2d1f pattern {1111/111/11/1}

Atom   0C    basis set group =>   1
Atom   1C    basis set group =>   1
Atom   2O    basis set group =>   2
Atom   3C    basis set group =>   1
Atom   4H    basis set group =>   3
Atom   5H    basis set group =>   3
Atom   6H    basis set group =>   3
Atom   7H    basis set group =>   3
Atom   8H    basis set group =>   3
Atom   9H    basis set group =>   3

Checking for AutoStart:
The File: me_vinyl_ether_g.gbw exists
Trying to determine its content:
     ... Fine, the file contains calculation information
     ... Fine, the calculation information was read
     ... Fine, the file contains a basis set
     ... Fine, the basis set was read
     ... Fine, the file contains a geometry
     ... Fine, the geometry was read
     ... Fine, the file contains a set of orbitals
     ... Fine, the orbitals can be read
     => possible old guess file was deleted
     => GBW file was renamed to GES file
     => GES file is set as startup file
     => Guess is set to MORead
     ... now leaving AutoStart



           ************************************************************
           *        Program running with 4 parallel MPI-processes     *
           *              working on a common directory               *
           ************************************************************
------------------------------------------------------------------------------
                           ORCA GTO INTEGRAL CALCULATION
                           -- RI-GTO INTEGRALS CHOSEN --
------------------------------------------------------------------------------

                         BASIS SET STATISTICS AND STARTUP INFO

Gaussian basis set:
 # of primitive gaussian shells          ...  118
 # of primitive gaussian functions       ...  178
 # of contracted shells                  ...   42
 # of contracted basis functions         ...   86
 Highest angular momentum                ...    2
 Maximum contraction depth               ...    8
Auxiliary gaussian basis set:
 # of primitive gaussian shells          ...  160
 # of primitive gaussian functions       ...  496
 # of contracted shells                  ...  160
 # of contracted aux-basis functions     ...  496
 Highest angular momentum                ...    4
 Maximum contraction depth               ...    1
Ratio of auxiliary to basis functions    ...  5.77
Integral package used                  ... LIBINT
 One Electron integrals                  ... done
 Ordering auxiliary basis shells         ... done
 Integral threshhold             Thresh  ...  2.500e-11
 Primitive cut-off               TCut    ...  2.500e-12
 Pre-screening matrix                    ... done
 Shell pair data                         ... 
 Ordering of the shell pairs             ... done (   0.000 sec) 902 of 903 pairs
 Determination of significant pairs      ... done (   0.000 sec)
 Creation of shell pair data             ... done (   0.000 sec)
 Storage of shell pair data              ... done (   0.003 sec)
 Shell pair data done in (   0.004 sec)
 Computing two index integrals           ... done
 Cholesky decomposition of the V-matrix  ... done


Timings:
 Total evaluation time                   ...  14.692 sec (  0.245 min)
 One electron matrix time                ...  14.442 sec (  0.241 min) = 98.3%
 Schwartz matrix evaluation time         ...   0.138 sec (  0.002 min) =  0.9%
 Two index repulsion integral time       ...   0.042 sec (  0.001 min) =  0.3%
 Cholesky decomposition of V             ...   0.040 sec (  0.001 min) =  0.3%
 Three index repulsion integral time     ...   0.000 sec (  0.000 min) =  0.0%



           ************************************************************
           *        Program running with 4 parallel MPI-processes     *
           *              working on a common directory               *
           ************************************************************
-------------------------------------------------------------------------------
                                 ORCA SCF
-------------------------------------------------------------------------------

------------
SCF SETTINGS
------------
Hamiltonian:
 Ab initio Hamiltonian  Method          .... Hartree-Fock(GTOs)
 RI-approximation to the Coulomb term is turned on
   Number of auxiliary basis functions  .... 496
   RI-JK (J+K treated both via RI)      .... on


General Settings:
 Integral files         IntName         .... me_vinyl_ether_g
 Hartree-Fock type      HFTyp           .... RHF
 Total Charge           Charge          ....    0
 Multiplicity           Mult            ....    1
 Number of Electrons    NEL             ....   32
 Basis Dimension        Dim             ....   86
 Nuclear Repulsion      ENuc            ....    119.1009168685 Eh

Convergence Acceleration:
 DIIS                   CNVDIIS         .... off
 Newton-Raphson         CNVNR           .... off
 SOSCF                  CNVSOSCF        .... on
   Start iteration      SOSCFMaxIt      ....   150
   Startup grad/error   SOSCFStart      ....  0.003300
 Level Shifting         CNVShift        .... on
   Level shift para.    LevelShift      ....    0.2000
   Turn off err/grad.   ShiftErr        ....    0.1000
 Zerner damping         CNVZerner       .... off
 Static damping         CNVDamp         .... off
 Fernandez-Rico         CNVRico         .... off

SCF Procedure:
 Maximum # iterations   MaxIter         ....   300
 SCF integral mode      SCFMode         .... Direct
   Integral package                     .... LIBINT
 Reset frequency        DirectResetFreq ....    20
 Integral Threshold     Thresh          ....  2.500e-11 Eh
 Primitive CutOff       TCut            ....  2.500e-12 Eh

Convergence Tolerance:
 Convergence Check Mode ConvCheckMode   .... Total+1el-Energy
 Convergence forced     ConvForced      .... 1
 Energy Change          TolE            ....  1.000e-08 Eh
 1-El. energy change                    ....  1.000e-05 Eh
 Orbital Gradient       TolG            ....  1.000e-05
 Orbital Rotation angle TolX            ....  1.000e-05


Diagonalization of the overlap matrix:
Smallest eigenvalue                        ... 2.812e-03
Time for diagonalization                   ...    0.004 sec
Threshold for overlap eigenvalues          ... 1.000e-08
Number of eigenvalues below threshold      ... 0
Time for construction of square roots      ...    0.010 sec
Total time needed                          ...    0.014 sec

---------------------
INITIAL GUESS: MOREAD
---------------------
Guess MOs are being read from file: me_vinyl_ether_g.ges
Input Geometry matches current geometry (good)
Atom 0: N(Shells)= 6 and 10 - projection required
Input basis set needs projection
NBasis(read)= 204
NBasis(calc)= 86
Basis set overlap was calculated
Using GuessMode=FMatrix for the initial guess
C*T matrix was formed
Effective Fockian was calculated
Effective Fockian was diagonalized
Initial density was built
                      ------------------
                      INITIAL GUESS DONE (   0.0 sec)
                      ------------------
--------------
SCF ITERATIONS
--------------
ITER       Energy         Delta-E        Max-DP      RMS-DP      [F,P]   Gradient Norm
                             ****Turning on KDIIS(Cayley)****
  0   -191.9277049676   0.000000000000 0.00157765  0.00007437  0.0040523   0.005838366
  1   -191.9277867607  -0.000081793117 0.00333794  0.00015031  0.0036890   0.005294440
                      *** Initiating the SOSCF procedure ***
                           *** Shutting down KDIIS ***
                      *** Re-Reading the Fockian *** 
                      *** Removing any level shift *** 
ITER      Energy       Delta-E        Grad      Rot      Max-DP    RMS-DP
  2   -191.92792211  -0.0001353530  0.002961  0.002961  0.005694  0.000252
  3   -191.92808889  -0.0001667720  0.001776  0.000772  0.007050  0.000329
  4   -191.92817894  -0.0000900505  0.000429  0.000407  0.001774  0.000080
  5   -191.92818327  -0.0000043355  0.000198  0.000120  0.000405  0.000018
  6   -191.92818419  -0.0000009227  0.000024  0.000047  0.000067  0.000005
  7   -191.92818423  -0.0000000343  0.000015  0.000017  0.000044  0.000002
  8   -191.92818423  -0.0000000051  0.000004  0.000009  0.000012  0.000000
                  ***Gradient check signals convergence***
              ***Rediagonalizing the Fockian in SOSCF/NRSCF***

               *****************************************************
               *                     SUCCESS                       *
               *           SCF CONVERGED AFTER   9 CYCLES          *
               *****************************************************


----------------
TOTAL SCF ENERGY
----------------

Total Energy       :         -191.92818423 Eh           -5222.63141 eV

Components:
Nuclear Repulsion  :          119.10091687 Eh            3240.90071 eV
Electronic Energy  :         -311.02910110 Eh           -8463.53212 eV
One Electron Energy:         -496.20552362 Eh          -13502.43875 eV
Two Electron Energy:          185.17642251 Eh            5038.90663 eV

Virial components:
Potential Energy   :         -383.58468101 Eh          -10437.86982 eV
Kinetic Energy     :          191.65649678 Eh            5215.23841 eV
Virial Ratio       :            2.00141757


---------------
SCF CONVERGENCE
---------------

  Last Energy change         ...   -3.5919e-10  Tolerance :   1.0000e-08
  Last MAX-Density change    ...    3.1333e-06  Tolerance :   1.0000e-07
  Last RMS-Density change    ...    1.7625e-07  Tolerance :   5.0000e-09
  Last Orbital Gradient      ...    1.4615e-06  Tolerance :   1.0000e-05
  Last Orbital Rotation      ...    1.7591e-06  Tolerance :   1.0000e-05

             **** THE GBW FILE WAS UPDATED (me_vinyl_ether_g.gbw) ****
             **** DENSITY FILE WAS UPDATED (me_vinyl_ether_g.scfp.tmp) ****
             **** ENERGY FILE WAS UPDATED (me_vinyl_ether_g.en.tmp) ****
----------------
ORBITAL ENERGIES
----------------

  NO   OCC          E(Eh)            E(eV) 
   0   2.0000     -20.577056      -559.9302 
   1   2.0000     -11.294575      -307.3410 
   2   2.0000     -11.291843      -307.2667 
   3   2.0000     -11.214302      -305.1567 
   4   2.0000      -1.400173       -38.1006 
   5   2.0000      -1.031781       -28.0762 
   6   2.0000      -0.928703       -25.2713 
   7   2.0000      -0.789325       -21.4786 
   8   2.0000      -0.681038       -18.5320 
   9   2.0000      -0.645271       -17.5587 
  10   2.0000      -0.643895       -17.5213 
  11   2.0000      -0.557748       -15.1771 
  12   2.0000      -0.544538       -14.8176 
  13   2.0000      -0.501280       -13.6405 
  14   2.0000      -0.490806       -13.3555 
  15   2.0000      -0.333989        -9.0883 
  16   0.0000       0.182307         4.9608 
  17   0.0000       0.187200         5.0940 
  18   0.0000       0.217539         5.9195 
  19   0.0000       0.242411         6.5963 
  20   0.0000       0.256486         6.9794 
  21   0.0000       0.274615         7.4726 
  22   0.0000       0.282269         7.6809 
  23   0.0000       0.306795         8.3483 
  24   0.0000       0.457212        12.4414 
  25   0.0000       0.474383        12.9086 
  26   0.0000       0.619222        16.8499 
  27   0.0000       0.620466        16.8837 
  28   0.0000       0.655852        17.8466 
  29   0.0000       0.698819        19.0158 
  30   0.0000       0.704475        19.1697 
  31   0.0000       0.745263        20.2796 
  32   0.0000       0.793871        21.6023 
  33   0.0000       0.809158        22.0183 
  34   0.0000       0.845876        23.0175 
  35   0.0000       0.853412        23.2225 
  36   0.0000       0.864269        23.5180 
  37   0.0000       0.917861        24.9763 
  38   0.0000       0.934609        25.4320 
  39   0.0000       0.950242        25.8574 
  40   0.0000       1.001243        27.2452 
  41   0.0000       1.106400        30.1067 
  42   0.0000       1.149911        31.2907 
  43   0.0000       1.165343        31.7106 
  44   0.0000       1.243278        33.8313 
  45   0.0000       1.256443        34.1896 
  46   0.0000       1.266080        34.4518 
  47   0.0000       1.331673        36.2367 
  48   0.0000       1.363224        37.0952 
  49   0.0000       1.450314        39.4651 
  50   0.0000       1.512070        41.1455 
  51   0.0000       1.573597        42.8197 
  52   0.0000       1.657065        45.0910 
  53   0.0000       1.700736        46.2794 
  54   0.0000       1.744330        47.4656 
  55   0.0000       1.823973        49.6328 
  56   0.0000       1.830130        49.8004 
  57   0.0000       1.863631        50.7120 
  58   0.0000       1.882922        51.2369 
  59   0.0000       1.906984        51.8917 
  60   0.0000       1.927823        52.4587 
  61   0.0000       1.944295        52.9070 
  62   0.0000       1.945900        52.9506 
  63   0.0000       1.975863        53.7660 
  64   0.0000       2.005236        54.5652 
  65   0.0000       2.108960        57.3877 
  66   0.0000       2.157142        58.6988 
  67   0.0000       2.227478        60.6128 
  68   0.0000       2.294885        62.4470 
  69   0.0000       2.327778        63.3421 
  70   0.0000       2.366618        64.3990 
  71   0.0000       2.404034        65.4171 
  72   0.0000       2.462541        67.0092 
  73   0.0000       2.515557        68.4518 
  74   0.0000       2.593564        70.5745 
  75   0.0000       2.733660        74.3867 
  76   0.0000       2.762295        75.1659 
  77   0.0000       2.771702        75.4219 
  78   0.0000       2.813107        76.5485 
  79   0.0000       3.006877        81.8213 
  80   0.0000       3.190634        86.8216 
  81   0.0000       3.264332        88.8270 
  82   0.0000       3.387845        92.1879 
  83   0.0000       3.397069        92.4390 
  84   0.0000       3.732187       101.5580 
  85   0.0000       3.863128       105.1211 

                    ********************************
                    * MULLIKEN POPULATION ANALYSIS *
                    ********************************

-----------------------
MULLIKEN ATOMIC CHARGES
-----------------------
   0 C :   -0.104639
   1 C :    0.140751
   2 O :   -0.435199
   3 C :    0.158256
   4 H :    0.046778
   5 H :    0.052388
   6 H :    0.027575
   7 H :    0.053176
   8 H :    0.029731
   9 H :    0.031183
Sum of atomic charges:   -0.0000000

--------------------------------
MULLIKEN REDUCED ORBITAL CHARGES
--------------------------------
  0 C s       :     3.047271  s :     3.047271
      pz      :     1.094542  p :     3.004309
      px      :     0.949586
      py      :     0.960182
      dz2     :     0.001680  d :     0.053060
      dxz     :     0.012292
      dyz     :     0.001984
      dx2y2   :     0.017979
      dxy     :     0.019125
  1 C s       :     3.087170  s :     3.087170
      pz      :     0.932812  p :     2.633760
      px      :     0.854895
      py      :     0.846053
      dz2     :     0.006890  d :     0.138320
      dxz     :     0.035516
      dyz     :     0.007594
      dx2y2   :     0.041061
      dxy     :     0.047259
  2 O s       :     3.767754  s :     3.767754
      pz      :     1.843769  p :     4.648581
      px      :     1.196683
      py      :     1.608128
      dz2     :     0.002687  d :     0.018864
      dxz     :     0.002197
      dyz     :     0.001931
      dx2y2   :     0.002722
      dxy     :     0.009326
  3 C s       :     3.033458  s :     3.033458
      pz      :     0.996662  p :     2.704663
      px      :     0.746682
      py      :     0.961319
      dz2     :     0.017024  d :     0.103623
      dxz     :     0.016835
      dyz     :     0.019215
      dx2y2   :     0.020156
      dxy     :     0.030394
  4 H s       :     0.920083  s :     0.920083
      pz      :     0.006550  p :     0.033139
      px      :     0.014470
      py      :     0.012120
  5 H s       :     0.914423  s :     0.914423
      pz      :     0.006192  p :     0.033189
      px      :     0.005051
      py      :     0.021946
  6 H s       :     0.940934  s :     0.940934
      pz      :     0.005540  p :     0.031491
      px      :     0.003637
      py      :     0.022314
  7 H s       :     0.917126  s :     0.917126
      pz      :     0.005778  p :     0.029697
      px      :     0.010120
      py      :     0.013799
  8 H s       :     0.940461  s :     0.940461
      pz      :     0.014513  p :     0.029808
      px      :     0.003062
      py      :     0.012234
  9 H s       :     0.939042  s :     0.939042
      pz      :     0.018302  p :     0.029774
      px      :     0.002889
      py      :     0.008583


                     *******************************
                     * LOEWDIN POPULATION ANALYSIS *
                     *******************************

----------------------
LOEWDIN ATOMIC CHARGES
----------------------
   0 C :   -0.111431
   1 C :   -0.003994
   2 O :   -0.029150
   3 C :    0.026956
   4 H :    0.025125
   5 H :    0.025104
   6 H :    0.013935
   7 H :    0.027673
   8 H :    0.012667
   9 H :    0.013115

-------------------------------
LOEWDIN REDUCED ORBITAL CHARGES
-------------------------------
  0 C s       :     2.835642  s :     2.835642
      pz      :     1.048361  p :     3.129803
      px      :     1.049957
      py      :     1.031486
      dz2     :     0.011384  d :     0.145985
      dxz     :     0.021162
      dyz     :     0.003012
      dx2y2   :     0.052121
      dxy     :     0.058306
  1 C s       :     2.833909  s :     2.833909
      pz      :     0.912846  p :     2.840740
      px      :     0.976561
      py      :     0.951333
      dz2     :     0.020998  d :     0.329346
      dxz     :     0.076042
      dyz     :     0.017588
      dx2y2   :     0.105108
      dxy     :     0.109610
  2 O s       :     3.386671  s :     3.386671
      pz      :     1.780491  p :     4.610353
      px      :     1.222512
      py      :     1.607350
      dz2     :     0.003728  d :     0.032126
      dxz     :     0.004396
      dyz     :     0.002073
      dx2y2   :     0.006222
      dxy     :     0.015707
  3 C s       :     2.814231  s :     2.814231
      pz      :     1.059564  p :     2.903427
      px      :     0.820555
      py      :     1.023308
      dz2     :     0.041865  d :     0.255387
      dxz     :     0.039379
      dyz     :     0.055166
      dx2y2   :     0.042855
      dxy     :     0.076121
  4 H s       :     0.889618  s :     0.889618
      pz      :     0.021418  p :     0.085256
      px      :     0.032704
      py      :     0.031134
  5 H s       :     0.889776  s :     0.889776
      pz      :     0.020339  p :     0.085119
      px      :     0.014845
      py      :     0.049935
  6 H s       :     0.906413  s :     0.906413
      pz      :     0.016319  p :     0.079652
      px      :     0.011872
      py      :     0.051461
  7 H s       :     0.896170  s :     0.896170
      pz      :     0.015623  p :     0.076157
      px      :     0.026784
      py      :     0.033751
  8 H s       :     0.911078  s :     0.911078
      pz      :     0.034800  p :     0.076255
      px      :     0.011353
      py      :     0.030102
  9 H s       :     0.910441  s :     0.910441
      pz      :     0.043174  p :     0.076444
      px      :     0.011177
      py      :     0.022094


                      *****************************
                      * MAYER POPULATION ANALYSIS *
                      *****************************

  NA   - Mulliken gross atomic population
  ZA   - Total nuclear charge
  QA   - Mulliken gross atomic charge
  VA   - Mayer's total valence
  BVA  - Mayer's bonded valence
  FA   - Mayer's free valence

  ATOM       NA         ZA         QA         VA         BVA        FA
  0 C      6.1046     6.0000    -0.1046     3.9673     3.9673    -0.0000
  1 C      5.8592     6.0000     0.1408     4.0454     4.0454    -0.0000
  2 O      8.4352     8.0000    -0.4352     2.0380     2.0380    -0.0000
  3 C      5.8417     6.0000     0.1583     3.9264     3.9264     0.0000
  4 H      0.9532     1.0000     0.0468     0.9784     0.9784     0.0000
  5 H      0.9476     1.0000     0.0524     0.9892     0.9892    -0.0000
  6 H      0.9724     1.0000     0.0276     0.9833     0.9833    -0.0000
  7 H      0.9468     1.0000     0.0532     0.9873     0.9873    -0.0000
  8 H      0.9703     1.0000     0.0297     0.9734     0.9734     0.0000
  9 H      0.9688     1.0000     0.0312     0.9728     0.9728     0.0000

  Mayer bond orders larger than 0.1
B(  0-C ,  1-C ) :   1.9929 B(  0-C ,  4-H ) :   0.9672 B(  0-C ,  5-H ) :   0.9617 
B(  1-C ,  2-O ) :   1.0321 B(  1-C ,  6-H ) :   0.9661 B(  2-O ,  3-C ) :   0.9537 
B(  3-C ,  7-H ) :   0.9941 B(  3-C ,  8-H ) :   0.9817 B(  3-C ,  9-H ) :   0.9823 


-------
TIMINGS
-------

Total SCF time: 0 days 0 hours 0 min 2 sec 

Total time                  ....       2.445 sec
Sum of individual times     ....       2.265 sec  ( 92.6%)

Fock matrix formation       ....       2.219 sec  ( 90.8%)
Diagonalization             ....       0.003 sec  (  0.1%)
Density matrix formation    ....       0.001 sec  (  0.0%)
Population analysis         ....       0.004 sec  (  0.2%)
Initial guess               ....       0.016 sec  (  0.7%)
Orbital Transformation      ....       0.000 sec  (  0.0%)
Orbital Orthonormalization  ....       0.000 sec  (  0.0%)
DIIS solution               ....       0.000 sec  (  0.0%)
SOSCF solution              ....       0.022 sec  (  0.9%)


           ************************************************************
           *        Program running with 4 parallel MPI-processes     *
           *              working on a common directory               *
           ************************************************************


------------------------------------------------------------------------------- 
                              ORCA-MATRIX DRIVEN CI                            
------------------------------------------------------------------------------- 


Wavefunction type
-----------------
Correlation treatment                      ...      CCSD     
Single excitations                         ... ON
Orbital optimization                       ... OFF
Calculation of Z vector                    ... OFF
Calculation of Brueckner orbitals          ... OFF
Perturbative triple excitations            ... ON
Calculation of F12 correction              ... OFF
Frozen core treatment                      ... chemical core (8 el)
Reference Wavefunction                     ... RHF
  Internal Orbitals:     4 ...   15 ( 12 MO's/ 24 electrons)
  Virtual  Orbitals:    16 ...   85 ( 70 MO's              )
Number of AO's                             ...     86
Number of electrons                        ...     32
Number of correlated electrons             ...     24

Algorithmic settings
--------------------
Integral transformation                    ... All integrals via the RI transformation
K(C) Formation                             ... RI-DLPNO
   PNO-Integral Storage                    ... ON DISK
   PNO occupation number cut-off           ... 1.000e-07
   Singles PNO occupation number cut-off   ... 3.000e-09
   PNO Mulliken prescreening cut-off       ... 1.000e-03
   Domain cut-off (Mulliken population)    ... 1.000e-03
   PNO Normalization                       ...    1
Maximum number of iterations               ...        50
Convergence tolerance (max. residuum)      ... 1.000e-05
Level shift for amplitude update           ... 2.000e-01
Maximum number of DIIS vectors             ...         7
DIIS turned on at iteration                ...         0
Damping before turning on DIIS             ...     0.500
Damping after turning on DIIS              ...     0.000
Pair specific amplitude update             ... OFF
Natural orbital iterations                 ... OFF
Perturbative natural orbital generation    ... OFF
Printlevel                                 ... 2

Singles Fock matrix elements calculated using PNOs.

Memory handling:
----------------
Maximum memory for working arrays          ...   8000 MB
Data storage in matrix containers          ... UNCOMPRESSED
Data type for integral storage             ... DOUBLE
In-Core Storage of quantities:
   Amplitudes+Sigma Vector      ... NO
   J+K operators                ... NO
   DIIS vectors                 ... NO
   3-external integrals         ... NO
   4-external integrals         ... NO

Localization treatment:
-----------------------
Localization option                        ...    6
Localization threshhold                    ... -1.0e+00
Using relative localization threshhold     ... 1.0e-08
Neglect threshold for strong pairs         ... 1.000e-05 Eh
Prescreening threshold for very weak pairs ... 1.000e-07 Eh

Initializing the integral package          ... done
Localizing the valence orbitals
------------------------------------------------------------------------------
                           ORCA ORBITAL LOCALIZATION
------------------------------------------------------------------------------

Input orbitals are from                  ... me_vinyl_ether_g.proc0.gbw
Output orbitals are to                   ... me_vinyl_ether_g.proc0.loc
Max. number of iterations                ... 128
Localizations seeded randomly            ... off
Convergence tolerance                    ... 1.000e-06
Using relative localization threshhold   ... 1.000e-08
Treshold for strong local MOs            ... 9.500e-01
Treshold for bond MOs                    ... 8.500e-01
Operator                                 ... 0
Orbital range for localization           ... 4 to 15
Localization criterion                   ... FOSTER-BOYS (AUGMENTED HESSIAN)
Doing the dipole integrals     ... o.k.
Initial value of the localization sum :    98.040225
ITERATION   0 : L=  110.1794531500 DL=  1.21e+01 (AVERGE_DL)=    0.4288679347 
ITERATION   1 : L=  111.0459422478 DL=  8.66e-01 (AVERGE_DL)=    0.1145802020 
ITERATION   2 : L=  111.0604391760 DL=  1.45e-02 (AVERGE_DL)=    0.0148206082 
ITERATION   3 : L=  111.0643747676 DL=  3.94e-03 (AVERGE_DL)=    0.0077220578 
ITERATION   4 : L=  111.0653298500 DL=  9.55e-04 (AVERGE_DL)=    0.0038040696 
ITERATION   5 : L=  111.0655603949 DL=  2.31e-04 (AVERGE_DL)=    0.0018689848 
ITERATION   6 : L=  111.0656128601 DL=  5.25e-05 (AVERGE_DL)=    0.0008915870 
ITERATION   7 : L=  111.0656247340 DL=  1.19e-05 (AVERGE_DL)=    0.0004241552 
ITERATION   8 : L=  111.0656274146 DL=  2.68e-06 (AVERGE_DL)=    0.0002015316 
ITERATION   9 : L=  111.0656280198 DL=  6.05e-07 (AVERGE_DL)=    0.0000957532 
LOCALIZATION SUM CONVERGED

------------------------------------------------------
AUGMENTED HESSIAN OPTIMIZATION OF FOSTER-BOYS ORBITALS
------------------------------------------------------

Spin operator:           0
Orbital window:          4 to 15
Number of iterations:    128
Gradient tolerance:      1.000e-06
Number of pairs:         66
Davidson threshold:      2000
Diagonalization method:  LAPACK
Iter:    0   L: 111.0656280198   Grad. norm: 8.178663e-04
   *** Likely close to a maximum now. ***
       Augmented Hessian eigenvalues:  3.56e-07 -7.71e-01 -3.23e+00 -5.03e+00 ... 
Iter:    1   L: 111.0656281979   Grad. norm: 4.033394e-07
LOCALIZATION HAS CONVERGED.

Eigenvalues of the Hessian:
  0 -7.715e-01
  1 -3.234e+00
  2 -5.029e+00
  3 -5.134e+00
  4 -5.612e+00
  5 -7.178e+00
  6 -1.072e+01
  7 -1.765e+01
  8 -1.823e+01
  9 -1.835e+01
    ...


------------------------------------------------------------------------------- 
                    LOCALIZED MOLECULAR ORBITAL COMPOSITIONS                   
------------------------------------------------------------------------------- 

The Mulliken populations for each LMO on each atom are computed
The LMO`s will be ordered according to atom index and type
  (A) Strongly localized MO`s have populations of >=0.950 on one atom
  (B) Two center bond orbitals have populations of >=0.850 on two atoms
  (C) Other MO`s are considered to be `delocalized`

FOUND  -   2 strongly local MO`s
       -  10 two center bond MO`s
       -   0 significantly delocalized MO`s

Rather strongly localized orbitals:
MO   5:   2O  -   0.968934
MO   4:   2O  -   0.964600
Bond-like localized orbitals:
MO  15:   9H  -   0.501767  and   3C  -   0.518467
MO  14:   8H  -   0.502534  and   3C  -   0.517080
MO  13:   7H  -   0.484209  and   3C  -   0.531611
MO  12:   6H  -   0.497833  and   1C  -   0.515708
MO  11:   5H  -   0.483076  and   0C  -   0.515473
MO  10:   4H  -   0.490442  and   0C  -   0.508569
MO   9:   3C  -   0.346703  and   2O  -   0.673528
MO   8:   2O  -   0.652747  and   1C  -   0.363526
MO   7:   1C  -   0.495387  and   0C  -   0.518869
MO   6:   1C  -   0.499376  and   0C  -   0.513466
Localized MO's were stored in: me_vinyl_ether_g.proc0.loc

Localizing the core orbitals
------------------------------------------------------------------------------
                           ORCA ORBITAL LOCALIZATION
------------------------------------------------------------------------------

Input orbitals are from                  ... me_vinyl_ether_g.proc0.loc
Output orbitals are to                   ... me_vinyl_ether_g.proc0.loc
Max. number of iterations                ... 128
Localizations seeded randomly            ... off
Convergence tolerance                    ... 1.000e-06
Using relative localization threshhold   ... 1.000e-08
Treshold for strong local MOs            ... 9.500e-01
Treshold for bond MOs                    ... 8.500e-01
Operator                                 ... 0
Orbital range for localization           ... 0 to 3
Localization criterion                   ... FOSTER-BOYS (AUGMENTED HESSIAN)
Doing the dipole integrals     ... o.k.
Initial value of the localization sum :    26.803030
ITERATION   0 : L=   26.8030325406 DL=  2.74e-06 (AVERGE_DL)=    0.0006754290 
ITERATION   1 : L=   26.8030325406 DL=  0.00e+00 (AVERGE_DL)=    0.0000000000 
LOCALIZATION SUM CONVERGED

------------------------------------------------------
AUGMENTED HESSIAN OPTIMIZATION OF FOSTER-BOYS ORBITALS
------------------------------------------------------

Spin operator:           0
Orbital window:          0 to 3
Number of iterations:    128
Gradient tolerance:      1.000e-06
Number of pairs:         6
Davidson threshold:      2000
Diagonalization method:  LAPACK
Iter:    0   L: 26.8030325406   Grad. norm: 3.057263e-07
   *** Likely close to a maximum now. ***
       Augmented Hessian eigenvalues:  8.65e-16 -2.55e+01 -2.66e+01 -2.90e+01 ... 
Iter:    1   L: 26.8030325406   Grad. norm: 6.140686e-21
LOCALIZATION HAS CONVERGED.

Eigenvalues of the Hessian:
  0 -2.548e+01
  1 -2.655e+01
  2 -2.898e+01
  3 -7.955e+01
  4 -7.997e+01
  5 -1.867e+02


------------------------------------------------------------------------------- 
                    LOCALIZED MOLECULAR ORBITAL COMPOSITIONS                   
------------------------------------------------------------------------------- 

The Mulliken populations for each LMO on each atom are computed
The LMO`s will be ordered according to atom index and type
  (A) Strongly localized MO`s have populations of >=0.950 on one atom
  (B) Two center bond orbitals have populations of >=0.850 on two atoms
  (C) Other MO`s are considered to be `delocalized`

FOUND  -   4 strongly local MO`s
       -   0 two center bond MO`s
       -   0 significantly delocalized MO`s

Rather strongly localized orbitals:
MO   3:   3C  -   0.999766
MO   2:   2O  -   0.999683
MO   1:   1C  -   0.999920
MO   0:   0C  -   0.999636
Localized MO's were stored in: me_vinyl_ether_g.proc0.loc

Warning: internal orbitals are localized - no re-canonicalization of internal orbitals

--------------------------
CLOSED-SHELL FOCK OPERATOR
--------------------------

RI-JK section for the Fock operator:
  RHF full Fock operator         ... done
  RHF frozen core Fock operator  ... done
Time needed for Fock operator              ...            0.532 sec
Reference energy                           ...   -191.928184234

--------------
DLPNO SETTINGS (2015 fully linear scaling implementation)
--------------

TCutMKN:           1.000e-03
TCutPAO:           1.000e-03
TCutPNO:           1.000e-07
TCutPNOSingles:    3.000e-09
TCutEN:            9.700e-01
TCutPAOExt:        1.000e-01
TCutPairs:         1.000e-05
TCutPre:           1.000e-07
TCutOSV:           1.000e-06
TCutDOij:          1.000e-05
TCutDO:            5.000e-03
TCutC:             1.000e-04
TCutCPAO:          1.000e-03
TCutCMO:           1.000e-03
TScaleDOMP2PreScr: 2.000e+00
TScaleMKNMP2PreScr:1.000e+01
TScalePNOMP2PreScr:1.000e+00
PAO overlap thresh 1.000e-08
Using PNOs for Singles Fock computation
Use new domains
Use fully linear algorithm
TCutTNO:           1.000e-09
TCutMP2Pairs:      1.000e-06
TCutDOStrong:      2.000e-03
TCutMKNStrong:     1.000e-02
TCutMKNWeak:       1.000e-01
TCutDOWeak:        4.000e-03
NTCutTNO:          1

--------------------------
Calculating differential overlap integrals ... ok
--------------------------
ELECTRON PAIR PRESCREENING
--------------------------

Dipole-based pair screening          .... used

   TCutDOij = 1.000000e-05
   TCutPre  = 1.000000e-07
   .... Finished loop over pairs
Total time spent in the prescreening                  ...     0.000 sec
sum of pair energies estimated for screened out pairs ...       0.000000000000 Eh
Thresholds for map construction and integral transformation for crude MP2:
   TCutMKN                    ...     1.0e-02
   TCutDO                     ...     1.0e-02
   TCutPairs                  ...     1.0e-05
   TCutPNO_CrudeMP2           ...     1.0e-07
   TCutPNOSingles_CrudeMP2    ...     3.0e-09
--------------------------------
LOCAL RI TRANSFORMATION (IAVPAO)
--------------------------------

Orbital window:       4 to 15
Number of PAOs:      86
Basis functions:     86 (42 shells)
Aux. functions:     308 (108 shells)

Processing maps (0.0 sec)
Average map sizes:
   Aux shells -> MOs              12.0
   Aux shells -> PAOs             86.0
   MOs        -> AO shells        41.2
   PAOs       -> AO shells        42.0

Calculating integrals (0.2 sec, 2.429 MB)
Sorting integrals (0.0 sec, 2.425 MB)
Total time for the integral transformation: 0.2 sec
--------------------------------
INITIAL GUESS AND PNO GENERATION
--------------------------------

PNO truncation parameters                   .... 
    PAOOverlapThresh   =        1.000e-08

    TCutPairs          =        1.000e-05
    TCutPNO            =        1.000e-07
    TCutPNOSingles     =        3.000e-09
    TCutMP2Pairs       =        1.000e-06
    TCutMKN            =        1.000e-02
    TCutDO             =        1.000e-02

Pair selection                          .... not used
Type of local MP2 treatment                 .... semi-local MP2
Strategy for PNO selection                  .... occupation number selection
Pair density normalization                  .... MP2 norm
Spin component scaling                      .... not used

   .... Finished loop over pairs
Making pair pair interaction lists          ... done

                       ===========================
                         78 OF   78 PAIRS ARE KEPT CCSD PAIRS
                          0 OF   78 PAIRS ARE KEPT MP2 PAIRS FOR (T)
                          0 OF   78 PAIRS ARE SKIPPED
                       ===========================

Total time spent in the initial guess                 ...     0.077 sec
SL-MP2 correlation energy (all non-screened pairs)    ...      -0.572856381557 Eh

Initial PNO correlation energy                        ...      -0.572719584894 Eh
sum of pair energies prescreened and skipped MP2 pairs...       0.000000000000 Eh
sum of pair energies of crude MP2 skipped pairs only  ...       0.000000000000 Eh
sum of MP2 pair energies for pairs that were not kept ...       0.000000000000 Eh
sum of PNO error estimates for the kept pairs         ...      -0.000136796663 Eh
                                                          --------------------
sum of all corrections                                         -0.000136796663
Initial total correlation energy                               -0.572856381557
Thresholds for map construction and integral transformation for fine MP2 and CCSD(T) calculation:
   TCutMKN   ...     1.0e-03
   TCutDO    ...     5.0e-03
   TCutPairs ...     1.0e-05
   TCutCMO   ...     1.0e-03
   TCutCPAO  ...     1.0e-03

Thresholds for map construction and integral transformation for strong Triples:
   TCutMKN   ...     1.0e-02
   TCutDO    ...     1.0e-02
   TCutCMO   ...     1.0e-03
   TCutCPAO  ...     1.0e-03

Thresholds for map construction and integral transformation for weak Triples:
   TCutMKN   ...     1.0e-01
   TCutDO    ...     2.0e-02
   TCutCMO   ...     1.0e-03
   TCutCPAO  ...     1.0e-03

--------------------------------
LOCAL RI TRANSFORMATION (IAVPAO)
--------------------------------

Orbital window:       4 to 15
Number of PAOs:      86
Basis functions:     86 (42 shells)
Aux. functions:     308 (108 shells)

Processing maps (0.0 sec)
Average map sizes:
   Aux shells -> MOs              12.0
   Aux shells -> PAOs             86.0
   MOs        -> AO shells        41.2
   PAOs       -> AO shells        42.0

Calculating integrals (0.2 sec, 2.429 MB)
Sorting integrals (0.0 sec, 2.425 MB)
Total time for the integral transformation: 0.2 sec
--------------------------------
INITIAL GUESS AND PNO GENERATION
--------------------------------

PNO truncation parameters                   .... 
    ScaleTCutPNO       =        1.000e-02
    PAOOverlapThresh   =        1.000e-08

    TCutPairs          =        1.000e-05
    TCutPNO            =        1.000e-07
    TCutPNOSingles     =        3.000e-09
    TCutMP2Pairs       =        1.000e-06
    TCutMKN            =        1.000e-03
    TCutDO             =        5.000e-03

Pair selection                          .... not used
Type of local MP2 treatment                 .... full local PMP2
Strategy for PNO selection                  .... occupation number selection
Pair density normalization                  .... MP2 norm
Spin component scaling                      .... not used

PASS-1: Formation of initial guess LMP2 amplitudes
Initial amplitudes guess done. Entering LMP2 iteration loop:
   Max. no of iterations          ...  50
   Energy convergence tolerance   ...    1.0e-07
   Residual convergence tolerance ...    5.0e-07
   Fock matrix cutoff             ...    1.0e-05 Eh
   DIIS convergence acceleration parameters:
        Max # vectors in DIIS     ... 7
        Start iteration of DIIS   ... 0
        Levelshift                ... 2.000e-01
        Damping factor 1          ... 5.000e-01
        Damping factor 2          ... 1.000e+00
   L-MP2 PNO cut-off              ...   1.0e-09
   L-MP2 PNO cut-off (core)       ...   1.0e-11
                           *** Turning on DIIS ***
LMP2-Iter=   0:  ELMP2= -0.587351908791  DE=   1.4e-02 RMAX=   1.6e-02
LMP2-Iter=   1:  ELMP2= -0.594779695153  DE=   7.4e-03 RMAX=   6.9e-03
LMP2-Iter=   2:  ELMP2= -0.596193644471  DE=   1.4e-03 RMAX=   2.6e-03
LMP2-Iter=   3:  ELMP2= -0.596371761200  DE=   1.8e-04 RMAX=   8.4e-04
LMP2-Iter=   4:  ELMP2= -0.596371023308  DE=   7.4e-07 RMAX=   2.1e-04
LMP2-Iter=   5:  ELMP2= -0.596367118024  DE=   3.9e-06 RMAX=   3.1e-05
LMP2-Iter=   6:  ELMP2= -0.596366923068  DE=   1.9e-07 RMAX=   6.0e-06
LMP2-Iter=   7:  ELMP2= -0.596366968398  DE=   4.5e-08 RMAX=   1.3e-06
LMP2-Iter=   8:  ELMP2= -0.596366990943  DE=   2.3e-08 RMAX=   3.1e-07
LMP2-Iter=   9:  ELMP2= -0.596366989611  DE=   1.3e-09 RMAX=   6.7e-08 => CONVERGED
PASS-2: Formation of Pair natural orbitals
   .... Finished loop over pairs

 PNO Occupation Number Statistics: 
  | Av. % of trace(Dij) retained        ...  99.822139316162
  | sigma^2 in % of trace(Dij) retained ...   1.41e-01
  | Av. % of trace(Di) retained         ...  99.999906484687
  | sigma^2 in % of trace(Di) retained  ...   2.73e-09
 Distributions of % trace(Dij) recovered:
  |       >= 99.9  ...    55 ( 70.5 % of all pairs)
  |   [90.0, 99.0) ...     6 (  7.7 % of all pairs)
  |   [99.0, 99.9) ...    17 ( 21.8 % of all pairs)
 Distributions of % trace(Di) recovered :
  |       >= 99.9  ...    12 (100.0 % of all I-pairs )

Making pair pair interaction lists          ... done

                       ===========================
                         78 OF   78 PAIRS ARE KEPT
                       ===========================

Total time spent in the initial guess                 ...     0.752 sec
L-MP2 correlation energy (all non-screened pairs)     ...      -0.596366989611 Eh
L-MP2 PNO error correction                            ...      -0.000001280463 Eh
                                                          --------------------
Initial total L-MP2 energy (non-screened pairs)       ...      -0.596368270073 Eh

Initial PNO correlation energy                        ...      -0.596238535598 Eh
sum of pair energies estimated for screened out pairs ...       0.000000000000 Eh
sum of MP2 pair energies for pairs that were not kept ...       0.000000000000 Eh
sum of PNO error estimates for the kept pairs         ...      -0.000129734476 Eh
                                                          --------------------
sum of all corrections                                         -0.000129734476
Initial total correlation energy                               -0.596368270073
Thresholds for map construction and integral transformation for fine MP2 and CCSD(T) calculation:
   TCutMKN   ...     1.0e-03
   TCutDO    ...     5.0e-03
   TCutPairs ...     1.0e-05
   TCutCMO   ...     1.0e-03
   TCutCPAO  ...     1.0e-03

Time for aux screen maps:            0.001
Time for maps after fine MP2:            0.002
-----------------------------
LOCAL RI TRANSFORMATION (IJV)
-----------------------------

Orbital window:       4 to 15
Basis functions:     86 (42 shells)
Aux. functions:     308 (108 shells)

Processing maps (0.0 sec)
Average map sizes:
   Aux shells -> MOs(i)           12.0
   Aux shells -> MOs(j)           12.0
   MOs        -> AO shells        41.2

Calculating integrals (0.2 sec, 0.342 MB)
Sorting integrals (0.0 sec, 0.339 MB)
Total time for the integral transformation: 0.2 sec
--------------------------------
LOCAL RI TRANSFORMATION (VABPAO)
--------------------------------

Number of PAOs:      86
Basis functions:     86 (42 shells)
Aux. functions:     308 (108 shells)

Processing maps (0.0 sec)
Average map sizes:
   Aux shells -> PAOs             86.0
   PAOs       -> AO shells        42.0

Calculating integrals (0.3 sec, 30.872 MB)
Finished


-------------------------------------
Pair Pair Term precalculation with     
RI-(ij|mn) and (im|jn) transformation  
ON THE FLY                             
-------------------------------------

   IBatch   1 (of   1)              ... done (    2.306 sec)
Total EXT                           ...           2.306 sec

---------------------
RI-PNO TRANSFORMATION
---------------------

Total Number of PNOs                   ...  2282
Average number of PNOs per pair        ...    29
Maximal number of PNOs per pair        ...    38
   #pairs with  1 -  5 PNOs   :    0
   #pairs with  6 - 10 PNOs   :    0
   #pairs with 11 - 15 PNOs   :    3
   #pairs with 16 - 20 PNOs   :    3
   #pairs with 21 - 25 PNOs   :   15
   #pairs with 26 - 30 PNOs   :   15
   #pairs with 31 - 35 PNOs   :   34
   #pairs with 36 - 40 PNOs   :    8
   #pairs with 41 - 45 PNOs   :    0
   #pairs with 46 - 50 PNOs   :    0

Generation of (ij|ab)[P] integrals            ... on
Generation of (ia|bc)[P],(ja|bc)[P] integrals ... on
Storage of 3 and 4 external integrals         ... on
Generation of ALL (ka|bc)[P] integrals        ... on
Keep RI integrals in memory                   ... off

Ibatch:  1 (of  1)
Starting 2-4 index PNO integral generation ... done

Timings:
Total PNO integral transformation time     ...          0.863 sec
Size of the 3-external file                ...        17 MB
Size of the 4-external file                ...        70 MB
Size of the IKJL file                      ...         0 MB
Size of the all 3-external file            ...       103 MB
Size of the 1-external file                ...         0 MB

Making pair/pair overlap matrices          ... done (    0.097 sec)
Size of the pair overlap file              ... 29 MB
Redoing the guess amplitudes               ... done (    0.001 sec)

-------------------------
FINAL STARTUP INFORMATION
-------------------------

E(0)                                       ...   -191.928184234
E(L-MP2)                                   ...     -0.596368270
E(L-MP2) including corrections             ...     -0.596368270
Initial E(tot)                             ...   -192.524552504
<T|T>                                      ...      0.172960565
Number of pairs included                   ... 78
Total number of pairs                      ... 78

------------------------------------------------
                  RHF COUPLED CLUSTER ITERATIONS
------------------------------------------------

Number of PNO amplitudes to be optimized   ...        69560
Number of non-PNO amplitudes               ...       382200
Untruncated number of regular amplitudes   ...       382200

Iter       E(tot)           E(Corr)          Delta-E          Residual     Time
  0   -192.501274468     -0.572960499      0.023407771      0.020707957    0.77
                           *** Turning on DIIS ***
  1   -192.541326398     -0.613012430     -0.040051931      0.012991374    0.77
  2   -192.562543952     -0.634229983     -0.021217554      0.007483962    0.78
  3   -192.566357409     -0.638043440     -0.003813456      0.004214354    0.77
  4   -192.567745203     -0.639431234     -0.001387794      0.002119395    0.76
  5   -192.568230650     -0.639916681     -0.000485447      0.000836753    0.76
  6   -192.568350186     -0.640036217     -0.000119536      0.000250359    0.76
  7   -192.568371705     -0.640057736     -0.000021519      0.000065032    0.77
  8   -192.568373129     -0.640059160     -0.000001424      0.000018559    5.43
  9   -192.568371936     -0.640057968      0.000001192      0.000005770    6.56
               --- The Coupled-Cluster iterations have converged ---

----------------------
COUPLED CLUSTER ENERGY
----------------------

E(0)                                       ...   -191.928184234
E(CORR)(strong-pairs)                      ...     -0.640057968
E(CORR)(weak-pairs)                        ...     -0.000129734
E(CORR)(corrected)                         ...     -0.640187702
E(TOT)                                     ...   -192.568371936
Singles Norm <S|S>**1/2                    ...      0.056898066  
T1 diagnostic                              ...      0.011614269  

------------------
LARGEST AMPLITUDES
------------------
   7-> 16   7-> 16       0.066703
   6-> 16   6-> 16       0.065485
   7-> 16   6-> 16       0.058783
  13-> 24  13-> 24       0.042184
  14-> 16  14-> 16       0.035781
  12-> 17  12-> 17       0.035580
  15-> 16  15-> 16       0.035526
   9-> 17   9-> 17       0.035367
  10-> 17  10-> 17       0.034859
  13-> 16  13-> 16       0.034490
  11-> 17  11-> 17       0.034298
  15-> 23  15-> 23       0.033309
  13-> 24  13-> 16       0.029551
  13-> 16  13-> 24       0.029551
  14-> 23  14-> 23       0.028529
   6-> 16   6-> 25       0.026656


-------------------------------------------
DLPNO BASED TRIPLES CORRECTION
-------------------------------------------

Singles multiplier          ...  1.000000
TCutTNO                     ... 1.000e-09
TCutMP2Pairs                ... 1.000e-06
TCutDOStrong                ... 1.000e-02
TCutMKNStrong               ... 1.000e-02
TCutDOWeak                  ... 2.000e-02
TCutMKNWeak                 ... 1.000e-01

Fragment selection                          .... not used
Number of Triples that are to be computed   ...       352

 . . . . . . . . .
10% done  
20% done  
30% done  
40% done  
50% done  
60% done  
70% done  
80% done  
90% done               (      3.489 sec)
Triples timings:
Total time for T0               ...     3.759 sec
Total time for Iterative (T)    ...     0.000 sec
Total time of overall (T)       ...     3.933 sec

Triples List generation         ...     0.000 sec
TNO generation                  ...     0.268 sec
Pair density generation         ...     0.001 sec
Look up tables                  ...     0.000 sec
Generating 3-index integrals    ...     1.362 sec
  Make 4-ind.int. from 3-ind.int...     0.818 sec
  Projecting amplitudes (D + S) ...     0.261 sec
  Downprojecting integrals      ...     0.000 sec
  Energy contr. (sum over a,b,c)...     0.336 sec
Fitting ET(->0)                 ...     0.000 sec

Everything after 3-index        ...     2.127 sec

Timing details:
 TNO integrals                  ...     2.052 sec
   Reading 3-index integrals    ...     0.006 sec
   Sorting integrals            ...     0.448 sec
       Sorting integrals 1      ...     0.000 sec
       Sorting integrals 2      ...     0.103 sec
       Sorting integrals 3      ...     0.028 sec
       Sorting integrals 4      ...     0.003 sec
       Sorting integrals 5      ...     0.007 sec
       Sorting integrals 6      ...     0.307 sec
   Calculating local VM**-1/2   ...     0.028 sec
   Orthogonal. integrals        ...     0.055 sec
   Multipl. 3-index integrals   ...     1.515 sec
   All concerning IRIab (w/TNO) ...     0.387 sec

 Calculate W0/W1                ...     0.709 sec
 W 3-ext contribution           ...     0.413 sec
 W 3-int contribution           ...     0.111 sec
 Sorting W                      ...     0.165 sec

 V exchange contribution        ...     0.143 sec

 Timings for Triples without generation
     of 3-index integrals       ...     2.126 sec
       0 weak pairs             ...     2.126 sec
       1 weak pair              ...     0.000 sec
       2 weak pairs             ...     0.000 sec
       3 weak pairs             ...     0.000 sec
  Extra time for extrapolation  ...     0.000 sec

Number of Triples   (0, 1, 2, 3 weak pairs; overall):    352       0       0       0  (   352)
Number of Atoms     (0, 1, 2, 3 weak pairs; overall):    9.9     0.0     0.0     0.0  (    10)
Number of PAOs      (0, 1, 2, 3 weak pairs; overall):   85.2     0.0     0.0     0.0  (    86)
Number of AuxFcns   (0, 1, 2, 3 weak pairs; overall):  184.1     0.0     0.0     0.0  (   308)
Number of TNOs      (0, 1, 2, 3 weak pairs         ):   54.7     0.0     0.0     0.0
Aver. Number of NTNO, Atoms, PAOs, AuxFcns / Triples:    352    54.7     9.9    85.2   184.1

Triples Correction (T)                     ...     -0.018725125
Final correlation energy                   ...     -0.658912827
E(CCSD)                                    ...   -192.568371936
E(CCSD(T))                                 ...   -192.587097061


Maximum memory used throughout the entire calculation: 904.2 MB


------------------------------------------------------------------------------- 
                                     TIMINGS                                   
------------------------------------------------------------------------------- 


Total execution time                   ...       28.636 sec

Localization of occupied MO's          ...        0.359 sec (  1.3%)
Fock Matrix Formation                  ...        0.532 sec (  1.9%)
Global overlap, Fock, MKN matrices     ...        0.108 sec (  0.4%)
Differential overlap integrals         ...        0.046 sec (  0.2%)
Organizing maps                        ...        0.006 sec (  0.0%)
RI 3-index integral generations        ...        1.003 sec (  3.5%)
RI-PNO integral transformation         ...        3.504 sec ( 12.2%)
Initial Guess                          ...        0.837 sec (  2.9%)
DIIS Solver                            ...        0.197 sec (  0.7%)
State Vector Update                    ...        0.005 sec (  0.0%)
Sigma-vector construction              ...       18.075 sec ( 63.1%)
  <D|H|D>(0-ext)                       ...        0.400 sec (  2.2% of sigma)
  <D|H|D>(2-ext Fock)                  ...        0.005 sec (  0.0% of sigma)
  <D|H|D>(2-ext)                       ...        0.781 sec (  4.3% of sigma)
  <D|H|D>(4-ext)                       ...        0.847 sec (  4.7% of sigma)
  <D|H|D>(4-ext-corr)                  ...        3.332 sec ( 18.4% of sigma)
  CCSD doubles correction              ...        0.048 sec (  0.3% of sigma)
  <S|H|S>                              ...        0.069 sec (  0.4% of sigma)
  <S|H|D>(1-ext)                       ...        0.071 sec (  0.4% of sigma)
  <D|H|S>(1-ext)                       ...        0.003 sec (  0.0% of sigma)
  <S|H|D>(3-ext)                       ...        0.067 sec (  0.4% of sigma)
  Fock-dressing                        ...        1.082 sec (  6.0% of sigma)
  Singles amplitudes                   ...        0.054 sec (  0.3% of sigma)
  (ik|jl)-dressing                     ...       10.725 sec ( 59.3% of sigma)
  (ij|ab),(ia|jb)-dressing             ...        0.439 sec (  2.4% of sigma)
  Pair energies                        ...        0.002 sec (  0.0% of sigma)
Total Time for computing (T)           ...        3.945 sec ( 13.8% of ALL)


-------------------------   --------------------
FINAL SINGLE POINT ENERGY      -192.587097060982
-------------------------   --------------------


                            ***************************************
                            *     ORCA property calculations      *
                            ***************************************

                                    ---------------------
                                    Active property flags
                                    ---------------------
   (+) Dipole Moment


------------------------------------------------------------------------------
                       ORCA ELECTRIC PROPERTIES CALCULATION
------------------------------------------------------------------------------

Dipole Moment Calculation                       ... on
Quadrupole Moment Calculation                   ... off
Polarizability Calculation                      ... off
GBWName                                         ... me_vinyl_ether_g.gbw
Electron density file                           ... me_vinyl_ether_g.scfp.tmp
The origin for moment calculation is the CENTER OF MASS  = (-0.033719, -0.053894 -0.006308)

-------------
DIPOLE MOMENT
-------------
                                X             Y             Z
Electronic contribution:     -0.57756      -1.15002      -0.16710
Nuclear contribution   :      1.07899       1.72467       0.20189
                        -----------------------------------------
Total Dipole Moment    :      0.50143       0.57465       0.03479
                        -----------------------------------------
Magnitude (a.u.)       :      0.76346
Magnitude (Debye)      :      1.94056



--------------------
Rotational spectrum 
--------------------
 
Rotational constants in cm-1:     1.331341     0.149177     0.137901 
Rotational constants in MHz : 39912.606242  4472.204879  4134.168755 

 Dipole components along the rotational axes: 
x,y,z [a.u.] :     0.494743     0.580909     0.025401 
x,y,z [Debye]:     1.257536     1.476553     0.064564 

 

Timings for individual modules:

Sum of individual times         ...       46.071 sec (=   0.768 min)
GTO integral calculation        ...       14.788 sec (=   0.246 min)  32.1 %
SCF iterations                  ...        2.531 sec (=   0.042 min)   5.5 %
MDCI module                     ...       28.751 sec (=   0.479 min)  62.4 %
                             ****ORCA TERMINATED NORMALLY****
TOTAL RUN TIME: 0 days 0 hours 0 minutes 46 seconds 295 msec
me_vinyl_ether_g.gbw -> /home1/pantazis/klk/VDZ/Oxygen_compounds/me_vinyl_ether_g.gbw
me_vinyl_ether_g.ges -> /home1/pantazis/klk/VDZ/Oxygen_compounds/me_vinyl_ether_g.ges
me_vinyl_ether_g.job -> /home1/pantazis/klk/VDZ/Oxygen_compounds/me_vinyl_ether_g.job
me_vinyl_ether_g.loc -> /home1/pantazis/klk/VDZ/Oxygen_compounds/me_vinyl_ether_g.loc
me_vinyl_ether_g.nodes -> /home1/pantazis/klk/VDZ/Oxygen_compounds/me_vinyl_ether_g.nodes
me_vinyl_ether_g.prop -> /home1/pantazis/klk/VDZ/Oxygen_compounds/me_vinyl_ether_g.prop
me_vinyl_ether_g_property.txt -> /home1/pantazis/klk/VDZ/Oxygen_compounds/me_vinyl_ether_g_property.txt
me_vinyl_ether_g.xyz -> /home1/pantazis/klk/VDZ/Oxygen_compounds/me_vinyl_ether_g.xyz
cp: cannot stat me_vinyl_ether_g.asa.inp: No such file or directory
