! Job execution by suborca V 6.07 on ZEUS !
Job started from zeus1, running /scratch/pantazis/Me_vinyl_sulfone_gauche__CSGUsk/orca/orca copied from /opt/orca on zeussn151 in /scratch/pantazis/Me_vinyl_sulfone_gauche__CSGUsk
Job execution start: Sat Jun 29 11:57:44 CEST 2019
Shared library path: /scratch/pantazis/Me_vinyl_sulfone_gauche__CSGUsk/orca:/opt/openmpi_1.10.2/lib:/opt/intel/mkl/lib/intel64:/opt/intel/lib/intel64:
PBS Job ID is: 158953.icqc
izeussn151
izeussn151
izeussn151
izeussn151

                                 *****************
                                 * O   R   C   A *
                                 *****************

           --- An Ab Initio, DFT and Semiempirical electronic structure package ---

                  #######################################################
                  #                        -***-                        #
                  #          Department of theory and spectroscopy      #
                  #               Directorship: Frank Neese             #
                  #        Max Planck Institute fuer Kohlenforschung    #
                  #                Kaiser Wilhelm Platz 1               #
                  #                 D-45470 Muelheim/Ruhr               #
                  #                      Germany                        #
                  #                                                     #
                  #                  All rights reserved                #
                  #                        -***-                        #
                  #######################################################


                         Program Version 4.1.x  -  STABLE  -
                                (SVN: $Rev: 14094$)
                ($Date: 2019-06-14 15:01:15 +0200 (Fri, 14 Jun 2019) $)

                         (BUILD: $Sun Jun 23 06:18:31 CEST 2019$)


 With contributions from (in alphabetic order):
   Daniel Aravena         : Magnetic Properties
   Michael Atanasov       : Ab Initio Ligand Field Theory
   Alexander A. Auer      : GIAO ZORA
   Ute Becker             : Parallelization
   Giovanni Bistoni       : ED, Open-shell LED
   Martin Brehm           : Molecular dynamics
   Dmytro Bykov           : SCF Hessian
   Vijay G. Chilkuri      : MRCI spin determinant printing
   Dipayan Datta          : RHF DLPNO-CCSD density
   Achintya Kumar Dutta   : EOM-CC, STEOM-CC
   Dmitry Ganyushin       : Spin-Orbit,Spin-Spin,Magnetic field MRCI
   Miquel Garcia          : C-PCM Hessian
   Yang Guo               : DLPNO-NEVPT2, CIM, IAO-localization
   Andreas Hansen         : Spin unrestricted coupled pair/coupled cluster methods
   Benjamin Helmich-Paris : CASSCF linear response (MC-RPA)
   Lee Huntington         : MR-EOM, pCC
   Robert Izsak           : Overlap fitted RIJCOSX, COSX-SCS-MP3, EOM
   Christian Kollmar      : KDIIS, OOCD, Brueckner-CCSD(T), CCSD density
   Simone Kossmann        : Meta GGA functionals, TD-DFT gradient, OOMP2, MP2 Hessian
   Martin Krupicka        : AUTO-CI
   Lucas Lang             : DCDCAS
   Dagmar Lenk            : GEPOL surface, SMD
   Dimitrios Liakos       : Extrapolation schemes; parallel MDCI
   Dimitrios Manganas     : ROCIS; embedding schemes
   Dimitrios Pantazis     : SARC Basis sets
   Taras Petrenko         : DFT Hessian,TD-DFT gradient, ASA, ECA, R-Raman, ABS, FL, XAS/XES, NRVS
   Peter Pinski           : DLPNO-MP2, DLPNO-MP2 Gradient
   Christoph Reimann      : Effective Core Potentials
   Marius Retegan         : Local ZFS, SOC
   Christoph Riplinger    : Optimizer, TS searches, QM/MM, DLPNO-CCSD(T), (RO)-DLPNO pert. Triples
   Tobias Risthaus        : Range-separated hybrids, TD-DFT gradient, RPA, STAB
   Michael Roemelt        : Restricted open shell CIS
   Masaaki Saitow         : Open-shell DLPNO
   Barbara Sandhoefer     : DKH picture change effects
   Avijit Sen             : IP-ROCIS
   Kantharuban Sivalingam : CASSCF convergence, NEVPT2, FIC-MRCI
   Bernardo de Souza      : ESD, SOC TD-DFT
   Georgi Stoychev        : AutoAux, RI-MP2 NMR
   Willem Van den Heuvel  : Paramagnetic NMR
   Boris Wezisla          : Elementary symmetry handling
   Frank Wennmohs         : Technical directorship


 We gratefully acknowledge several colleagues who have allowed us to
 interface, adapt or use parts of their codes:
   Stefan Grimme, W. Hujo, H. Kruse,             : VdW corrections, initial TS optimization,
                  C. Bannwarth                     DFT functionals, gCP, sTDA/sTD-DF
   Ed Valeev                                     : LibInt (2-el integral package), F12 methods
   Garnet Chan, S. Sharma, J. Yang, R. Olivares  : DMRG
   Ulf Ekstrom                                   : XCFun DFT Library
   Mihaly Kallay                                 : mrcc  (arbitrary order and MRCC methods)
   Andreas Klamt, Michael Diedenhofen            : otool_cosmo (COSMO solvation model)
   Jiri Pittner, Ondrej Demel                    : Mk-CCSD
   Frank Weinhold                                : gennbo (NPA and NBO analysis)
   Christopher J. Cramer and Donald G. Truhlar   : smd solvation model
   Lars Goerigk                                  : TD-DFT with DH, B97 family of functionals
   V. Asgeirsson, H. Jonsson                     : NEB implementation
   FAccTs GmbH                                   : IRC, NEB, NEB-TS, Multilevel


 Your calculation uses the libint2 library for the computation of 2-el integrals
 For citations please refer to: http://libint.valeyev.net

 This ORCA versions uses:
   CBLAS   interface :  Fast vector & matrix operations
   LAPACKE interface :  Fast linear algebra routines
   SCALAPACK package :  Parallel linear algebra routines




***************************************
The coordinates will be read from file: Me_vinyl_sulfone_gauche.xyz
***************************************


----- Orbital basis set information -----
Your calculation utilizes the basis: cc-pVDZ 
       H, B-Ne : Obtained from the ccRepo (grant-hill.group.shef.ac.uk/ccrepo) Feb. 2017
                 T. H. Dunning, Jr., J. Chem. Phys. 90, 1007 (1989)
            He : Obtained from the ccRepo (grant-hill.group.shef.ac.uk/ccrepo) Feb. 2017
                 D. E. Woon, T. H. Dunning, Jr., J. Chem. Phys. 100, 2975 (1994)
  Li-Be, Na-Mg : Obtained from the ccRepo (grant-hill.group.shef.ac.uk/ccrepo) Feb. 2017
                 B. P. Prascher, D. E. Woon, K. A. Peterson, T. H. Dunning, Jr., A. K. Wilson, Theor. Chem. Acc. 128, 69 (2011)
         Al-Ar : Obtained from the ccRepo (grant-hill.group.shef.ac.uk/ccrepo) Feb. 2017
                 D. E. Woon, T. H. Dunning, Jr., J. Chem. Phys. 98, 1358 (1993)
            Ca : Obtained from the Peterson Research Group Website (tyr0.chem.wsu.edu/~kipeters) Feb. 2017
                 J. Koput, K. A. Peterson, J. Phys. Chem. 106, 9595 (2002)
         Sc-Zn : Obtained from the ccRepo (grant-hill.group.shef.ac.uk/ccrepo) Feb. 2017
                 N. B. Balabanov, K. A. Peterson, J. Chem. Phys. 123, 064107 (2005)
                 N. B. Balabanov, K. A. Peterson, J. Chem. Phys. 125, 074110 (2006)
         Ga-Kr : Obtained from the ccRepo (grant-hill.group.shef.ac.uk/ccrepo) Feb. 2017
                 A. K. Wilson, D. E. Woon, K. A. Peterson, T. H. Dunning, Jr., J. Chem. Phys. 110, 7667 (1999)

----- AuxC basis set information -----
Your calculation utilizes the auxiliary basis: cc-pVDZ/C 
  H-He, B, Ne, Al-Ar, Ga-Br : Obtained from the EMSL Basis Set Exchange (bse.pnl.gov) Feb. 2017
                              F. Weigend, A. Kohn, C. Hattig, J. Chem. Phys. 116, 3175 (2002)
               Li-Be, Na-Mg : Obtained from the EMSL Basis Set Exchange (bse.pnl.gov) Feb. 2017
                              C. Haettig, Phys. Chem. Chem. Phys. 7, 59 (2005)
                        C-F : Obtained from the EMSL Basis Set Exchange (bse.pnl.gov) Feb. 2017
                              C. Haettig, Phys. Chem. Chem. Phys. 7, 59 (2005)
                              F. Weigend, A. Kohn, C. Hattig, J. Chem. Phys. 116, 3175 (2002)
                         Kr : Obtained from the TURBOMOLE 7.0 basis set library
                              F. Weigend, A. Kohn, C. Hattig, J. Chem. Phys. 116, 3175 (2002)
                              S function revised in Sep. 2009

----- AuxJK basis set information -----
Your calculation utilizes the auxiliary basis: cc-pVTZ/JK 
  H, B-F, Al-Cl, Ga-Br : Obtained from the TURBOMOLE 7.0 basis set library

================================================================================
                                        WARNINGS
                       Please study these warnings very carefully!
================================================================================


WARNING: MDCI localization with Augmented Hessian Foster-Boys
  ===> : Switching off randomization!

WARNING: Post HF methods need fully converged wavefunctions
  ===> : Setting SCFConvForced true
         You can overwrite this default with %scf ConvForced false 


INFO   : the flag for use of LIBINT has been found!

================================================================================
                                       INPUT FILE
================================================================================
NAME = Me_vinyl_sulfone_gauche.inp
|  1> ! RHF DLPNO-CCSD(T) cc-pVDZ RIJK cc-pVTZ/JK cc-pVDZ/C
|  2> ! KDIIS SOSCF TightSCF TightPNO
|  3> 
|  4> %pal nprocs 4 end
|  5> 
|  6> %maxcore 8000
|  7> 
|  8> %scf maxiter 300
|  9>      shift shift 0.2 erroff 0.1 end
| 10> end
| 11> 
| 12> * xyzfile 0 1 Me_vinyl_sulfone_gauche.xyz 
| 13> 
| 14> 
| 15>                          ****END OF INPUT****
================================================================================

                       ****************************
                       * Single Point Calculation *
                       ****************************

---------------------------------
CARTESIAN COORDINATES (ANGSTROEM)
---------------------------------
  C      2.318200    0.180880    0.062780
  C      1.211390    0.295530   -0.666420
  S     -0.380190   -0.193950    0.008400
  O     -0.161210   -0.744670    1.358110
  C     -1.270790    1.369800    0.190590
  O     -1.070510   -0.980490   -1.029750
  H     -2.256790    1.109310    0.581610
  H     -0.732920    2.005370    0.895280
  H     -1.365270    1.843050   -0.788200
  H      3.289110    0.429240   -0.355960
  H      2.274430   -0.178780    1.086950
  H      1.175400    0.619070   -1.702630

----------------------------
CARTESIAN COORDINATES (A.U.)
----------------------------
  NO LB      ZA    FRAG     MASS         X           Y           Z
   0 C     6.0000    0    12.011    4.380763    0.341814    0.118637
   1 C     6.0000    0    12.011    2.289195    0.558471   -1.259351
   2 S    16.0000    0    32.060   -0.718455   -0.366512    0.015874
   3 O     8.0000    0    15.999   -0.304643   -1.407222    2.566456
   4 C     6.0000    0    12.011   -2.401445    2.588547    0.360163
   5 O     8.0000    0    15.999   -2.022971   -1.852858   -1.945945
   6 H     1.0000    0     1.008   -4.264715    2.096292    1.099084
   7 H     1.0000    0     1.008   -1.385018    3.789600    1.691834
   8 H     1.0000    0     1.008   -2.579986    3.482860   -1.489482
   9 H     1.0000    0     1.008    6.215517    0.811146   -0.672667
  10 H     1.0000    0     1.008    4.298050   -0.337845    2.054038
  11 H     1.0000    0     1.008    2.221184    1.169873   -3.217504

--------------------------------
INTERNAL COORDINATES (ANGSTROEM)
--------------------------------
 C      0   0   0     0.000000000000     0.00000000     0.00000000
 C      1   0   0     1.330378005907     0.00000000     0.00000000
 S      2   1   0     1.796691292126   120.50614717     0.00000000
 O      3   2   1     1.474096958446   108.30559190   357.33127407
 C      3   2   1     1.808777382267   103.79623746   111.58951802
 O      3   2   1     1.474090328474   107.19892003   225.24015066
 H      5   3   2     1.092221442978   105.92413959   178.86287597
 H      5   3   2     1.090798495553   109.02713031   297.97366385
 H      5   3   2     1.091293680455   109.09892542    60.17993078
 H      1   2   3     1.086136319851   120.84181758   176.98674710
 H      1   2   3     1.086367947521   120.78012800   357.97456826
 H      2   1   3     1.086142060598   125.18056337   183.86564269

---------------------------
INTERNAL COORDINATES (A.U.)
---------------------------
 C      0   0   0     0.000000000000     0.00000000     0.00000000
 C      1   0   0     2.514050085756     0.00000000     0.00000000
 S      2   1   0     3.395254489319   120.50614717     0.00000000
 O      3   2   1     2.785639546309   108.30559190   357.33127407
 C      3   2   1     3.418093889715   103.79623746   111.58951802
 O      3   2   1     2.785627017478   107.19892003   225.24015066
 H      5   3   2     2.063999404824   105.92413959   178.86287597
 H      5   3   2     2.061310423888   109.02713031   297.97366385
 H      5   3   2     2.062246187738   109.09892542    60.17993078
 H      1   2   3     2.052500188624   120.84181758   176.98674710
 H      1   2   3     2.052937901484   120.78012800   357.97456826
 H      2   1   3     2.052511037063   125.18056337   183.86564269

---------------------
BASIS SET INFORMATION
---------------------
There are 4 groups of distinct atoms

 Group   1 Type C   : 17s4p1d contracted to 3s2p1d pattern {881/31/1}
 Group   2 Type S   : 34s15p1d contracted to 4s3p1d pattern {1111111/771/1}
 Group   3 Type O   : 17s4p1d contracted to 3s2p1d pattern {881/31/1}
 Group   4 Type H   : 4s1p contracted to 2s1p pattern {31/1}

Atom   0C    basis set group =>   1
Atom   1C    basis set group =>   1
Atom   2S    basis set group =>   2
Atom   3O    basis set group =>   3
Atom   4C    basis set group =>   1
Atom   5O    basis set group =>   3
Atom   6H    basis set group =>   4
Atom   7H    basis set group =>   4
Atom   8H    basis set group =>   4
Atom   9H    basis set group =>   4
Atom  10H    basis set group =>   4
Atom  11H    basis set group =>   4
-------------------------------
AUXILIARY BASIS SET INFORMATION
-------------------------------
There are 4 groups of distinct atoms

 Group   1 Type C   : 7s5p4d2f contracted to 7s5p4d2f pattern {1111111/11111/1111/11}
 Group   2 Type S   : 9s7p5d3f contracted to 9s7p5d3f pattern {111111111/1111111/11111/111}
 Group   3 Type O   : 7s5p4d2f contracted to 7s5p4d2f pattern {1111111/11111/1111/11}
 Group   4 Type H   : 3s2p1d contracted to 3s2p1d pattern {111/11/1}

Atom   0C    basis set group =>   1
Atom   1C    basis set group =>   1
Atom   2S    basis set group =>   2
Atom   3O    basis set group =>   3
Atom   4C    basis set group =>   1
Atom   5O    basis set group =>   3
Atom   6H    basis set group =>   4
Atom   7H    basis set group =>   4
Atom   8H    basis set group =>   4
Atom   9H    basis set group =>   4
Atom  10H    basis set group =>   4
Atom  11H    basis set group =>   4
-------------------------------
AUXILIARY BASIS SET INFORMATION
-------------------------------
There are 4 groups of distinct atoms

 Group   1 Type C   : 10s7p5d2f1g contracted to 10s7p5d2f1g pattern {1111111111/1111111/11111/11/1}
 Group   2 Type S   : 13s11p9d3f1g contracted to 13s11p9d3f1g pattern {1111111111111/11111111111/111111111/111/1}
 Group   3 Type O   : 10s7p5d2f1g contracted to 10s7p5d2f1g pattern {1111111111/1111111/11111/11/1}
 Group   4 Type H   : 4s3p2d1f contracted to 4s3p2d1f pattern {1111/111/11/1}

Atom   0C    basis set group =>   1
Atom   1C    basis set group =>   1
Atom   2S    basis set group =>   2
Atom   3O    basis set group =>   3
Atom   4C    basis set group =>   1
Atom   5O    basis set group =>   3
Atom   6H    basis set group =>   4
Atom   7H    basis set group =>   4
Atom   8H    basis set group =>   4
Atom   9H    basis set group =>   4
Atom  10H    basis set group =>   4
Atom  11H    basis set group =>   4

Checking for AutoStart:
The File: Me_vinyl_sulfone_gauche.gbw exists
Trying to determine its content:
     ... Fine, the file contains calculation information
     ... Fine, the calculation information was read
     ... Fine, the file contains a basis set
     ... Fine, the basis set was read
     ... Fine, the file contains a geometry
     ... Fine, the geometry was read
     ... Fine, the file contains a set of orbitals
     ... Fine, the orbitals can be read
     => possible old guess file was deleted
     => GBW file was renamed to GES file
     => GES file is set as startup file
     => Guess is set to MORead
     ... now leaving AutoStart



           ************************************************************
           *        Program running with 4 parallel MPI-processes     *
           *              working on a common directory               *
           ************************************************************
------------------------------------------------------------------------------
                           ORCA GTO INTEGRAL CALCULATION
                           -- RI-GTO INTEGRALS CHOSEN --
------------------------------------------------------------------------------

                         BASIS SET STATISTICS AND STARTUP INFO

Gaussian basis set:
 # of primitive gaussian shells          ...  190
 # of primitive gaussian functions       ...  296
 # of contracted shells                  ...   56
 # of contracted basis functions         ...  118
 Highest angular momentum                ...    2
 Maximum contraction depth               ...   11
Auxiliary gaussian basis set:
 # of primitive gaussian shells          ...  222
 # of primitive gaussian functions       ...  696
 # of contracted shells                  ...  222
 # of contracted aux-basis functions     ...  696
 Highest angular momentum                ...    4
 Maximum contraction depth               ...    1
Ratio of auxiliary to basis functions    ...  5.90
Integral package used                  ... LIBINT
 One Electron integrals                  ... done
 Ordering auxiliary basis shells         ... done
 Integral threshhold             Thresh  ...  2.500e-11
 Primitive cut-off               TCut    ...  2.500e-12
 Pre-screening matrix                    ... done
 Shell pair data                         ... 
 Ordering of the shell pairs             ... done (   0.000 sec) 1588 of 1596 pairs
 Determination of significant pairs      ... done (   0.000 sec)
 Creation of shell pair data             ... done (   0.001 sec)
 Storage of shell pair data              ... done (   0.001 sec)
 Shell pair data done in (   0.002 sec)
 Computing two index integrals           ... done
 Cholesky decomposition of the V-matrix  ... done


Timings:
 Total evaluation time                   ...   0.361 sec (  0.006 min)
 One electron matrix time                ...   0.022 sec (  0.000 min) =  6.0%
 Schwartz matrix evaluation time         ...   0.221 sec (  0.004 min) = 61.3%
 Two index repulsion integral time       ...   0.047 sec (  0.001 min) = 12.9%
 Cholesky decomposition of V             ...   0.042 sec (  0.001 min) = 11.6%
 Three index repulsion integral time     ...   0.000 sec (  0.000 min) =  0.0%



           ************************************************************
           *        Program running with 4 parallel MPI-processes     *
           *              working on a common directory               *
           ************************************************************
-------------------------------------------------------------------------------
                                 ORCA SCF
-------------------------------------------------------------------------------

------------
SCF SETTINGS
------------
Hamiltonian:
 Ab initio Hamiltonian  Method          .... Hartree-Fock(GTOs)
 RI-approximation to the Coulomb term is turned on
   Number of auxiliary basis functions  .... 696
   RI-JK (J+K treated both via RI)      .... on


General Settings:
 Integral files         IntName         .... Me_vinyl_sulfone_gauche
 Hartree-Fock type      HFTyp           .... RHF
 Total Charge           Charge          ....    0
 Multiplicity           Mult            ....    1
 Number of Electrons    NEL             ....   56
 Basis Dimension        Dim             ....  118
 Nuclear Repulsion      ENuc            ....    327.2519052470 Eh

Convergence Acceleration:
 DIIS                   CNVDIIS         .... off
 Newton-Raphson         CNVNR           .... off
 SOSCF                  CNVSOSCF        .... on
   Start iteration      SOSCFMaxIt      ....   150
   Startup grad/error   SOSCFStart      ....  0.003300
 Level Shifting         CNVShift        .... on
   Level shift para.    LevelShift      ....    0.2000
   Turn off err/grad.   ShiftErr        ....    0.1000
 Zerner damping         CNVZerner       .... off
 Static damping         CNVDamp         .... off
 Fernandez-Rico         CNVRico         .... off

SCF Procedure:
 Maximum # iterations   MaxIter         ....   300
 SCF integral mode      SCFMode         .... Direct
   Integral package                     .... LIBINT
 Reset frequency        DirectResetFreq ....    20
 Integral Threshold     Thresh          ....  2.500e-11 Eh
 Primitive CutOff       TCut            ....  2.500e-12 Eh

Convergence Tolerance:
 Convergence Check Mode ConvCheckMode   .... Total+1el-Energy
 Convergence forced     ConvForced      .... 1
 Energy Change          TolE            ....  1.000e-08 Eh
 1-El. energy change                    ....  1.000e-05 Eh
 Orbital Gradient       TolG            ....  1.000e-05
 Orbital Rotation angle TolX            ....  1.000e-05


Diagonalization of the overlap matrix:
Smallest eigenvalue                        ... 3.402e-03
Time for diagonalization                   ...    0.005 sec
Threshold for overlap eigenvalues          ... 1.000e-08
Number of eigenvalues below threshold      ... 0
Time for construction of square roots      ...    0.005 sec
Total time needed                          ...    0.010 sec

---------------------
INITIAL GUESS: MOREAD
---------------------
Guess MOs are being read from file: Me_vinyl_sulfone_gauche.ges
Input Geometry matches current geometry (good)
Atom 0: N(Shells)= 6 and 10 - projection required
Input basis set needs projection
NBasis(read)= 268
NBasis(calc)= 118
Basis set overlap was calculated
Using GuessMode=FMatrix for the initial guess
C*T matrix was formed
Effective Fockian was calculated
Effective Fockian was diagonalized
Initial density was built
                      ------------------
                      INITIAL GUESS DONE (   0.0 sec)
                      ------------------
--------------
SCF ITERATIONS
--------------
ITER       Energy         Delta-E        Max-DP      RMS-DP      [F,P]   Gradient Norm
                             ****Turning on KDIIS(Cayley)****
  0   -664.2413287468   0.000000000000 0.00303638  0.00011777  0.0060199   0.007771895
  1   -664.2416761246  -0.000347377804 0.00610417  0.00022507  0.0053885   0.007041254
  2   -664.2422536171  -0.000577492438 0.01063161  0.00038808  0.0046096   0.005768287
                      *** Initiating the SOSCF procedure ***
                           *** Shutting down KDIIS ***
                      *** Re-Reading the Fockian *** 
                      *** Removing any level shift *** 
ITER      Energy       Delta-E        Grad      Rot      Max-DP    RMS-DP
  3   -664.24301868  -0.0007650613  0.002789  0.002789  0.016339  0.000590
  4   -664.24346704  -0.0004483610  0.000114  0.000141  0.000286  0.000012
  5   -664.24346755  -0.0000005130  0.000062  0.000109  0.000178  0.000007
  6   -664.24346773  -0.0000001757  0.000012  0.000035  0.000050  0.000002
  7   -664.24346774  -0.0000000125  0.000005  0.000006  0.000014  0.000001
                  ***Gradient check signals convergence***
              ***Rediagonalizing the Fockian in SOSCF/NRSCF***

               *****************************************************
               *                     SUCCESS                       *
               *           SCF CONVERGED AFTER   8 CYCLES          *
               *****************************************************


----------------
TOTAL SCF ENERGY
----------------

Total Energy       :         -664.24346774 Eh          -18074.98367 eV

Components:
Nuclear Repulsion  :          327.25190525 Eh            8904.97706 eV
Electronic Energy  :         -991.49537299 Eh          -26979.96073 eV
One Electron Energy:        -1562.75328534 Eh          -42524.67881 eV
Two Electron Energy:          571.25791235 Eh           15544.71807 eV

Virial components:
Potential Energy   :        -1328.03519734 Eh          -36137.67492 eV
Kinetic Energy     :          663.79172960 Eh           18062.69125 eV
Virial Ratio       :            2.00068054


---------------
SCF CONVERGENCE
---------------

  Last Energy change         ...   -1.0606e-09  Tolerance :   1.0000e-08
  Last MAX-Density change    ...    5.8527e-06  Tolerance :   1.0000e-07
  Last RMS-Density change    ...    1.6260e-07  Tolerance :   5.0000e-09
  Last Orbital Gradient      ...    2.0891e-06  Tolerance :   1.0000e-05
  Last Orbital Rotation      ...    2.2097e-06  Tolerance :   1.0000e-05

             **** THE GBW FILE WAS UPDATED (Me_vinyl_sulfone_gauche.gbw) ****
             **** DENSITY FILE WAS UPDATED (Me_vinyl_sulfone_gauche.scfp.tmp) ****
             **** ENERGY FILE WAS UPDATED (Me_vinyl_sulfone_gauche.en.tmp) ****
----------------
ORBITAL ENERGIES
----------------

  NO   OCC          E(Eh)            E(eV) 
   0   2.0000     -92.191524     -2508.6589 
   1   2.0000     -20.540434      -558.9336 
   2   2.0000     -20.536438      -558.8249 
   3   2.0000     -11.289105      -307.1922 
   4   2.0000     -11.287280      -307.1425 
   5   2.0000     -11.285843      -307.1034 
   6   2.0000      -9.166897      -249.4440 
   7   2.0000      -6.851729      -186.4450 
   8   2.0000      -6.850439      -186.4099 
   9   2.0000      -6.850101      -186.4007 
  10   2.0000      -1.435240       -39.0549 
  11   2.0000      -1.323439       -36.0126 
  12   2.0000      -1.099365       -29.9152 
  13   2.0000      -1.036478       -28.2040 
  14   2.0000      -0.893387       -24.3103 
  15   2.0000      -0.783089       -21.3089 
  16   2.0000      -0.703897       -19.1540 
  17   2.0000      -0.665630       -18.1127 
  18   2.0000      -0.655493       -17.8369 
  19   2.0000      -0.636028       -17.3072 
  20   2.0000      -0.605272       -16.4703 
  21   2.0000      -0.591228       -16.0881 
  22   2.0000      -0.569907       -15.5080 
  23   2.0000      -0.483297       -13.1512 
  24   2.0000      -0.480325       -13.0703 
  25   2.0000      -0.455549       -12.3961 
  26   2.0000      -0.431099       -11.7308 
  27   2.0000      -0.420223       -11.4348 
  28   0.0000       0.105917         2.8822 
  29   0.0000       0.167089         4.5467 
  30   0.0000       0.192888         5.2487 
  31   0.0000       0.210284         5.7221 
  32   0.0000       0.229416         6.2427 
  33   0.0000       0.236109         6.4249 
  34   0.0000       0.242604         6.6016 
  35   0.0000       0.259880         7.0717 
  36   0.0000       0.296892         8.0788 
  37   0.0000       0.297595         8.0980 
  38   0.0000       0.325378         8.8540 
  39   0.0000       0.426418        11.6034 
  40   0.0000       0.540820        14.7165 
  41   0.0000       0.569250        15.4901 
  42   0.0000       0.589152        16.0316 
  43   0.0000       0.600476        16.3398 
  44   0.0000       0.636554        17.3215 
  45   0.0000       0.684857        18.6359 
  46   0.0000       0.698918        19.0185 
  47   0.0000       0.710777        19.3412 
  48   0.0000       0.731281        19.8992 
  49   0.0000       0.772851        21.0304 
  50   0.0000       0.788873        21.4663 
  51   0.0000       0.812100        22.0984 
  52   0.0000       0.823022        22.3956 
  53   0.0000       0.845088        22.9960 
  54   0.0000       0.848287        23.0831 
  55   0.0000       0.851668        23.1751 
  56   0.0000       0.897540        24.4233 
  57   0.0000       0.927922        25.2500 
  58   0.0000       0.964595        26.2480 
  59   0.0000       0.980911        26.6919 
  60   0.0000       1.045391        28.4465 
  61   0.0000       1.065021        28.9807 
  62   0.0000       1.116557        30.3831 
  63   0.0000       1.119514        30.4635 
  64   0.0000       1.151661        31.3383 
  65   0.0000       1.212360        32.9900 
  66   0.0000       1.220790        33.2194 
  67   0.0000       1.258379        34.2422 
  68   0.0000       1.298687        35.3391 
  69   0.0000       1.329597        36.1802 
  70   0.0000       1.355293        36.8794 
  71   0.0000       1.359477        36.9933 
  72   0.0000       1.394495        37.9461 
  73   0.0000       1.439067        39.1590 
  74   0.0000       1.479355        40.2553 
  75   0.0000       1.529598        41.6225 
  76   0.0000       1.560935        42.4752 
  77   0.0000       1.579181        42.9717 
  78   0.0000       1.622251        44.1437 
  79   0.0000       1.643905        44.7329 
  80   0.0000       1.708279        46.4846 
  81   0.0000       1.802167        49.0395 
  82   0.0000       1.821183        49.5569 
  83   0.0000       1.845864        50.2285 
  84   0.0000       1.855109        50.4801 
  85   0.0000       1.874460        51.0067 
  86   0.0000       1.896647        51.6104 
  87   0.0000       1.934968        52.6531 
  88   0.0000       1.957491        53.2660 
  89   0.0000       1.990047        54.1519 
  90   0.0000       2.021928        55.0195 
  91   0.0000       2.121895        57.7397 
  92   0.0000       2.164284        58.8932 
  93   0.0000       2.191107        59.6230 
  94   0.0000       2.271364        61.8069 
  95   0.0000       2.284747        62.1711 
  96   0.0000       2.340610        63.6912 
  97   0.0000       2.399234        65.2865 
  98   0.0000       2.410244        65.5861 
  99   0.0000       2.414119        65.6915 
 100   0.0000       2.440108        66.3987 
 101   0.0000       2.565578        69.8129 
 102   0.0000       2.717786        73.9547 
 103   0.0000       2.732207        74.3471 
 104   0.0000       2.744273        74.6755 
 105   0.0000       2.761661        75.1486 
 106   0.0000       2.953280        80.3628 
 107   0.0000       2.975446        80.9660 
 108   0.0000       2.987426        81.2920 
 109   0.0000       3.000366        81.6441 
 110   0.0000       3.010313        81.9148 
 111   0.0000       3.082789        83.8870 
 112   0.0000       3.145416        85.5911 
 113   0.0000       3.168883        86.2297 
 114   0.0000       3.327545        90.5471 
 115   0.0000       3.349862        91.1544 
 116   0.0000       3.665350        99.7393 
 117   0.0000       3.753482       102.1374 

                    ********************************
                    * MULLIKEN POPULATION ANALYSIS *
                    ********************************

-----------------------
MULLIKEN ATOMIC CHARGES
-----------------------
   0 C :    0.066670
   1 C :   -0.330687
   2 S :    1.136355
   3 O :   -0.618789
   4 C :   -0.169124
   5 O :   -0.616158
   6 H :    0.102605
   7 H :    0.084704
   8 H :    0.081090
   9 H :    0.079302
  10 H :    0.102346
  11 H :    0.081686
Sum of atomic charges:   -0.0000000

--------------------------------
MULLIKEN REDUCED ORBITAL CHARGES
--------------------------------
  0 C s       :     3.069970  s :     3.069970
      pz      :     1.002074  p :     2.804339
      px      :     0.935254
      py      :     0.867011
      dz2     :     0.015919  d :     0.059021
      dxz     :     0.015934
      dyz     :     0.006271
      dx2y2   :     0.007998
      dxy     :     0.012899
  1 C s       :     3.247805  s :     3.247805
      pz      :     1.039979  p :     3.017848
      px      :     0.906770
      py      :     1.071100
      dz2     :     0.017356  d :     0.065034
      dxz     :     0.017566
      dyz     :     0.007394
      dx2y2   :     0.012200
      dxy     :     0.010518
  2 S s       :     5.274686  s :     5.274686
      pz      :     2.859578  p :     8.819856
      px      :     2.973354
      py      :     2.986925
      dz2     :     0.206524  d :     0.769103
      dxz     :     0.169043
      dyz     :     0.154136
      dx2y2   :     0.113645
      dxy     :     0.125755
  3 O s       :     3.856375  s :     3.856375
      pz      :     1.324287  p :     4.743457
      px      :     1.735626
      py      :     1.683544
      dz2     :     0.007384  d :     0.018956
      dxz     :     0.004185
      dyz     :     0.005625
      dx2y2   :     0.000912
      dxy     :     0.000851
  4 C s       :     3.125201  s :     3.125201
      pz      :     1.043681  p :     2.996738
      px      :     1.029884
      py      :     0.923173
      dz2     :     0.011153  d :     0.047185
      dxz     :     0.006901
      dyz     :     0.008315
      dx2y2   :     0.007010
      dxy     :     0.013806
  5 O s       :     3.858331  s :     3.858331
      pz      :     1.487595  p :     4.738747
      px      :     1.647496
      py      :     1.603656
      dz2     :     0.004151  d :     0.019081
      dxz     :     0.004421
      dyz     :     0.004955
      dx2y2   :     0.002504
      dxy     :     0.003049
  6 H s       :     0.864519  s :     0.864519
      pz      :     0.007622  p :     0.032876
      px      :     0.019820
      py      :     0.005435
  7 H s       :     0.882955  s :     0.882955
      pz      :     0.012713  p :     0.032341
      px      :     0.008777
      py      :     0.010851
  8 H s       :     0.886507  s :     0.886507
      pz      :     0.019171  p :     0.032402
      px      :     0.005065
      py      :     0.008166
  9 H s       :     0.888134  s :     0.888134
      pz      :     0.007311  p :     0.032564
      px      :     0.019739
      py      :     0.005513
 10 H s       :     0.863860  s :     0.863860
      pz      :     0.022367  p :     0.033794
      px      :     0.004588
      py      :     0.006838
 11 H s       :     0.885294  s :     0.885294
      pz      :     0.022543  p :     0.033021
      px      :     0.003301
      py      :     0.007176


                     *******************************
                     * LOEWDIN POPULATION ANALYSIS *
                     *******************************

----------------------
LOEWDIN ATOMIC CHARGES
----------------------
   0 C :    0.024974
   1 C :   -0.184919
   2 S :    1.108116
   3 O :   -0.523490
   4 C :   -0.138132
   5 O :   -0.522235
   6 H :    0.045896
   7 H :    0.036980
   8 H :    0.036123
   9 H :    0.040162
  10 H :    0.044046
  11 H :    0.032478

-------------------------------
LOEWDIN REDUCED ORBITAL CHARGES
-------------------------------
  0 C s       :     2.847859  s :     2.847859
      pz      :     1.043360  p :     2.966108
      px      :     1.061901
      py      :     0.860847
      dz2     :     0.044225  d :     0.161059
      dxz     :     0.046547
      dyz     :     0.014497
      dx2y2   :     0.030580
      dxy     :     0.025209
  1 C s       :     2.898446  s :     2.898446
      pz      :     1.054168  p :     3.113572
      px      :     1.029670
      py      :     1.029734
      dz2     :     0.049329  d :     0.172901
      dxz     :     0.051841
      dyz     :     0.015088
      dx2y2   :     0.033368
      dxy     :     0.023275
  2 S s       :     5.016293  s :     5.016293
      pz      :     2.940913  p :     8.890294
      px      :     2.981136
      py      :     2.968246
      dz2     :     0.265069  d :     0.985296
      dxz     :     0.215509
      dyz     :     0.199379
      dx2y2   :     0.142125
      dxy     :     0.163214
  3 O s       :     3.651641  s :     3.651641
      pz      :     1.424723  p :     4.844010
      px      :     1.727598
      py      :     1.691690
      dz2     :     0.012271  d :     0.027838
      dxz     :     0.004852
      dyz     :     0.008677
      dx2y2   :     0.001029
      dxy     :     0.001009
  4 C s       :     2.864952  s :     2.864952
      pz      :     1.082087  p :     3.143414
      px      :     1.061943
      py      :     0.999384
      dz2     :     0.028145  d :     0.129767
      dxz     :     0.019142
      dyz     :     0.027433
      dx2y2   :     0.020709
      dxy     :     0.034338
  5 O s       :     3.654150  s :     3.654150
      pz      :     1.543308  p :     4.840129
      px      :     1.663452
      py      :     1.633369
      dz2     :     0.004796  d :     0.027956
      dxz     :     0.007200
      dyz     :     0.008598
      dx2y2   :     0.002691
      dxy     :     0.004671
  6 H s       :     0.868614  s :     0.868614
      pz      :     0.020407  p :     0.085490
      px      :     0.048322
      py      :     0.016761
  7 H s       :     0.877664  s :     0.877664
      pz      :     0.031943  p :     0.085356
      px      :     0.023491
      py      :     0.029922
  8 H s       :     0.878671  s :     0.878671
      pz      :     0.044783  p :     0.085206
      px      :     0.016742
      py      :     0.023681
  9 H s       :     0.877200  s :     0.877200
      pz      :     0.021629  p :     0.082638
      px      :     0.044569
      py      :     0.016440
 10 H s       :     0.869814  s :     0.869814
      pz      :     0.051919  p :     0.086140
      px      :     0.014937
      py      :     0.019284
 11 H s       :     0.877869  s :     0.877869
      pz      :     0.053249  p :     0.089653
      px      :     0.014351
      py      :     0.022052


                      *****************************
                      * MAYER POPULATION ANALYSIS *
                      *****************************

  NA   - Mulliken gross atomic population
  ZA   - Total nuclear charge
  QA   - Mulliken gross atomic charge
  VA   - Mayer's total valence
  BVA  - Mayer's bonded valence
  FA   - Mayer's free valence

  ATOM       NA         ZA         QA         VA         BVA        FA
  0 C      5.9333     6.0000     0.0667     3.8992     3.8992    -0.0000
  1 C      6.3307     6.0000    -0.3307     3.9214     3.9214     0.0000
  2 S     14.8636    16.0000     1.1364     5.2262     5.2262    -0.0000
  3 O      8.6188     8.0000    -0.6188     1.8253     1.8253    -0.0000
  4 C      6.1691     6.0000    -0.1691     3.8936     3.8936    -0.0000
  5 O      8.6162     8.0000    -0.6162     1.8142     1.8142     0.0000
  6 H      0.8974     1.0000     0.1026     0.9907     0.9907    -0.0000
  7 H      0.9153     1.0000     0.0847     0.9839     0.9839     0.0000
  8 H      0.9189     1.0000     0.0811     0.9835     0.9835    -0.0000
  9 H      0.9207     1.0000     0.0793     0.9734     0.9734    -0.0000
 10 H      0.8977     1.0000     0.1023     0.9968     0.9968    -0.0000
 11 H      0.9183     1.0000     0.0817     0.9933     0.9933     0.0000

  Mayer bond orders larger than 0.1
B(  0-C ,  1-C ) :   1.9466 B(  0-C ,  9-H ) :   0.9658 B(  0-C , 10-H ) :   0.9552 
B(  1-C ,  2-S ) :   0.9227 B(  1-C , 11-H ) :   0.9599 B(  2-S ,  3-O ) :   1.6722 
B(  2-S ,  4-C ) :   0.9350 B(  2-S ,  5-O ) :   1.6727 B(  4-C ,  6-H ) :   0.9668 
B(  4-C ,  7-H ) :   0.9655 B(  4-C ,  8-H ) :   0.9659 

-------
TIMINGS
-------

Total SCF time: 0 days 0 hours 0 min 4 sec 

Total time                  ....       4.235 sec
Sum of individual times     ....       4.085 sec  ( 96.5%)

Fock matrix formation       ....       4.034 sec  ( 95.3%)
Diagonalization             ....       0.008 sec  (  0.2%)
Density matrix formation    ....       0.001 sec  (  0.0%)
Population analysis         ....       0.005 sec  (  0.1%)
Initial guess               ....       0.031 sec  (  0.7%)
Orbital Transformation      ....       0.000 sec  (  0.0%)
Orbital Orthonormalization  ....       0.000 sec  (  0.0%)
DIIS solution               ....       0.000 sec  (  0.0%)
SOSCF solution              ....       0.006 sec  (  0.1%)


           ************************************************************
           *        Program running with 4 parallel MPI-processes     *
           *              working on a common directory               *
           ************************************************************


------------------------------------------------------------------------------- 
                              ORCA-MATRIX DRIVEN CI                            
------------------------------------------------------------------------------- 


Wavefunction type
-----------------
Correlation treatment                      ...      CCSD     
Single excitations                         ... ON
Orbital optimization                       ... OFF
Calculation of Z vector                    ... OFF
Calculation of Brueckner orbitals          ... OFF
Perturbative triple excitations            ... ON
Calculation of F12 correction              ... OFF
Frozen core treatment                      ... chemical core (20 el)
Reference Wavefunction                     ... RHF
  Internal Orbitals:    10 ...   27 ( 18 MO's/ 36 electrons)
  Virtual  Orbitals:    28 ...  117 ( 90 MO's              )
Number of AO's                             ...    118
Number of electrons                        ...     56
Number of correlated electrons             ...     36

Algorithmic settings
--------------------
Integral transformation                    ... All integrals via the RI transformation
K(C) Formation                             ... RI-DLPNO
   PNO-Integral Storage                    ... ON DISK
   PNO occupation number cut-off           ... 1.000e-07
   Singles PNO occupation number cut-off   ... 3.000e-09
   PNO Mulliken prescreening cut-off       ... 1.000e-03
   Domain cut-off (Mulliken population)    ... 1.000e-03
   PNO Normalization                       ...    1
Maximum number of iterations               ...        50
Convergence tolerance (max. residuum)      ... 1.000e-05
Level shift for amplitude update           ... 2.000e-01
Maximum number of DIIS vectors             ...         7
DIIS turned on at iteration                ...         0
Damping before turning on DIIS             ...     0.500
Damping after turning on DIIS              ...     0.000
Pair specific amplitude update             ... OFF
Natural orbital iterations                 ... OFF
Perturbative natural orbital generation    ... OFF
Printlevel                                 ... 2

Singles Fock matrix elements calculated using PNOs.

Memory handling:
----------------
Maximum memory for working arrays          ...   8000 MB
Data storage in matrix containers          ... UNCOMPRESSED
Data type for integral storage             ... DOUBLE
In-Core Storage of quantities:
   Amplitudes+Sigma Vector      ... NO
   J+K operators                ... NO
   DIIS vectors                 ... NO
   3-external integrals         ... NO
   4-external integrals         ... NO

Localization treatment:
-----------------------
Localization option                        ...    6
Localization threshhold                    ... -1.0e+00
Using relative localization threshhold     ... 1.0e-08
Neglect threshold for strong pairs         ... 1.000e-05 Eh
Prescreening threshold for very weak pairs ... 1.000e-07 Eh

Initializing the integral package          ... done
Localizing the valence orbitals
------------------------------------------------------------------------------
                           ORCA ORBITAL LOCALIZATION
------------------------------------------------------------------------------

Input orbitals are from                  ... Me_vinyl_sulfone_gauche.proc0.gbw
Output orbitals are to                   ... Me_vinyl_sulfone_gauche.proc0.loc
Max. number of iterations                ... 128
Localizations seeded randomly            ... off
Convergence tolerance                    ... 1.000e-06
Using relative localization threshhold   ... 1.000e-08
Treshold for strong local MOs            ... 9.500e-01
Treshold for bond MOs                    ... 8.500e-01
Operator                                 ... 0
Orbital range for localization           ... 10 to 27
Localization criterion                   ... FOSTER-BOYS (AUGMENTED HESSIAN)
Doing the dipole integrals     ... o.k.
Initial value of the localization sum :   180.521636
ITERATION   0 : L=  211.7800604067 DL=  3.13e+01 (AVERGE_DL)=    0.4519993648 
ITERATION   1 : L=  214.4987903983 DL=  2.72e+00 (AVERGE_DL)=    0.1333022020 
ITERATION   2 : L=  214.5642332099 DL=  6.54e-02 (AVERGE_DL)=    0.0206816536 
ITERATION   3 : L=  214.5857307489 DL=  2.15e-02 (AVERGE_DL)=    0.0118535561 
ITERATION   4 : L=  214.5943265150 DL=  8.60e-03 (AVERGE_DL)=    0.0074954305 
ITERATION   5 : L=  214.5985832790 DL=  4.26e-03 (AVERGE_DL)=    0.0052746551 
ITERATION   6 : L=  214.6016706312 DL=  3.09e-03 (AVERGE_DL)=    0.0044920789 
ITERATION   7 : L=  214.6046770373 DL=  3.01e-03 (AVERGE_DL)=    0.0044327997 
ITERATION   8 : L=  214.6078877624 DL=  3.21e-03 (AVERGE_DL)=    0.0045809531 
ITERATION   9 : L=  214.6112392304 DL=  3.35e-03 (AVERGE_DL)=    0.0046802799 
ITERATION  10 : L=  214.6145209862 DL=  3.28e-03 (AVERGE_DL)=    0.0046313480 
ITERATION  11 : L=  214.6175081969 DL=  2.99e-03 (AVERGE_DL)=    0.0044186257 
ITERATION  12 : L=  214.6200464808 DL=  2.54e-03 (AVERGE_DL)=    0.0040730935 
ITERATION  13 : L=  214.6220796872 DL=  2.03e-03 (AVERGE_DL)=    0.0036453985 
ITERATION  14 : L=  214.6236324719 DL=  1.55e-03 (AVERGE_DL)=    0.0031857370 
ITERATION  15 : L=  214.6247752890 DL=  1.14e-03 (AVERGE_DL)=    0.0027330189 
ITERATION  16 : L=  214.6255932030 DL=  8.18e-04 (AVERGE_DL)=    0.0023121080 
ITERATION  17 : L=  214.6261665606 DL=  5.73e-04 (AVERGE_DL)=    0.0019358294 
ITERATION  18 : L=  214.6265623921 DL=  3.96e-04 (AVERGE_DL)=    0.0016084570 
ITERATION  19 : L=  214.6268326282 DL=  2.70e-04 (AVERGE_DL)=    0.0013290030 
ITERATION  20 : L=  214.6270156206 DL=  1.83e-04 (AVERGE_DL)=    0.0010936310 
ITERATION  21 : L=  214.6271387959 DL=  1.23e-04 (AVERGE_DL)=    0.0008972556 
ITERATION  22 : L=  214.6272213478 DL=  8.26e-05 (AVERGE_DL)=    0.0007345438 
ITERATION  23 : L=  214.6272764976 DL=  5.51e-05 (AVERGE_DL)=    0.0006003802 
ITERATION  24 : L=  214.6273132539 DL=  3.68e-05 (AVERGE_DL)=    0.0004901398 
ITERATION  25 : L=  214.6273377096 DL=  2.45e-05 (AVERGE_DL)=    0.0003998020 
ITERATION  26 : L=  214.6273539607 DL=  1.63e-05 (AVERGE_DL)=    0.0003259081 
ITERATION  27 : L=  214.6273647504 DL=  1.08e-05 (AVERGE_DL)=    0.0002655576 
ITERATION  28 : L=  214.6273719090 DL=  7.16e-06 (AVERGE_DL)=    0.0002163063 
ITERATION  29 : L=  214.6273766555 DL=  4.75e-06 (AVERGE_DL)=    0.0001761335 
ITERATION  30 : L=  214.6273798023 DL=  3.15e-06 (AVERGE_DL)=    0.0001434131 
ITERATION  31 : L=  214.6273818871 DL=  2.08e-06 (AVERGE_DL)=    0.0001167306 
ITERATION  32 : L=  214.6273832689 DL=  1.38e-06 (AVERGE_DL)=    0.0000950336 
ITERATION  33 : L=  214.6273841839 DL=  9.15e-07 (AVERGE_DL)=    0.0000773302 
LOCALIZATION SUM CONVERGED

------------------------------------------------------
AUGMENTED HESSIAN OPTIMIZATION OF FOSTER-BOYS ORBITALS
------------------------------------------------------

Spin operator:           0
Orbital window:          10 to 27
Number of iterations:    128
Gradient tolerance:      1.000e-06
Number of pairs:         153
Davidson threshold:      2000
Diagonalization method:  LAPACK
Iter:    0   L: 214.6273841839   Grad. norm: 1.483124e-03
   *** Likely close to a maximum now. ***
       Augmented Hessian eigenvalues:  3.60e-06 -1.52e-01 -2.02e-01 -6.95e-01 ... 
Iter:    1   L: 214.6273859850   Grad. norm: 1.225804e-05
Iter:    2   L: 214.6273859851   Grad. norm: 1.147883e-12
LOCALIZATION HAS CONVERGED.

Eigenvalues of the Hessian:
  0 -1.516e-01
  1 -2.025e-01
  2 -6.949e-01
  3 -7.316e-01
  4 -7.327e-01
  5 -7.718e-01
  6 -3.970e+00
  7 -4.002e+00
  8 -4.121e+00
  9 -4.133e+00
    ...


------------------------------------------------------------------------------- 
                    LOCALIZED MOLECULAR ORBITAL COMPOSITIONS                   
------------------------------------------------------------------------------- 

The Mulliken populations for each LMO on each atom are computed
The LMO`s will be ordered according to atom index and type
  (A) Strongly localized MO`s have populations of >=0.950 on one atom
  (B) Two center bond orbitals have populations of >=0.850 on two atoms
  (C) Other MO`s are considered to be `delocalized`

FOUND  -   0 strongly local MO`s
       -  18 two center bond MO`s
       -   0 significantly delocalized MO`s

Bond-like localized orbitals:
MO  27:  11H  -   0.463017  and   1C  -   0.536368
MO  26:  10H  -   0.450337  and   0C  -   0.550538
MO  25:   9H  -   0.473149  and   0C  -   0.529858
MO  24:   8H  -   0.470735  and   4C  -   0.530789
MO  23:   7H  -   0.468723  and   4C  -   0.533262
MO  22:   6H  -   0.454794  and   4C  -   0.545494
MO  21:   5O  -   0.553452  and   2S  -   0.449402
MO  20:   5O  -   0.910762  and   2S  -   0.091950
MO  19:   5O  -   0.930648  and   2S  -   0.068734
MO  18:   5O  -   0.923693  and   2S  -   0.075853
MO  17:   4C  -   0.500334  and   2S  -   0.543928
MO  16:   3O  -   0.557661  and   2S  -   0.442928
MO  15:   3O  -   0.911719  and   2S  -   0.090348
MO  14:   3O  -   0.927237  and   2S  -   0.072301
MO  13:   3O  -   0.923209  and   2S  -   0.077014
MO  12:   2S  -   0.499945  and   1C  -   0.550814
MO  11:   1C  -   0.542356  and   0C  -   0.457452
MO  10:   1C  -   0.550004  and   0C  -   0.450672
Localized MO's were stored in: Me_vinyl_sulfone_gauche.proc0.loc

Localizing the core orbitals
------------------------------------------------------------------------------
                           ORCA ORBITAL LOCALIZATION
------------------------------------------------------------------------------

Input orbitals are from                  ... Me_vinyl_sulfone_gauche.proc0.loc
Output orbitals are to                   ... Me_vinyl_sulfone_gauche.proc0.loc
Max. number of iterations                ... 128
Localizations seeded randomly            ... off
Convergence tolerance                    ... 1.000e-06
Using relative localization threshhold   ... 1.000e-08
Treshold for strong local MOs            ... 9.500e-01
Treshold for bond MOs                    ... 8.500e-01
Operator                                 ... 0
Orbital range for localization           ... 0 to 9
Localization criterion                   ... FOSTER-BOYS (AUGMENTED HESSIAN)
Doing the dipole integrals     ... o.k.
Initial value of the localization sum :    62.279794
ITERATION   0 : L=   62.4799863575 DL=  2.00e-01 (AVERGE_DL)=    0.0666987262 
ITERATION   1 : L=   62.4860157253 DL=  6.03e-03 (AVERGE_DL)=    0.0115752301 
ITERATION   2 : L=   62.4863965157 DL=  3.81e-04 (AVERGE_DL)=    0.0029089534 
ITERATION   3 : L=   62.4864190245 DL=  2.25e-05 (AVERGE_DL)=    0.0007072437 
ITERATION   4 : L=   62.4864208803 DL=  1.86e-06 (AVERGE_DL)=    0.0002030804 
ITERATION   5 : L=   62.4864210359 DL=  1.56e-07 (AVERGE_DL)=    0.0000587972 
LOCALIZATION SUM CONVERGED

------------------------------------------------------
AUGMENTED HESSIAN OPTIMIZATION OF FOSTER-BOYS ORBITALS
------------------------------------------------------

Spin operator:           0
Orbital window:          0 to 9
Number of iterations:    128
Gradient tolerance:      1.000e-06
Number of pairs:         45
Davidson threshold:      2000
Diagonalization method:  LAPACK
Iter:    0   L: 62.4864210359   Grad. norm: 2.936010e-04
Iter:    1   L: 62.4864426496   Grad. norm: 1.726876e-04
Iter:    2   L: 62.4864482971   Grad. norm: 9.989461e-06
   *** Likely close to a maximum now. ***
       Augmented Hessian eigenvalues:  3.73e-08 -2.67e-04 -4.47e-04 -6.26e-04 ... 
Iter:    3   L: 62.4864483157   Grad. norm: 2.585638e-08
LOCALIZATION HAS CONVERGED.

Eigenvalues of the Hessian:
  0 -2.674e-04
  1 -4.467e-04
  2 -6.257e-04
  3 -1.376e-01
  4 -1.378e-01
  5 -1.380e-01
  6 -4.131e-01
  7 -5.505e-01
  8 -5.511e-01
  9 -5.519e-01
    ...


------------------------------------------------------------------------------- 
                    LOCALIZED MOLECULAR ORBITAL COMPOSITIONS                   
------------------------------------------------------------------------------- 

The Mulliken populations for each LMO on each atom are computed
The LMO`s will be ordered according to atom index and type
  (A) Strongly localized MO`s have populations of >=0.950 on one atom
  (B) Two center bond orbitals have populations of >=0.850 on two atoms
  (C) Other MO`s are considered to be `delocalized`

FOUND  -  10 strongly local MO`s
       -   0 two center bond MO`s
       -   0 significantly delocalized MO`s

Rather strongly localized orbitals:
MO   9:   5O  -   0.999650
MO   8:   4C  -   0.999617
MO   7:   3O  -   0.999641
MO   6:   2S  -   0.999417
MO   5:   2S  -   0.999408
MO   4:   2S  -   0.999357
MO   3:   2S  -   0.999994
MO   2:   2S  -   0.999379
MO   1:   1C  -   0.999460
MO   0:   0C  -   0.999696
Localized MO's were stored in: Me_vinyl_sulfone_gauche.proc0.loc

Warning: internal orbitals are localized - no re-canonicalization of internal orbitals

--------------------------
CLOSED-SHELL FOCK OPERATOR
--------------------------

RI-JK section for the Fock operator:
  RHF full Fock operator         ... done
  RHF frozen core Fock operator  ... done
Time needed for Fock operator              ...            0.974 sec
Reference energy                           ...   -664.243467742

--------------
DLPNO SETTINGS (2015 fully linear scaling implementation)
--------------

TCutMKN:           1.000e-03
TCutPAO:           1.000e-03
TCutPNO:           1.000e-07
TCutPNOSingles:    3.000e-09
TCutEN:            9.700e-01
TCutPAOExt:        1.000e-01
TCutPairs:         1.000e-05
TCutPre:           1.000e-07
TCutOSV:           1.000e-06
TCutDOij:          1.000e-05
TCutDO:            5.000e-03
TCutC:             1.000e-04
TCutCPAO:          1.000e-03
TCutCMO:           1.000e-03
TScaleDOMP2PreScr: 2.000e+00
TScaleMKNMP2PreScr:1.000e+01
TScalePNOMP2PreScr:1.000e+00
PAO overlap thresh 1.000e-08
Using PNOs for Singles Fock computation
Use new domains
Use fully linear algorithm
TCutTNO:           1.000e-09
TCutMP2Pairs:      1.000e-06
TCutDOStrong:      2.000e-03
TCutMKNStrong:     1.000e-02
TCutMKNWeak:       1.000e-01
TCutDOWeak:        4.000e-03
NTCutTNO:          1

--------------------------
Calculating differential overlap integrals ... ok
--------------------------
ELECTRON PAIR PRESCREENING
--------------------------

Dipole-based pair screening          .... used

   TCutDOij = 1.000000e-05
   TCutPre  = 1.000000e-07
   .... Finished loop over pairs
Total time spent in the prescreening                  ...     0.000 sec
sum of pair energies estimated for screened out pairs ...       0.000000000000 Eh
Thresholds for map construction and integral transformation for crude MP2:
   TCutMKN                    ...     1.0e-02
   TCutDO                     ...     1.0e-02
   TCutPairs                  ...     1.0e-05
   TCutPNO_CrudeMP2           ...     1.0e-07
   TCutPNOSingles_CrudeMP2    ...     3.0e-09
--------------------------------
LOCAL RI TRANSFORMATION (IAVPAO)
--------------------------------

Orbital window:      10 to 27
Number of PAOs:     118
Basis functions:    118 (56 shells)
Aux. functions:     440 (150 shells)

Processing maps (0.0 sec)
Average map sizes:
   Aux shells -> MOs              18.0
   Aux shells -> PAOs            118.0
   MOs        -> AO shells        55.7
   PAOs       -> AO shells        56.0

Calculating integrals (0.4 sec, 7.135 MB)
Sorting integrals (0.0 sec, 7.130 MB)
Total time for the integral transformation: 0.4 sec
--------------------------------
INITIAL GUESS AND PNO GENERATION
--------------------------------

PNO truncation parameters                   .... 
    PAOOverlapThresh   =        1.000e-08

    TCutPairs          =        1.000e-05
    TCutPNO            =        1.000e-07
    TCutPNOSingles     =        3.000e-09
    TCutMP2Pairs       =        1.000e-06
    TCutMKN            =        1.000e-02
    TCutDO             =        1.000e-02

Pair selection                          .... not used
Type of local MP2 treatment                 .... semi-local MP2
Strategy for PNO selection                  .... occupation number selection
Pair density normalization                  .... MP2 norm
Spin component scaling                      .... not used

   .... Finished loop over pairs
Making pair pair interaction lists          ... done

                       ===========================
                        171 OF  171 PAIRS ARE KEPT CCSD PAIRS
                          0 OF  171 PAIRS ARE KEPT MP2 PAIRS FOR (T)
                          0 OF  171 PAIRS ARE SKIPPED
                       ===========================

Total time spent in the initial guess                 ...     0.278 sec
SL-MP2 correlation energy (all non-screened pairs)    ...      -0.880141980888 Eh

Initial PNO correlation energy                        ...      -0.879815987017 Eh
sum of pair energies prescreened and skipped MP2 pairs...       0.000000000000 Eh
sum of pair energies of crude MP2 skipped pairs only  ...       0.000000000000 Eh
sum of MP2 pair energies for pairs that were not kept ...       0.000000000000 Eh
sum of PNO error estimates for the kept pairs         ...      -0.000325993871 Eh
                                                          --------------------
sum of all corrections                                         -0.000325993871
Initial total correlation energy                               -0.880141980888
Thresholds for map construction and integral transformation for fine MP2 and CCSD(T) calculation:
   TCutMKN   ...     1.0e-03
   TCutDO    ...     5.0e-03
   TCutPairs ...     1.0e-05
   TCutCMO   ...     1.0e-03
   TCutCPAO  ...     1.0e-03

Thresholds for map construction and integral transformation for strong Triples:
   TCutMKN   ...     1.0e-02
   TCutDO    ...     1.0e-02
   TCutCMO   ...     1.0e-03
   TCutCPAO  ...     1.0e-03

Thresholds for map construction and integral transformation for weak Triples:
   TCutMKN   ...     1.0e-01
   TCutDO    ...     2.0e-02
   TCutCMO   ...     1.0e-03
   TCutCPAO  ...     1.0e-03

--------------------------------
LOCAL RI TRANSFORMATION (IAVPAO)
--------------------------------

Orbital window:      10 to 27
Number of PAOs:     118
Basis functions:    118 (56 shells)
Aux. functions:     440 (150 shells)

Processing maps (0.0 sec)
Average map sizes:
   Aux shells -> MOs              18.0
   Aux shells -> PAOs            118.0
   MOs        -> AO shells        55.7
   PAOs       -> AO shells        56.0

Calculating integrals (0.4 sec, 7.135 MB)
Sorting integrals (0.0 sec, 7.130 MB)
Total time for the integral transformation: 0.4 sec
--------------------------------
INITIAL GUESS AND PNO GENERATION
--------------------------------

PNO truncation parameters                   .... 
    ScaleTCutPNO       =        1.000e-02
    PAOOverlapThresh   =        1.000e-08

    TCutPairs          =        1.000e-05
    TCutPNO            =        1.000e-07
    TCutPNOSingles     =        3.000e-09
    TCutMP2Pairs       =        1.000e-06
    TCutMKN            =        1.000e-03
    TCutDO             =        5.000e-03

Pair selection                          .... not used
Type of local MP2 treatment                 .... full local PMP2
Strategy for PNO selection                  .... occupation number selection
Pair density normalization                  .... MP2 norm
Spin component scaling                      .... not used

PASS-1: Formation of initial guess LMP2 amplitudes
Initial amplitudes guess done. Entering LMP2 iteration loop:
   Max. no of iterations          ...  50
   Energy convergence tolerance   ...    1.0e-07
   Residual convergence tolerance ...    5.0e-07
   Fock matrix cutoff             ...    1.0e-05 Eh
   DIIS convergence acceleration parameters:
        Max # vectors in DIIS     ... 7
        Start iteration of DIIS   ... 0
        Levelshift                ... 2.000e-01
        Damping factor 1          ... 5.000e-01
        Damping factor 2          ... 1.000e+00
   L-MP2 PNO cut-off              ...   1.0e-09
   L-MP2 PNO cut-off (core)       ...   1.0e-11
                           *** Turning on DIIS ***
LMP2-Iter=   0:  ELMP2= -0.908906978025  DE=   2.8e-02 RMAX=   1.7e-02
LMP2-Iter=   1:  ELMP2= -0.922412106790  DE=   1.4e-02 RMAX=   7.0e-03
LMP2-Iter=   2:  ELMP2= -0.925133036766  DE=   2.7e-03 RMAX=   2.6e-03
LMP2-Iter=   3:  ELMP2= -0.925493121331  DE=   3.6e-04 RMAX=   7.8e-04
LMP2-Iter=   4:  ELMP2= -0.925511665466  DE=   1.9e-05 RMAX=   2.1e-04
LMP2-Iter=   5:  ELMP2= -0.925505267672  DE=   6.4e-06 RMAX=   5.0e-05
LMP2-Iter=   6:  ELMP2= -0.925504488166  DE=   7.8e-07 RMAX=   1.1e-05
LMP2-Iter=   7:  ELMP2= -0.925504354367  DE=   1.3e-07 RMAX=   1.9e-06
LMP2-Iter=   8:  ELMP2= -0.925504383699  DE=   2.9e-08 RMAX=   2.6e-07
LMP2-Iter=   9:  ELMP2= -0.925504385949  DE=   2.2e-09 RMAX=   5.3e-08 => CONVERGED
PASS-2: Formation of Pair natural orbitals
   .... Finished loop over pairs

 PNO Occupation Number Statistics: 
  | Av. % of trace(Dij) retained        ...  99.741266882801
  | sigma^2 in % of trace(Dij) retained ...   1.50e-01
  | Av. % of trace(Di) retained         ...  99.999878326524
  | sigma^2 in % of trace(Di) retained  ...   4.14e-09
 Distributions of % trace(Dij) recovered:
  |       >= 99.9  ...    79 ( 46.2 % of all pairs)
  |   [90.0, 99.0) ...    11 (  6.4 % of all pairs)
  |   [99.0, 99.9) ...    81 ( 47.4 % of all pairs)
 Distributions of % trace(Di) recovered :
  |       >= 99.9  ...    18 (100.0 % of all I-pairs )

Making pair pair interaction lists          ... done

                       ===========================
                        171 OF  171 PAIRS ARE KEPT
                       ===========================

Total time spent in the initial guess                 ...     2.815 sec
L-MP2 correlation energy (all non-screened pairs)     ...      -0.925504385949 Eh
L-MP2 PNO error correction                            ...      -0.000004311464 Eh
                                                          --------------------
Initial total L-MP2 energy (non-screened pairs)       ...      -0.925508697413 Eh

Initial PNO correlation energy                        ...      -0.925207566959 Eh
sum of pair energies estimated for screened out pairs ...       0.000000000000 Eh
sum of MP2 pair energies for pairs that were not kept ...       0.000000000000 Eh
sum of PNO error estimates for the kept pairs         ...      -0.000301130454 Eh
                                                          --------------------
sum of all corrections                                         -0.000301130454
Initial total correlation energy                               -0.925508697413
Thresholds for map construction and integral transformation for fine MP2 and CCSD(T) calculation:
   TCutMKN   ...     1.0e-03
   TCutDO    ...     5.0e-03
   TCutPairs ...     1.0e-05
   TCutCMO   ...     1.0e-03
   TCutCPAO  ...     1.0e-03

Time for aux screen maps:            0.001
Time for maps after fine MP2:            0.005
-----------------------------
LOCAL RI TRANSFORMATION (IJV)
-----------------------------

Orbital window:      10 to 27
Basis functions:    118 (56 shells)
Aux. functions:     440 (150 shells)

Processing maps (0.0 sec)
Average map sizes:
   Aux shells -> MOs(i)           18.0
   Aux shells -> MOs(j)           18.0
   MOs        -> AO shells        55.7

Calculating integrals (0.4 sec, 1.093 MB)
Sorting integrals (0.0 sec, 1.088 MB)
Total time for the integral transformation: 0.4 sec
--------------------------------
LOCAL RI TRANSFORMATION (VABPAO)
--------------------------------

Number of PAOs:     118
Basis functions:    118 (56 shells)
Aux. functions:     440 (150 shells)

Processing maps (0.0 sec)
Average map sizes:
   Aux shells -> PAOs            118.0
   PAOs       -> AO shells        56.0

Calculating integrals (0.4 sec, 82.657 MB)
Finished


-------------------------------------
Pair Pair Term precalculation with     
RI-(ij|mn) and (im|jn) transformation  
ON THE FLY                             
-------------------------------------

   IBatch   1 (of   1)              ... done (   11.471 sec)
Total EXT                           ...          11.471 sec

---------------------
RI-PNO TRANSFORMATION
---------------------

Total Number of PNOs                   ...  4714
Average number of PNOs per pair        ...    27
Maximal number of PNOs per pair        ...    45
   #pairs with  1 -  5 PNOs   :    0
   #pairs with  6 - 10 PNOs   :    3
   #pairs with 11 - 15 PNOs   :    5
   #pairs with 16 - 20 PNOs   :   13
   #pairs with 21 - 25 PNOs   :   42
   #pairs with 26 - 30 PNOs   :   54
   #pairs with 31 - 35 PNOs   :   32
   #pairs with 36 - 40 PNOs   :   19
   #pairs with 41 - 45 PNOs   :    3
   #pairs with 46 - 50 PNOs   :    0

Generation of (ij|ab)[P] integrals            ... on
Generation of (ia|bc)[P],(ja|bc)[P] integrals ... on
Storage of 3 and 4 external integrals         ... on
Generation of ALL (ka|bc)[P] integrals        ... on
Keep RI integrals in memory                   ... off

Ibatch:  1 (of  1)
Starting 2-4 index PNO integral generation ... done

Timings:
Total PNO integral transformation time     ...          2.988 sec
Size of the 3-external file                ...        33 MB
Size of the 4-external file                ...       135 MB
Size of the IKJL file                      ...         0 MB
Size of the all 3-external file            ...       297 MB
Size of the 1-external file                ...         1 MB

Making pair/pair overlap matrices          ... done (    0.522 sec)
Size of the pair overlap file              ... 111 MB
Redoing the guess amplitudes               ... done (    0.001 sec)

-------------------------
FINAL STARTUP INFORMATION
-------------------------

E(0)                                       ...   -664.243467742
E(L-MP2)                                   ...     -0.925508697
E(L-MP2) including corrections             ...     -0.925508697
Initial E(tot)                             ...   -665.168976439
<T|T>                                      ...      0.267381778
Number of pairs included                   ... 171
Total number of pairs                      ... 171

------------------------------------------------
                  RHF COUPLED CLUSTER ITERATIONS
------------------------------------------------

Number of PNO amplitudes to be optimized   ...       137474
Number of non-PNO amplitudes               ...      1385100
Untruncated number of regular amplitudes   ...      1385100

Iter       E(tot)           E(Corr)          Delta-E          Residual     Time
  0   -665.123972581     -0.880203708      0.045304989      0.019565277    2.18
                           *** Turning on DIIS ***
  1   -665.171088555     -0.927319683     -0.047115974      0.012731791    2.19
  2   -665.200724398     -0.956955526     -0.029635843      0.007667337    2.19
  3   -665.207461239     -0.963692367     -0.006736841      0.004393162   13.26
  4   -665.209963752     -0.966194880     -0.002502513      0.002280590    2.47
  5   -665.210990050     -0.967221178     -0.001026297      0.000910327    2.47
  6   -665.211207168     -0.967438295     -0.000217118      0.000286243    2.32
  7   -665.211247094     -0.967478222     -0.000039927      0.000123745    2.14
  8   -665.211253744     -0.967484871     -0.000006649      0.000060403    2.24
  9   -665.211252535     -0.967483663      0.000001208      0.000027266    2.39
 10   -665.211253549     -0.967484677     -0.000001013      0.000011681    2.21
 11   -665.211253325     -0.967484453      0.000000224      0.000004500    2.23
               --- The Coupled-Cluster iterations have converged ---

----------------------
COUPLED CLUSTER ENERGY
----------------------

E(0)                                       ...   -664.243467742
E(CORR)(strong-pairs)                      ...     -0.967484453
E(CORR)(weak-pairs)                        ...     -0.000301130
E(CORR)(corrected)                         ...     -0.967785583
E(TOT)                                     ...   -665.211253325
Singles Norm <S|S>**1/2                    ...      0.098437879  
T1 diagnostic                              ...      0.016406313  

------------------
LARGEST AMPLITUDES
------------------
  11-> 28  11-> 28       0.066285
  10-> 28  10-> 28       0.066132
  11-> 28  10-> 28       0.059516
  12-> 29  12-> 29       0.043014
  23-> 37  23-> 37       0.042046
  24-> 37  24-> 37       0.040428
  17-> 28  17-> 28       0.034615
  25-> 29  25-> 29       0.034584
  24-> 28  24-> 28       0.034317
  23-> 28  23-> 28       0.034275
  27-> 29  27-> 29       0.033591
  16-> 28  16-> 28       0.032670
  26-> 29  26-> 29       0.032498
  23-> 37  23-> 28       0.031335
  23-> 28  23-> 37       0.031335
  24-> 28  24-> 37       0.030164


-------------------------------------------
DLPNO BASED TRIPLES CORRECTION
-------------------------------------------

Singles multiplier          ...  1.000000
TCutTNO                     ... 1.000e-09
TCutMP2Pairs                ... 1.000e-06
TCutDOStrong                ... 1.000e-02
TCutMKNStrong               ... 1.000e-02
TCutDOWeak                  ... 2.000e-02
TCutMKNWeak                 ... 1.000e-01

Fragment selection                          .... not used
Number of Triples that are to be computed   ...      1122

 . . . . . . . . .
10% done  
20% done  
30% done  
40% done  
50% done  
60% done  
70% done  
80% done  
90% done               (     20.586 sec)
Triples timings:
Total time for T0               ...    21.973 sec
Total time for Iterative (T)    ...     0.000 sec
Total time of overall (T)       ...    22.670 sec

Triples List generation         ...     0.000 sec
TNO generation                  ...     1.384 sec
Pair density generation         ...     0.002 sec
Look up tables                  ...     0.000 sec
Generating 3-index integrals    ...     9.679 sec
  Make 4-ind.int. from 3-ind.int...     4.386 sec
  Projecting amplitudes (D + S) ...     1.942 sec
  Downprojecting integrals      ...     0.001 sec
  Energy contr. (sum over a,b,c)...     1.389 sec
Fitting ET(->0)                 ...     0.000 sec

Everything after 3-index        ...    10.907 sec

Timing details:
 TNO integrals                  ...    13.418 sec
   Reading 3-index integrals    ...     0.019 sec
   Sorting integrals            ...     2.665 sec
       Sorting integrals 1      ...     0.001 sec
       Sorting integrals 2      ...     0.813 sec
       Sorting integrals 3      ...     0.151 sec
       Sorting integrals 4      ...     0.019 sec
       Sorting integrals 5      ...     0.042 sec
       Sorting integrals 6      ...     1.640 sec
   Calculating local VM**-1/2   ...     0.160 sec
   Orthogonal. integrals        ...     0.299 sec
   Multipl. 3-index integrals   ...    10.275 sec
   All concerning IRIab (w/TNO) ...     2.098 sec

 Calculate W0/W1                ...     3.183 sec
 W 3-ext contribution           ...     1.738 sec
 W 3-int contribution           ...     0.599 sec
 Sorting W                      ...     0.771 sec

 V exchange contribution        ...     0.554 sec

 Timings for Triples without generation
     of 3-index integrals       ...    10.905 sec
       0 weak pairs             ...    10.905 sec
       1 weak pair              ...     0.000 sec
       2 weak pairs             ...     0.000 sec
       3 weak pairs             ...     0.000 sec
  Extra time for extrapolation  ...     0.000 sec

Number of Triples   (0, 1, 2, 3 weak pairs; overall):   1122       0       0       0  (  1122)
Number of Atoms     (0, 1, 2, 3 weak pairs; overall):   11.7     0.0     0.0     0.0  (    12)
Number of PAOs      (0, 1, 2, 3 weak pairs; overall):  116.6     0.0     0.0     0.0  (   118)
Number of AuxFcns   (0, 1, 2, 3 weak pairs; overall):  240.5     0.0     0.0     0.0  (   440)
Number of TNOs      (0, 1, 2, 3 weak pairs         ):   57.9     0.0     0.0     0.0
Aver. Number of NTNO, Atoms, PAOs, AuxFcns / Triples:   1122    57.9    11.7   116.6   240.5

Triples Correction (T)                     ...     -0.031360856
Final correlation energy                   ...     -0.999146439
E(CCSD)                                    ...   -665.211253325
E(CCSD(T))                                 ...   -665.242614181


Maximum memory used throughout the entire calculation: 3352.2 MB


------------------------------------------------------------------------------- 
                                     TIMINGS                                   
------------------------------------------------------------------------------- 


Total execution time                   ...       82.757 sec

Localization of occupied MO's          ...        0.440 sec (  0.5%)
Fock Matrix Formation                  ...        0.974 sec (  1.2%)
Global overlap, Fock, MKN matrices     ...        0.123 sec (  0.1%)
Differential overlap integrals         ...        0.075 sec (  0.1%)
Organizing maps                        ...        0.017 sec (  0.0%)
RI 3-index integral generations        ...        1.645 sec (  2.0%)
RI-PNO integral transformation         ...       15.099 sec ( 18.2%)
Initial Guess                          ...        3.108 sec (  3.8%)
DIIS Solver                            ...        0.483 sec (  0.6%)
State Vector Update                    ...        0.014 sec (  0.0%)
Sigma-vector construction              ...       38.145 sec ( 46.1%)
  <D|H|D>(0-ext)                       ...        2.076 sec (  5.4% of sigma)
  <D|H|D>(2-ext Fock)                  ...        0.014 sec (  0.0% of sigma)
  <D|H|D>(2-ext)                       ...        3.801 sec ( 10.0% of sigma)
  <D|H|D>(4-ext)                       ...        2.074 sec (  5.4% of sigma)
  <D|H|D>(4-ext-corr)                  ...       10.086 sec ( 26.4% of sigma)
  CCSD doubles correction              ...        0.186 sec (  0.5% of sigma)
  <S|H|S>                              ...        0.212 sec (  0.6% of sigma)
  <S|H|D>(1-ext)                       ...        0.268 sec (  0.7% of sigma)
  <D|H|S>(1-ext)                       ...        0.011 sec (  0.0% of sigma)
  <S|H|D>(3-ext)                       ...        0.158 sec (  0.4% of sigma)
  Fock-dressing                        ...       15.860 sec ( 41.6% of sigma)
  Singles amplitudes                   ...        0.200 sec (  0.5% of sigma)
  (ik|jl)-dressing                     ...        1.444 sec (  3.8% of sigma)
  (ij|ab),(ia|jb)-dressing             ...        1.582 sec (  4.1% of sigma)
  Pair energies                        ...        0.005 sec (  0.0% of sigma)
Total Time for computing (T)           ...       22.718 sec ( 27.5% of ALL)


-------------------------   --------------------
FINAL SINGLE POINT ENERGY      -665.242614180727
-------------------------   --------------------


                            ***************************************
                            *     ORCA property calculations      *
                            ***************************************

                                    ---------------------
                                    Active property flags
                                    ---------------------
   (+) Dipole Moment


------------------------------------------------------------------------------
                       ORCA ELECTRIC PROPERTIES CALCULATION
------------------------------------------------------------------------------

Dipole Moment Calculation                       ... on
Quadrupole Moment Calculation                   ... off
Polarizability Calculation                      ... off
GBWName                                         ... Me_vinyl_sulfone_gauche.gbw
Electron density file                           ... Me_vinyl_sulfone_gauche.scfp.tmp
The origin for moment calculation is the CENTER OF MASS  = (-0.042048, -0.102734  0.004921)

-------------
DIPOLE MOMENT
-------------
                                X             Y             Z
Electronic contribution:     -1.47197      -3.88795       0.01858
Nuclear contribution   :      2.35463       5.75315      -0.27550
                        -----------------------------------------
Total Dipole Moment    :      0.88266       1.86520      -0.25693
                        -----------------------------------------
Magnitude (a.u.)       :      2.07944
Magnitude (Debye)      :      5.28553



--------------------
Rotational spectrum 
--------------------
 
Rotational constants in cm-1:     0.144701     0.080997     0.080727 
Rotational constants in MHz :  4338.030671  2428.232917  2420.135398 

 Dipole components along the rotational axes: 
x,y,z [a.u.] :     0.970134     1.022139    -1.529105 
x,y,z [Debye]:     2.465885     2.598070    -3.886676 

 

Timings for individual modules:

Sum of individual times         ...       87.798 sec (=   1.463 min)
GTO integral calculation        ...        0.464 sec (=   0.008 min)   0.5 %
SCF iterations                  ...        4.368 sec (=   0.073 min)   5.0 %
MDCI module                     ...       82.966 sec (=   1.383 min)  94.5 %
                             ****ORCA TERMINATED NORMALLY****
TOTAL RUN TIME: 0 days 0 hours 1 minutes 28 seconds 49 msec
Me_vinyl_sulfone_gauche.gbw -> /home1/pantazis/klk/VDZ/Sulphur_compounds/Me_vinyl_sulfone_gauche.gbw
Me_vinyl_sulfone_gauche.ges -> /home1/pantazis/klk/VDZ/Sulphur_compounds/Me_vinyl_sulfone_gauche.ges
Me_vinyl_sulfone_gauche.job -> /home1/pantazis/klk/VDZ/Sulphur_compounds/Me_vinyl_sulfone_gauche.job
Me_vinyl_sulfone_gauche.loc -> /home1/pantazis/klk/VDZ/Sulphur_compounds/Me_vinyl_sulfone_gauche.loc
Me_vinyl_sulfone_gauche.nodes -> /home1/pantazis/klk/VDZ/Sulphur_compounds/Me_vinyl_sulfone_gauche.nodes
Me_vinyl_sulfone_gauche.prop -> /home1/pantazis/klk/VDZ/Sulphur_compounds/Me_vinyl_sulfone_gauche.prop
Me_vinyl_sulfone_gauche_property.txt -> /home1/pantazis/klk/VDZ/Sulphur_compounds/Me_vinyl_sulfone_gauche_property.txt
Me_vinyl_sulfone_gauche.xyz -> /home1/pantazis/klk/VDZ/Sulphur_compounds/Me_vinyl_sulfone_gauche.xyz
cp: cannot stat Me_vinyl_sulfone_gauche.asa.inp: No such file or directory
