! Job execution by suborca V 6.07 on ZEUS !
Job started from zeus1, running /scratch/pantazis/methyl_glycolate_sk__WrO0VV/orca/orca copied from /opt/orca on zeussn121 in /scratch/pantazis/methyl_glycolate_sk__WrO0VV
Job execution start: Sat Jun 29 11:51:36 CEST 2019
Shared library path: /scratch/pantazis/methyl_glycolate_sk__WrO0VV/orca:/opt/openmpi_1.10.2/lib:/opt/intel/mkl/lib/intel64:/opt/intel/lib/intel64:
PBS Job ID is: 158922.icqc
izeussn121
izeussn121
izeussn121
izeussn121

                                 *****************
                                 * O   R   C   A *
                                 *****************

           --- An Ab Initio, DFT and Semiempirical electronic structure package ---

                  #######################################################
                  #                        -***-                        #
                  #          Department of theory and spectroscopy      #
                  #               Directorship: Frank Neese             #
                  #        Max Planck Institute fuer Kohlenforschung    #
                  #                Kaiser Wilhelm Platz 1               #
                  #                 D-45470 Muelheim/Ruhr               #
                  #                      Germany                        #
                  #                                                     #
                  #                  All rights reserved                #
                  #                        -***-                        #
                  #######################################################


                         Program Version 4.1.x  -  STABLE  -
                                (SVN: $Rev: 14094$)
                ($Date: 2019-06-14 15:01:15 +0200 (Fri, 14 Jun 2019) $)

                         (BUILD: $Sun Jun 23 06:18:31 CEST 2019$)


 With contributions from (in alphabetic order):
   Daniel Aravena         : Magnetic Properties
   Michael Atanasov       : Ab Initio Ligand Field Theory
   Alexander A. Auer      : GIAO ZORA
   Ute Becker             : Parallelization
   Giovanni Bistoni       : ED, Open-shell LED
   Martin Brehm           : Molecular dynamics
   Dmytro Bykov           : SCF Hessian
   Vijay G. Chilkuri      : MRCI spin determinant printing
   Dipayan Datta          : RHF DLPNO-CCSD density
   Achintya Kumar Dutta   : EOM-CC, STEOM-CC
   Dmitry Ganyushin       : Spin-Orbit,Spin-Spin,Magnetic field MRCI
   Miquel Garcia          : C-PCM Hessian
   Yang Guo               : DLPNO-NEVPT2, CIM, IAO-localization
   Andreas Hansen         : Spin unrestricted coupled pair/coupled cluster methods
   Benjamin Helmich-Paris : CASSCF linear response (MC-RPA)
   Lee Huntington         : MR-EOM, pCC
   Robert Izsak           : Overlap fitted RIJCOSX, COSX-SCS-MP3, EOM
   Christian Kollmar      : KDIIS, OOCD, Brueckner-CCSD(T), CCSD density
   Simone Kossmann        : Meta GGA functionals, TD-DFT gradient, OOMP2, MP2 Hessian
   Martin Krupicka        : AUTO-CI
   Lucas Lang             : DCDCAS
   Dagmar Lenk            : GEPOL surface, SMD
   Dimitrios Liakos       : Extrapolation schemes; parallel MDCI
   Dimitrios Manganas     : ROCIS; embedding schemes
   Dimitrios Pantazis     : SARC Basis sets
   Taras Petrenko         : DFT Hessian,TD-DFT gradient, ASA, ECA, R-Raman, ABS, FL, XAS/XES, NRVS
   Peter Pinski           : DLPNO-MP2, DLPNO-MP2 Gradient
   Christoph Reimann      : Effective Core Potentials
   Marius Retegan         : Local ZFS, SOC
   Christoph Riplinger    : Optimizer, TS searches, QM/MM, DLPNO-CCSD(T), (RO)-DLPNO pert. Triples
   Tobias Risthaus        : Range-separated hybrids, TD-DFT gradient, RPA, STAB
   Michael Roemelt        : Restricted open shell CIS
   Masaaki Saitow         : Open-shell DLPNO
   Barbara Sandhoefer     : DKH picture change effects
   Avijit Sen             : IP-ROCIS
   Kantharuban Sivalingam : CASSCF convergence, NEVPT2, FIC-MRCI
   Bernardo de Souza      : ESD, SOC TD-DFT
   Georgi Stoychev        : AutoAux, RI-MP2 NMR
   Willem Van den Heuvel  : Paramagnetic NMR
   Boris Wezisla          : Elementary symmetry handling
   Frank Wennmohs         : Technical directorship


 We gratefully acknowledge several colleagues who have allowed us to
 interface, adapt or use parts of their codes:
   Stefan Grimme, W. Hujo, H. Kruse,             : VdW corrections, initial TS optimization,
                  C. Bannwarth                     DFT functionals, gCP, sTDA/sTD-DF
   Ed Valeev                                     : LibInt (2-el integral package), F12 methods
   Garnet Chan, S. Sharma, J. Yang, R. Olivares  : DMRG
   Ulf Ekstrom                                   : XCFun DFT Library
   Mihaly Kallay                                 : mrcc  (arbitrary order and MRCC methods)
   Andreas Klamt, Michael Diedenhofen            : otool_cosmo (COSMO solvation model)
   Jiri Pittner, Ondrej Demel                    : Mk-CCSD
   Frank Weinhold                                : gennbo (NPA and NBO analysis)
   Christopher J. Cramer and Donald G. Truhlar   : smd solvation model
   Lars Goerigk                                  : TD-DFT with DH, B97 family of functionals
   V. Asgeirsson, H. Jonsson                     : NEB implementation
   FAccTs GmbH                                   : IRC, NEB, NEB-TS, Multilevel


 Your calculation uses the libint2 library for the computation of 2-el integrals
 For citations please refer to: http://libint.valeyev.net

 This ORCA versions uses:
   CBLAS   interface :  Fast vector & matrix operations
   LAPACKE interface :  Fast linear algebra routines
   SCALAPACK package :  Parallel linear algebra routines




***************************************
The coordinates will be read from file: methyl_glycolate_sk.xyz
***************************************


----- Orbital basis set information -----
Your calculation utilizes the basis: cc-pVDZ 
       H, B-Ne : Obtained from the ccRepo (grant-hill.group.shef.ac.uk/ccrepo) Feb. 2017
                 T. H. Dunning, Jr., J. Chem. Phys. 90, 1007 (1989)
            He : Obtained from the ccRepo (grant-hill.group.shef.ac.uk/ccrepo) Feb. 2017
                 D. E. Woon, T. H. Dunning, Jr., J. Chem. Phys. 100, 2975 (1994)
  Li-Be, Na-Mg : Obtained from the ccRepo (grant-hill.group.shef.ac.uk/ccrepo) Feb. 2017
                 B. P. Prascher, D. E. Woon, K. A. Peterson, T. H. Dunning, Jr., A. K. Wilson, Theor. Chem. Acc. 128, 69 (2011)
         Al-Ar : Obtained from the ccRepo (grant-hill.group.shef.ac.uk/ccrepo) Feb. 2017
                 D. E. Woon, T. H. Dunning, Jr., J. Chem. Phys. 98, 1358 (1993)
            Ca : Obtained from the Peterson Research Group Website (tyr0.chem.wsu.edu/~kipeters) Feb. 2017
                 J. Koput, K. A. Peterson, J. Phys. Chem. 106, 9595 (2002)
         Sc-Zn : Obtained from the ccRepo (grant-hill.group.shef.ac.uk/ccrepo) Feb. 2017
                 N. B. Balabanov, K. A. Peterson, J. Chem. Phys. 123, 064107 (2005)
                 N. B. Balabanov, K. A. Peterson, J. Chem. Phys. 125, 074110 (2006)
         Ga-Kr : Obtained from the ccRepo (grant-hill.group.shef.ac.uk/ccrepo) Feb. 2017
                 A. K. Wilson, D. E. Woon, K. A. Peterson, T. H. Dunning, Jr., J. Chem. Phys. 110, 7667 (1999)

----- AuxC basis set information -----
Your calculation utilizes the auxiliary basis: cc-pVDZ/C 
  H-He, B, Ne, Al-Ar, Ga-Br : Obtained from the EMSL Basis Set Exchange (bse.pnl.gov) Feb. 2017
                              F. Weigend, A. Kohn, C. Hattig, J. Chem. Phys. 116, 3175 (2002)
               Li-Be, Na-Mg : Obtained from the EMSL Basis Set Exchange (bse.pnl.gov) Feb. 2017
                              C. Haettig, Phys. Chem. Chem. Phys. 7, 59 (2005)
                        C-F : Obtained from the EMSL Basis Set Exchange (bse.pnl.gov) Feb. 2017
                              C. Haettig, Phys. Chem. Chem. Phys. 7, 59 (2005)
                              F. Weigend, A. Kohn, C. Hattig, J. Chem. Phys. 116, 3175 (2002)
                         Kr : Obtained from the TURBOMOLE 7.0 basis set library
                              F. Weigend, A. Kohn, C. Hattig, J. Chem. Phys. 116, 3175 (2002)
                              S function revised in Sep. 2009

----- AuxJK basis set information -----
Your calculation utilizes the auxiliary basis: cc-pVTZ/JK 
  H, B-F, Al-Cl, Ga-Br : Obtained from the TURBOMOLE 7.0 basis set library

================================================================================
                                        WARNINGS
                       Please study these warnings very carefully!
================================================================================


WARNING: MDCI localization with Augmented Hessian Foster-Boys
  ===> : Switching off randomization!

WARNING: Post HF methods need fully converged wavefunctions
  ===> : Setting SCFConvForced true
         You can overwrite this default with %scf ConvForced false 


INFO   : the flag for use of LIBINT has been found!

================================================================================
                                       INPUT FILE
================================================================================
NAME = methyl_glycolate_sk.inp
|  1> ! RHF DLPNO-CCSD(T) cc-pVDZ RIJK cc-pVTZ/JK cc-pVDZ/C
|  2> ! KDIIS SOSCF TightSCF TightPNO
|  3> 
|  4> %pal nprocs 4 end
|  5> 
|  6> %maxcore 8000
|  7> 
|  8> %scf maxiter 300
|  9>      shift shift 0.2 erroff 0.1 end
| 10> end
| 11> 
| 12> * xyzfile 0 1 methyl_glycolate_sk.xyz 
| 13> 
| 14> 
| 15>                          ****END OF INPUT****
================================================================================

                       ****************************
                       * Single Point Calculation *
                       ****************************

---------------------------------
CARTESIAN COORDINATES (ANGSTROEM)
---------------------------------
  C      2.096940   -0.692390   -0.000000
  O      0.654690   -0.706310    0.000030
  C      0.062020    0.491920   -0.000000
  O      0.653490    1.554650   -0.000050
  C     -1.456820    0.431740    0.000060
  O     -1.942270   -0.897970   -0.000030
  H     -1.784190    0.993700    0.886470
  H     -1.784270    0.993840   -0.886210
  H     -2.907370   -0.872140   -0.000240
  H      2.393110   -1.740600    0.000140
  H      2.471290   -0.182830   -0.890880
  H      2.471350   -0.182540    0.890680

----------------------------
CARTESIAN COORDINATES (A.U.)
----------------------------
  NO LB      ZA    FRAG     MASS         X           Y           Z
   0 C     6.0000    0    12.011    3.962642   -1.308427   -0.000000
   1 O     8.0000    0    15.999    1.237185   -1.334732    0.000057
   2 C     6.0000    0    12.011    0.117201    0.929594   -0.000000
   3 O     8.0000    0    15.999    1.234917    2.937863   -0.000094
   4 C     6.0000    0    12.011   -2.752991    0.815870    0.000113
   5 O     8.0000    0    15.999   -3.670358   -1.696917   -0.000057
   6 H     1.0000    0     1.008   -3.371630    1.877821    1.675186
   7 H     1.0000    0     1.008   -3.371782    1.878085   -1.674694
   8 H     1.0000    0     1.008   -5.494133   -1.648106   -0.000454
   9 H     1.0000    0     1.008    4.522323   -3.289257    0.000265
  10 H     1.0000    0     1.008    4.670061   -0.345499   -1.683519
  11 H     1.0000    0     1.008    4.670175   -0.344951    1.683141

--------------------------------
INTERNAL COORDINATES (ANGSTROEM)
--------------------------------
 C      0   0   0     0.000000000000     0.00000000     0.00000000
 O      1   0   0     1.442317173787     0.00000000     0.00000000
 C      2   1   0     1.336792004277   115.76499858     0.00000000
 O      3   2   1     1.216236743525   124.58358471     0.00000000
 C      3   2   1     1.520031769931   114.04897037   180.00110648
 O      5   3   2     1.415553034930   112.32511274     0.00000000
 H      5   3   2     1.099405678810   106.10099253   122.94512259
 H      5   3   2     1.099388205049   106.10149525   237.04011074
 H      6   5   3     0.965445618872   108.52300512   180.01586394
 H      1   2   3     1.089247856367   105.22457286   179.99404661
 H      1   2   3     1.092454342524   110.31440398   299.59410448
 H      1   2   3     1.092447130529   110.31598353    60.39073941

---------------------------
INTERNAL COORDINATES (A.U.)
---------------------------
 C      0   0   0     0.000000000000     0.00000000     0.00000000
 O      1   0   0     2.725584456708     0.00000000     0.00000000
 C      2   1   0     2.526170786100   115.76499858     0.00000000
 O      3   2   1     2.298354359274   124.58358471     0.00000000
 C      3   2   1     2.872443760029   114.04897037   180.00110648
 O      5   3   2     2.675007564059   112.32511274     0.00000000
 H      5   3   2     2.077575643029   106.10099253   122.94512259
 H      5   3   2     2.077542622405   106.10149525   237.04011074
 H      6   5   3     1.824427816863   108.52300512   180.01586394
 H      1   2   3     2.058380140494   105.22457286   179.99404661
 H      1   2   3     2.064439521184   110.31440398   299.59410448
 H      1   2   3     2.064425892487   110.31598353    60.39073941

---------------------
BASIS SET INFORMATION
---------------------
There are 3 groups of distinct atoms

 Group   1 Type C   : 17s4p1d contracted to 3s2p1d pattern {881/31/1}
 Group   2 Type O   : 17s4p1d contracted to 3s2p1d pattern {881/31/1}
 Group   3 Type H   : 4s1p contracted to 2s1p pattern {31/1}

Atom   0C    basis set group =>   1
Atom   1O    basis set group =>   2
Atom   2C    basis set group =>   1
Atom   3O    basis set group =>   2
Atom   4C    basis set group =>   1
Atom   5O    basis set group =>   2
Atom   6H    basis set group =>   3
Atom   7H    basis set group =>   3
Atom   8H    basis set group =>   3
Atom   9H    basis set group =>   3
Atom  10H    basis set group =>   3
Atom  11H    basis set group =>   3
-------------------------------
AUXILIARY BASIS SET INFORMATION
-------------------------------
There are 3 groups of distinct atoms

 Group   1 Type C   : 7s5p4d2f contracted to 7s5p4d2f pattern {1111111/11111/1111/11}
 Group   2 Type O   : 7s5p4d2f contracted to 7s5p4d2f pattern {1111111/11111/1111/11}
 Group   3 Type H   : 3s2p1d contracted to 3s2p1d pattern {111/11/1}

Atom   0C    basis set group =>   1
Atom   1O    basis set group =>   2
Atom   2C    basis set group =>   1
Atom   3O    basis set group =>   2
Atom   4C    basis set group =>   1
Atom   5O    basis set group =>   2
Atom   6H    basis set group =>   3
Atom   7H    basis set group =>   3
Atom   8H    basis set group =>   3
Atom   9H    basis set group =>   3
Atom  10H    basis set group =>   3
Atom  11H    basis set group =>   3
-------------------------------
AUXILIARY BASIS SET INFORMATION
-------------------------------
There are 3 groups of distinct atoms

 Group   1 Type C   : 10s7p5d2f1g contracted to 10s7p5d2f1g pattern {1111111111/1111111/11111/11/1}
 Group   2 Type O   : 10s7p5d2f1g contracted to 10s7p5d2f1g pattern {1111111111/1111111/11111/11/1}
 Group   3 Type H   : 4s3p2d1f contracted to 4s3p2d1f pattern {1111/111/11/1}

Atom   0C    basis set group =>   1
Atom   1O    basis set group =>   2
Atom   2C    basis set group =>   1
Atom   3O    basis set group =>   2
Atom   4C    basis set group =>   1
Atom   5O    basis set group =>   2
Atom   6H    basis set group =>   3
Atom   7H    basis set group =>   3
Atom   8H    basis set group =>   3
Atom   9H    basis set group =>   3
Atom  10H    basis set group =>   3
Atom  11H    basis set group =>   3

Checking for AutoStart:
The File: methyl_glycolate_sk.gbw exists
Trying to determine its content:
     ... Fine, the file contains calculation information
     ... Fine, the calculation information was read
     ... Fine, the file contains a basis set
     ... Fine, the basis set was read
     ... Fine, the file contains a geometry
     ... Fine, the geometry was read
     ... Fine, the file contains a set of orbitals
     ... Fine, the orbitals can be read
     => possible old guess file was deleted
     => GBW file was renamed to GES file
     => GES file is set as startup file
     => Guess is set to MORead
     ... now leaving AutoStart



           ************************************************************
           *        Program running with 4 parallel MPI-processes     *
           *              working on a common directory               *
           ************************************************************
------------------------------------------------------------------------------
                           ORCA GTO INTEGRAL CALCULATION
                           -- RI-GTO INTEGRALS CHOSEN --
------------------------------------------------------------------------------

                         BASIS SET STATISTICS AND STARTUP INFO

Gaussian basis set:
 # of primitive gaussian shells          ...  162
 # of primitive gaussian functions       ...  246
 # of contracted shells                  ...   54
 # of contracted basis functions         ...  114
 Highest angular momentum                ...    2
 Maximum contraction depth               ...    8
Auxiliary gaussian basis set:
 # of primitive gaussian shells          ...  210
 # of primitive gaussian functions       ...  654
 # of contracted shells                  ...  210
 # of contracted aux-basis functions     ...  654
 Highest angular momentum                ...    4
 Maximum contraction depth               ...    1
Ratio of auxiliary to basis functions    ...  5.74
Integral package used                  ... LIBINT
 One Electron integrals                  ... done
 Ordering auxiliary basis shells         ... done
 Integral threshhold             Thresh  ...  2.500e-11
 Primitive cut-off               TCut    ...  2.500e-12
 Pre-screening matrix                    ... done
 Shell pair data                         ... 
 Ordering of the shell pairs             ... done (   0.000 sec) 1463 of 1485 pairs
 Determination of significant pairs      ... done (   0.000 sec)
 Creation of shell pair data             ... done (   0.001 sec)
 Storage of shell pair data              ... done (   0.005 sec)
 Shell pair data done in (   0.006 sec)
 Computing two index integrals           ... done
 Cholesky decomposition of the V-matrix  ... done


Timings:
 Total evaluation time                   ...   2.749 sec (  0.046 min)
 One electron matrix time                ...   2.481 sec (  0.041 min) = 90.3%
 Schwartz matrix evaluation time         ...   0.155 sec (  0.003 min) =  5.6%
 Two index repulsion integral time       ...   0.038 sec (  0.001 min) =  1.4%
 Cholesky decomposition of V             ...   0.043 sec (  0.001 min) =  1.6%
 Three index repulsion integral time     ...   0.000 sec (  0.000 min) =  0.0%



           ************************************************************
           *        Program running with 4 parallel MPI-processes     *
           *              working on a common directory               *
           ************************************************************
-------------------------------------------------------------------------------
                                 ORCA SCF
-------------------------------------------------------------------------------

------------
SCF SETTINGS
------------
Hamiltonian:
 Ab initio Hamiltonian  Method          .... Hartree-Fock(GTOs)
 RI-approximation to the Coulomb term is turned on
   Number of auxiliary basis functions  .... 654
   RI-JK (J+K treated both via RI)      .... on


General Settings:
 Integral files         IntName         .... methyl_glycolate_sk
 Hartree-Fock type      HFTyp           .... RHF
 Total Charge           Charge          ....    0
 Multiplicity           Mult            ....    1
 Number of Electrons    NEL             ....   48
 Basis Dimension        Dim             ....  114
 Nuclear Repulsion      ENuc            ....    246.3154210224 Eh

Convergence Acceleration:
 DIIS                   CNVDIIS         .... off
 Newton-Raphson         CNVNR           .... off
 SOSCF                  CNVSOSCF        .... on
   Start iteration      SOSCFMaxIt      ....   150
   Startup grad/error   SOSCFStart      ....  0.003300
 Level Shifting         CNVShift        .... on
   Level shift para.    LevelShift      ....    0.2000
   Turn off err/grad.   ShiftErr        ....    0.1000
 Zerner damping         CNVZerner       .... off
 Static damping         CNVDamp         .... off
 Fernandez-Rico         CNVRico         .... off

SCF Procedure:
 Maximum # iterations   MaxIter         ....   300
 SCF integral mode      SCFMode         .... Direct
   Integral package                     .... LIBINT
 Reset frequency        DirectResetFreq ....    20
 Integral Threshold     Thresh          ....  2.500e-11 Eh
 Primitive CutOff       TCut            ....  2.500e-12 Eh

Convergence Tolerance:
 Convergence Check Mode ConvCheckMode   .... Total+1el-Energy
 Convergence forced     ConvForced      .... 1
 Energy Change          TolE            ....  1.000e-08 Eh
 1-El. energy change                    ....  1.000e-05 Eh
 Orbital Gradient       TolG            ....  1.000e-05
 Orbital Rotation angle TolX            ....  1.000e-05


Diagonalization of the overlap matrix:
Smallest eigenvalue                        ... 3.273e-03
Time for diagonalization                   ...    0.005 sec
Threshold for overlap eigenvalues          ... 1.000e-08
Number of eigenvalues below threshold      ... 0
Time for construction of square roots      ...    0.018 sec
Total time needed                          ...    0.022 sec

---------------------
INITIAL GUESS: MOREAD
---------------------
Guess MOs are being read from file: methyl_glycolate_sk.ges
Input Geometry matches current geometry (good)
Atom 0: N(Shells)= 6 and 10 - projection required
Input basis set needs projection
NBasis(read)= 264
NBasis(calc)= 114
Basis set overlap was calculated
Using GuessMode=FMatrix for the initial guess
C*T matrix was formed
Effective Fockian was calculated
Effective Fockian was diagonalized
Initial density was built
                      ------------------
                      INITIAL GUESS DONE (   0.0 sec)
                      ------------------
--------------
SCF ITERATIONS
--------------
ITER       Energy         Delta-E        Max-DP      RMS-DP      [F,P]   Gradient Norm
                             ****Turning on KDIIS(Cayley)****
  0   -341.7024884223   0.000000000000 0.00249359  0.00008333  0.0039748   0.006127340
  1   -341.7026326237  -0.000144201412 0.00496515  0.00016159  0.0036379   0.005510892
                      *** Initiating the SOSCF procedure ***
                           *** Shutting down KDIIS ***
                      *** Re-Reading the Fockian *** 
                      *** Removing any level shift *** 
ITER      Energy       Delta-E        Grad      Rot      Max-DP    RMS-DP
  2   -341.70285016  -0.0002175397  0.002893  0.002893  0.008396  0.000270
  3   -341.70312890  -0.0002787343  0.001749  0.001845  0.011009  0.000366
  4   -341.70327699  -0.0001480913  0.000812  0.000410  0.002471  0.000092
  5   -341.70328990  -0.0000129092  0.000244  0.000283  0.000619  0.000031
  6   -341.70329188  -0.0000019770  0.000050  0.000116  0.000160  0.000008
  7   -341.70329205  -0.0000001795  0.000035  0.000089  0.000122  0.000004
  8   -341.70329209  -0.0000000351  0.000013  0.000013  0.000043  0.000002
  9   -341.70329209  -0.0000000051  0.000005  0.000007  0.000014  0.000001
                  ***Gradient check signals convergence***
              ***Rediagonalizing the Fockian in SOSCF/NRSCF***

               *****************************************************
               *                     SUCCESS                       *
               *           SCF CONVERGED AFTER  10 CYCLES          *
               *****************************************************


----------------
TOTAL SCF ENERGY
----------------

Total Energy       :         -341.70329210 Eh           -9298.21929 eV

Components:
Nuclear Repulsion  :          246.31542102 Eh            6702.58336 eV
Electronic Energy  :         -588.01871312 Eh          -16000.80265 eV
One Electron Energy:         -956.99964095 Eh          -26041.28414 eV
Two Electron Energy:          368.98092784 Eh           10040.48149 eV

Virial components:
Potential Energy   :         -682.98937888 Eh          -18585.08585 eV
Kinetic Energy     :          341.28608678 Eh            9286.86656 eV
Virial Ratio       :            2.00122245


---------------
SCF CONVERGENCE
---------------

  Last Energy change         ...   -7.8433e-10  Tolerance :   1.0000e-08
  Last MAX-Density change    ...    4.7811e-06  Tolerance :   1.0000e-07
  Last RMS-Density change    ...    1.7799e-07  Tolerance :   5.0000e-09
  Last Orbital Gradient      ...    1.2139e-06  Tolerance :   1.0000e-05
  Last Orbital Rotation      ...    2.6766e-06  Tolerance :   1.0000e-05

             **** THE GBW FILE WAS UPDATED (methyl_glycolate_sk.gbw) ****
             **** DENSITY FILE WAS UPDATED (methyl_glycolate_sk.scfp.tmp) ****
             **** ENERGY FILE WAS UPDATED (methyl_glycolate_sk.en.tmp) ****
----------------
ORBITAL ENERGIES
----------------

  NO   OCC          E(Eh)            E(eV) 
   0   2.0000     -20.603129      -560.6396 
   1   2.0000     -20.569319      -559.7196 
   2   2.0000     -20.542305      -558.9845 
   3   2.0000     -11.384660      -309.7924 
   4   2.0000     -11.305474      -307.6376 
   5   2.0000     -11.292888      -307.2951 
   6   2.0000      -1.459613       -39.7181 
   7   2.0000      -1.370411       -37.2908 
   8   2.0000      -1.354150       -36.8483 
   9   2.0000      -1.011783       -27.5320 
  10   2.0000      -0.942713       -25.6525 
  11   2.0000      -0.775472       -21.1017 
  12   2.0000      -0.713158       -19.4060 
  13   2.0000      -0.694516       -18.8987 
  14   2.0000      -0.680312       -18.5122 
  15   2.0000      -0.653172       -17.7737 
  16   2.0000      -0.633648       -17.2424 
  17   2.0000      -0.584665       -15.9095 
  18   2.0000      -0.537419       -14.6239 
  19   2.0000      -0.530797       -14.4437 
  20   2.0000      -0.521738       -14.1972 
  21   2.0000      -0.469053       -12.7636 
  22   2.0000      -0.445305       -12.1174 
  23   2.0000      -0.443178       -12.0595 
  24   0.0000       0.173259         4.7146 
  25   0.0000       0.178452         4.8559 
  26   0.0000       0.199749         5.4354 
  27   0.0000       0.224395         6.1061 
  28   0.0000       0.257368         7.0033 
  29   0.0000       0.262169         7.1340 
  30   0.0000       0.283041         7.7019 
  31   0.0000       0.298030         8.1098 
  32   0.0000       0.365393         9.9428 
  33   0.0000       0.426709        11.6113 
  34   0.0000       0.481113        13.0917 
  35   0.0000       0.565151        15.3785 
  36   0.0000       0.618218        16.8226 
  37   0.0000       0.654039        17.7973 
  38   0.0000       0.680413        18.5150 
  39   0.0000       0.692008        18.8305 
  40   0.0000       0.708005        19.2658 
  41   0.0000       0.758274        20.6337 
  42   0.0000       0.766896        20.8683 
  43   0.0000       0.812992        22.1226 
  44   0.0000       0.823744        22.4152 
  45   0.0000       0.840750        22.8780 
  46   0.0000       0.854262        23.2456 
  47   0.0000       0.864177        23.5154 
  48   0.0000       0.891040        24.2464 
  49   0.0000       0.895364        24.3641 
  50   0.0000       0.938662        25.5423 
  51   0.0000       0.990429        26.9509 
  52   0.0000       1.084895        29.5215 
  53   0.0000       1.105595        30.0848 
  54   0.0000       1.118627        30.4394 
  55   0.0000       1.158525        31.5251 
  56   0.0000       1.190903        32.4061 
  57   0.0000       1.256695        34.1964 
  58   0.0000       1.298123        35.3237 
  59   0.0000       1.330089        36.1936 
  60   0.0000       1.338870        36.4325 
  61   0.0000       1.400201        38.1014 
  62   0.0000       1.400904        38.1205 
  63   0.0000       1.438151        39.1341 
  64   0.0000       1.515671        41.2435 
  65   0.0000       1.533880        41.7390 
  66   0.0000       1.544005        42.0145 
  67   0.0000       1.587269        43.1918 
  68   0.0000       1.639426        44.6110 
  69   0.0000       1.658677        45.1349 
  70   0.0000       1.671961        45.4964 
  71   0.0000       1.721790        46.8523 
  72   0.0000       1.798826        48.9485 
  73   0.0000       1.842961        50.1495 
  74   0.0000       1.864715        50.7415 
  75   0.0000       1.868519        50.8450 
  76   0.0000       1.909464        51.9592 
  77   0.0000       1.958933        53.3053 
  78   0.0000       1.959543        53.3219 
  79   0.0000       1.972732        53.6808 
  80   0.0000       1.979890        53.8756 
  81   0.0000       2.052379        55.8481 
  82   0.0000       2.080551        56.6147 
  83   0.0000       2.155015        58.6409 
  84   0.0000       2.174346        59.1670 
  85   0.0000       2.218080        60.3570 
  86   0.0000       2.259839        61.4934 
  87   0.0000       2.350769        63.9677 
  88   0.0000       2.369745        64.4840 
  89   0.0000       2.378250        64.7155 
  90   0.0000       2.419999        65.8515 
  91   0.0000       2.497068        67.9487 
  92   0.0000       2.570100        69.9360 
  93   0.0000       2.591602        70.5211 
  94   0.0000       2.731038        74.3153 
  95   0.0000       2.751722        74.8782 
  96   0.0000       2.754591        74.9562 
  97   0.0000       2.780063        75.6494 
  98   0.0000       2.807160        76.3867 
  99   0.0000       2.993785        81.4650 
 100   0.0000       3.083426        83.9043 
 101   0.0000       3.229978        87.8922 
 102   0.0000       3.257569        88.6430 
 103   0.0000       3.263582        88.8066 
 104   0.0000       3.321472        90.3818 
 105   0.0000       3.383409        92.0672 
 106   0.0000       3.431499        93.3758 
 107   0.0000       3.570913        97.1695 
 108   0.0000       3.582136        97.4749 
 109   0.0000       3.593936        97.7960 
 110   0.0000       3.762302       102.3774 
 111   0.0000       3.856995       104.9542 
 112   0.0000       3.930625       106.9578 
 113   0.0000       4.109938       111.8371 

                    ********************************
                    * MULLIKEN POPULATION ANALYSIS *
                    ********************************

-----------------------
MULLIKEN ATOMIC CHARGES
-----------------------
   0 C :    0.166713
   1 O :   -0.420968
   2 C :    0.355884
   3 O :   -0.407026
   4 C :    0.230790
   5 O :   -0.362895
   6 H :    0.055251
   7 H :    0.055247
   8 H :    0.172751
   9 H :    0.054653
  10 H :    0.049797
  11 H :    0.049803
Sum of atomic charges:   -0.0000000

--------------------------------
MULLIKEN REDUCED ORBITAL CHARGES
--------------------------------
  0 C s       :     3.038868  s :     3.038868
      pz      :     1.030390  p :     2.698413
      px      :     0.644291
      py      :     1.023732
      dz2     :     0.017060  d :     0.096006
      dxz     :     0.020611
      dyz     :     0.009612
      dx2y2   :     0.033286
      dxy     :     0.015436
  1 O s       :     3.771510  s :     3.771510
      pz      :     1.791352  p :     4.630437
      px      :     1.333736
      py      :     1.505349
      dz2     :     0.002701  d :     0.019020
      dxz     :     0.001493
      dyz     :     0.002549
      dx2y2   :     0.007626
      dxy     :     0.004651
  2 C s       :     3.053707  s :     3.053707
      pz      :     0.665215  p :     2.324413
      px      :     0.915157
      py      :     0.744041
      dz2     :     0.010532  d :     0.265996
      dxz     :     0.021661
      dyz     :     0.061039
      dx2y2   :     0.099693
      dxy     :     0.073071
  3 O s       :     3.764587  s :     3.764587
      pz      :     1.452546  p :     4.621364
      px      :     1.707308
      py      :     1.461510
      dz2     :     0.002407  d :     0.021075
      dxz     :     0.001528
      dyz     :     0.005041
      dx2y2   :     0.005320
      dxy     :     0.006779
  4 C s       :     2.964772  s :     2.964772
      pz      :     1.019096  p :     2.681842
      px      :     0.914712
      py      :     0.748034
      dz2     :     0.017868  d :     0.122596
      dxz     :     0.007645
      dyz     :     0.034603
      dx2y2   :     0.038273
      dxy     :     0.024208
  5 O s       :     3.725294  s :     3.725294
      pz      :     1.923077  p :     4.622761
      px      :     1.250938
      py      :     1.448745
      dz2     :     0.002454  d :     0.014841
      dxz     :     0.000384
      dyz     :     0.001822
      dx2y2   :     0.007971
      dxy     :     0.002210
  6 H s       :     0.914823  s :     0.914823
      pz      :     0.016335  p :     0.029926
      px      :     0.005480
      py      :     0.008111
  7 H s       :     0.914827  s :     0.914827
      pz      :     0.016332  p :     0.029926
      px      :     0.005481
      py      :     0.008114
  8 H s       :     0.745390  s :     0.745390
      pz      :     0.021410  p :     0.081859
      px      :     0.047070
      py      :     0.013378
  9 H s       :     0.915641  s :     0.915641
      pz      :     0.005620  p :     0.029706
      px      :     0.003058
      py      :     0.021028
 10 H s       :     0.919634  s :     0.919634
      pz      :     0.016586  p :     0.030569
      px      :     0.004485
      py      :     0.009498
 11 H s       :     0.919627  s :     0.919627
      pz      :     0.016581  p :     0.030570
      px      :     0.004486
      py      :     0.009503


                     *******************************
                     * LOEWDIN POPULATION ANALYSIS *
                     *******************************

----------------------
LOEWDIN ATOMIC CHARGES
----------------------
   0 C :    0.050703
   1 O :    0.007920
   2 C :   -0.040289
   3 O :   -0.144013
   4 C :    0.005031
   5 O :   -0.065635
   6 H :    0.029489
   7 H :    0.029485
   8 H :    0.054812
   9 H :    0.026960
  10 H :    0.022769
  11 H :    0.022768

-------------------------------
LOEWDIN REDUCED ORBITAL CHARGES
-------------------------------
  0 C s       :     2.815422  s :     2.815422
      pz      :     1.077600  p :     2.894905
      px      :     0.743575
      py      :     1.073731
      dz2     :     0.040807  d :     0.238970
      dxz     :     0.055887
      dyz     :     0.026736
      dx2y2   :     0.075714
      dxy     :     0.039826
  1 O s       :     3.388380  s :     3.388380
      pz      :     1.716041  p :     4.571273
      px      :     1.334503
      py      :     1.520729
      dz2     :     0.004080  d :     0.032427
      dxz     :     0.003007
      dyz     :     0.002638
      dx2y2   :     0.012958
      dxy     :     0.009743
  2 C s       :     2.838283  s :     2.838283
      pz      :     0.677621  p :     2.627412
      px      :     0.999778
      py      :     0.950014
      dz2     :     0.032198  d :     0.574593
      dxz     :     0.040978
      dyz     :     0.120436
      dx2y2   :     0.220147
      dxy     :     0.160834
  3 O s       :     3.497119  s :     3.497119
      pz      :     1.416820  p :     4.614461
      px      :     1.674561
      py      :     1.523080
      dz2     :     0.004706  d :     0.032432
      dxz     :     0.001527
      dyz     :     0.005054
      dx2y2   :     0.008636
      dxy     :     0.012509
  4 C s       :     2.806905  s :     2.806905
      pz      :     1.061165  p :     2.894600
      px      :     0.987727
      py      :     0.845709
      dz2     :     0.042758  d :     0.293465
      dxz     :     0.019103
      dyz     :     0.089971
      dx2y2   :     0.092026
      dxy     :     0.049606
  5 O s       :     3.398998  s :     3.398998
      pz      :     1.853437  p :     4.640558
      px      :     1.326217
      py      :     1.460904
      dz2     :     0.004202  d :     0.026080
      dxz     :     0.000268
      dyz     :     0.002561
      dx2y2   :     0.015137
      dxy     :     0.003911
  6 H s       :     0.892199  s :     0.892199
      pz      :     0.038650  p :     0.078312
      px      :     0.017689
      py      :     0.021973
  7 H s       :     0.892200  s :     0.892200
      pz      :     0.038645  p :     0.078316
      px      :     0.017691
      py      :     0.021980
  8 H s       :     0.737663  s :     0.737663
      pz      :     0.060431  p :     0.207525
      px      :     0.106031
      py      :     0.041064
  9 H s       :     0.895940  s :     0.895940
      pz      :     0.015924  p :     0.077100
      px      :     0.011650
      py      :     0.049526
 10 H s       :     0.898826  s :     0.898826
      pz      :     0.040074  p :     0.078405
      px      :     0.014273
      py      :     0.024057
 11 H s       :     0.898824  s :     0.898824
      pz      :     0.040064  p :     0.078407
      px      :     0.014276
      py      :     0.024068


                      *****************************
                      * MAYER POPULATION ANALYSIS *
                      *****************************

  NA   - Mulliken gross atomic population
  ZA   - Total nuclear charge
  QA   - Mulliken gross atomic charge
  VA   - Mayer's total valence
  BVA  - Mayer's bonded valence
  FA   - Mayer's free valence

  ATOM       NA         ZA         QA         VA         BVA        FA
  0 C      5.8333     6.0000     0.1667     3.8830     3.8830     0.0000
  1 O      8.4210     8.0000    -0.4210     2.0943     2.0943    -0.0000
  2 C      5.6441     6.0000     0.3559     4.1972     4.1972     0.0000
  3 O      8.4070     8.0000    -0.4070     2.1121     2.1121    -0.0000
  4 C      5.7692     6.0000     0.2308     3.9862     3.9862     0.0000
  5 O      8.3629     8.0000    -0.3629     2.0246     2.0246    -0.0000
  6 H      0.9447     1.0000     0.0553     0.9717     0.9717     0.0000
  7 H      0.9448     1.0000     0.0552     0.9717     0.9717     0.0000
  8 H      0.8272     1.0000     0.1728     1.0178     1.0178    -0.0000
  9 H      0.9453     1.0000     0.0547     0.9841     0.9841    -0.0000
 10 H      0.9502     1.0000     0.0498     0.9844     0.9844    -0.0000
 11 H      0.9502     1.0000     0.0498     0.9844     0.9844    -0.0000

  Mayer bond orders larger than 0.1
B(  0-C ,  1-O ) :   0.8939 B(  0-C ,  9-H ) :   0.9916 B(  0-C , 10-H ) :   0.9866 
B(  0-C , 11-H ) :   0.9866 B(  1-O ,  2-C ) :   1.1599 B(  2-C ,  3-O ) :   2.0039 
B(  2-C ,  4-C ) :   1.0137 B(  4-C ,  5-O ) :   1.0298 B(  4-C ,  6-H ) :   0.9576 
B(  4-C ,  7-H ) :   0.9576 B(  5-O ,  8-H ) :   0.9930 

-------
TIMINGS
-------

Total SCF time: 0 days 0 hours 0 min 14 sec 

Total time                  ....      14.079 sec
Sum of individual times     ....      13.876 sec  ( 98.6%)

Fock matrix formation       ....      13.830 sec  ( 98.2%)
Diagonalization             ....       0.005 sec  (  0.0%)
Density matrix formation    ....       0.002 sec  (  0.0%)
Population analysis         ....       0.004 sec  (  0.0%)
Initial guess               ....       0.026 sec  (  0.2%)
Orbital Transformation      ....       0.000 sec  (  0.0%)
Orbital Orthonormalization  ....       0.000 sec  (  0.0%)
DIIS solution               ....       0.000 sec  (  0.0%)
SOSCF solution              ....       0.009 sec  (  0.1%)


           ************************************************************
           *        Program running with 4 parallel MPI-processes     *
           *              working on a common directory               *
           ************************************************************


------------------------------------------------------------------------------- 
                              ORCA-MATRIX DRIVEN CI                            
------------------------------------------------------------------------------- 


Wavefunction type
-----------------
Correlation treatment                      ...      CCSD     
Single excitations                         ... ON
Orbital optimization                       ... OFF
Calculation of Z vector                    ... OFF
Calculation of Brueckner orbitals          ... OFF
Perturbative triple excitations            ... ON
Calculation of F12 correction              ... OFF
Frozen core treatment                      ... chemical core (12 el)
Reference Wavefunction                     ... RHF
  Internal Orbitals:     6 ...   23 ( 18 MO's/ 36 electrons)
  Virtual  Orbitals:    24 ...  113 ( 90 MO's              )
Number of AO's                             ...    114
Number of electrons                        ...     48
Number of correlated electrons             ...     36

Algorithmic settings
--------------------
Integral transformation                    ... All integrals via the RI transformation
K(C) Formation                             ... RI-DLPNO
   PNO-Integral Storage                    ... ON DISK
   PNO occupation number cut-off           ... 1.000e-07
   Singles PNO occupation number cut-off   ... 3.000e-09
   PNO Mulliken prescreening cut-off       ... 1.000e-03
   Domain cut-off (Mulliken population)    ... 1.000e-03
   PNO Normalization                       ...    1
Maximum number of iterations               ...        50
Convergence tolerance (max. residuum)      ... 1.000e-05
Level shift for amplitude update           ... 2.000e-01
Maximum number of DIIS vectors             ...         7
DIIS turned on at iteration                ...         0
Damping before turning on DIIS             ...     0.500
Damping after turning on DIIS              ...     0.000
Pair specific amplitude update             ... OFF
Natural orbital iterations                 ... OFF
Perturbative natural orbital generation    ... OFF
Printlevel                                 ... 2

Singles Fock matrix elements calculated using PNOs.

Memory handling:
----------------
Maximum memory for working arrays          ...   8000 MB
Data storage in matrix containers          ... UNCOMPRESSED
Data type for integral storage             ... DOUBLE
In-Core Storage of quantities:
   Amplitudes+Sigma Vector      ... NO
   J+K operators                ... NO
   DIIS vectors                 ... NO
   3-external integrals         ... NO
   4-external integrals         ... NO

Localization treatment:
-----------------------
Localization option                        ...    6
Localization threshhold                    ... -1.0e+00
Using relative localization threshhold     ... 1.0e-08
Neglect threshold for strong pairs         ... 1.000e-05 Eh
Prescreening threshold for very weak pairs ... 1.000e-07 Eh

Initializing the integral package          ... done
Localizing the valence orbitals
------------------------------------------------------------------------------
                           ORCA ORBITAL LOCALIZATION
------------------------------------------------------------------------------

Input orbitals are from                  ... methyl_glycolate_sk.proc0.gbw
Output orbitals are to                   ... methyl_glycolate_sk.proc0.loc
Max. number of iterations                ... 128
Localizations seeded randomly            ... off
Convergence tolerance                    ... 1.000e-06
Using relative localization threshhold   ... 1.000e-08
Treshold for strong local MOs            ... 9.500e-01
Treshold for bond MOs                    ... 8.500e-01
Operator                                 ... 0
Orbital range for localization           ... 6 to 23
Localization criterion                   ... FOSTER-BOYS (AUGMENTED HESSIAN)
Doing the dipole integrals     ... o.k.
Initial value of the localization sum :   198.464854
ITERATION   0 : L=  214.2704765373 DL=  1.58e+01 (AVERGE_DL)=    0.3214105170 
ITERATION   1 : L=  217.0663164879 DL=  2.80e+00 (AVERGE_DL)=    0.1351793761 
ITERATION   2 : L=  217.1398240886 DL=  7.35e-02 (AVERGE_DL)=    0.0219189834 
ITERATION   3 : L=  217.1467813978 DL=  6.96e-03 (AVERGE_DL)=    0.0067433381 
ITERATION   4 : L=  217.1492788856 DL=  2.50e-03 (AVERGE_DL)=    0.0040402289 
ITERATION   5 : L=  217.1507063348 DL=  1.43e-03 (AVERGE_DL)=    0.0030544612 
ITERATION   6 : L=  217.1516514287 DL=  9.45e-04 (AVERGE_DL)=    0.0024853742 
ITERATION   7 : L=  217.1523044754 DL=  6.53e-04 (AVERGE_DL)=    0.0020659813 
ITERATION   8 : L=  217.1527647871 DL=  4.60e-04 (AVERGE_DL)=    0.0017345239 
ITERATION   9 : L=  217.1530934151 DL=  3.29e-04 (AVERGE_DL)=    0.0014655701 
ITERATION  10 : L=  217.1533301911 DL=  2.37e-04 (AVERGE_DL)=    0.0012440077 
ITERATION  11 : L=  217.1535019507 DL=  1.72e-04 (AVERGE_DL)=    0.0010595338 
ITERATION  12 : L=  217.1536271782 DL=  1.25e-04 (AVERGE_DL)=    0.0009046991 
ITERATION  13 : L=  217.1537188245 DL=  9.16e-05 (AVERGE_DL)=    0.0007739479 
ITERATION  14 : L=  217.1537860864 DL=  6.73e-05 (AVERGE_DL)=    0.0006630391 
ITERATION  15 : L=  217.1538355516 DL=  4.95e-05 (AVERGE_DL)=    0.0005685960 
ITERATION  16 : L=  217.1538719958 DL=  3.64e-05 (AVERGE_DL)=    0.0004880553 
ITERATION  17 : L=  217.1538988723 DL=  2.69e-05 (AVERGE_DL)=    0.0004191217 
ITERATION  18 : L=  217.1539187131 DL=  1.98e-05 (AVERGE_DL)=    0.0003601088 
ITERATION  19 : L=  217.1539333695 DL=  1.47e-05 (AVERGE_DL)=    0.0003095054 
ITERATION  20 : L=  217.1539442026 DL=  1.08e-05 (AVERGE_DL)=    0.0002660918 
ITERATION  21 : L=  217.1539522127 DL=  8.01e-06 (AVERGE_DL)=    0.0002288090 
ITERATION  22 : L=  217.1539581369 DL=  5.92e-06 (AVERGE_DL)=    0.0001967746 
ITERATION  23 : L=  217.1539625202 DL=  4.38e-06 (AVERGE_DL)=    0.0001692602 
ITERATION  24 : L=  217.1539657631 DL=  3.24e-06 (AVERGE_DL)=    0.0001455851 
ITERATION  25 : L=  217.1539681627 DL=  2.40e-06 (AVERGE_DL)=    0.0001252349 
ITERATION  26 : L=  217.1539699394 DL=  1.78e-06 (AVERGE_DL)=    0.0001077616 
ITERATION  27 : L=  217.1539712540 DL=  1.31e-06 (AVERGE_DL)=    0.0000926938 
ITERATION  28 : L=  217.1539722274 DL=  9.73e-07 (AVERGE_DL)=    0.0000797620 
LOCALIZATION SUM CONVERGED

------------------------------------------------------
AUGMENTED HESSIAN OPTIMIZATION OF FOSTER-BOYS ORBITALS
------------------------------------------------------

Spin operator:           0
Orbital window:          6 to 23
Number of iterations:    128
Gradient tolerance:      1.000e-06
Number of pairs:         153
Davidson threshold:      2000
Diagonalization method:  LAPACK
Iter:    0   L: 217.1539722274   Grad. norm: 1.825336e-03
   *** Likely close to a maximum now. ***
       Augmented Hessian eigenvalues:  5.56e-06 -1.43e-01 -1.28e+00 -1.40e+00 ... 
Iter:    1   L: 217.1539750070   Grad. norm: 3.047244e-05
Iter:    2   L: 217.1539750070   Grad. norm: 8.395615e-11
LOCALIZATION HAS CONVERGED.

Eigenvalues of the Hessian:
  0 -1.433e-01
  1 -1.276e+00
  2 -1.401e+00
  3 -1.845e+00
  4 -2.170e+00
  5 -2.805e+00
  6 -3.616e+00
  7 -4.624e+00
  8 -4.898e+00
  9 -5.128e+00
    ...


------------------------------------------------------------------------------- 
                    LOCALIZED MOLECULAR ORBITAL COMPOSITIONS                   
------------------------------------------------------------------------------- 

The Mulliken populations for each LMO on each atom are computed
The LMO`s will be ordered according to atom index and type
  (A) Strongly localized MO`s have populations of >=0.950 on one atom
  (B) Two center bond orbitals have populations of >=0.850 on two atoms
  (C) Other MO`s are considered to be `delocalized`

FOUND  -   3 strongly local MO`s
       -  15 two center bond MO`s
       -   0 significantly delocalized MO`s

Rather strongly localized orbitals:
MO   8:   5O  -   0.986808
MO   7:   5O  -   0.986812
MO   6:   3O  -   0.951138
Bond-like localized orbitals:
MO  23:  11H  -   0.487354  and   0C  -   0.531243
MO  22:  10H  -   0.487359  and   0C  -   0.531238
MO  21:   9H  -   0.484758  and   0C  -   0.530147
MO  20:   8H  -   0.414039  and   5O  -   0.583132
MO  19:   7H  -   0.489123  and   4C  -   0.519165
MO  18:   6H  -   0.489121  and   4C  -   0.519165
MO  17:   5O  -   0.647372  and   4C  -   0.359003
MO  16:   4C  -   0.468150  and   2C  -   0.575430
MO  15:   3O  -   0.946648  and   2C  -   0.046212
MO  14:   3O  -   0.660064  and   2C  -   0.349127
MO  13:   3O  -   0.660063  and   2C  -   0.349127
MO  12:   2C  -   0.363571  and   1O  -   0.656988
MO  11:   1O  -   0.948501  and   0C  -   0.004143
MO  10:   1O  -   0.696915  and   0C  -   0.321789
MO   9:   1O  -   0.948503  and   0C  -   0.004144
Localized MO's were stored in: methyl_glycolate_sk.proc0.loc

Localizing the core orbitals
------------------------------------------------------------------------------
                           ORCA ORBITAL LOCALIZATION
------------------------------------------------------------------------------

Input orbitals are from                  ... methyl_glycolate_sk.proc0.loc
Output orbitals are to                   ... methyl_glycolate_sk.proc0.loc
Max. number of iterations                ... 128
Localizations seeded randomly            ... off
Convergence tolerance                    ... 1.000e-06
Using relative localization threshhold   ... 1.000e-08
Treshold for strong local MOs            ... 9.500e-01
Treshold for bond MOs                    ... 8.500e-01
Operator                                 ... 0
Orbital range for localization           ... 0 to 5
Localization criterion                   ... FOSTER-BOYS (AUGMENTED HESSIAN)
Doing the dipole integrals     ... o.k.
Initial value of the localization sum :    56.353232
ITERATION   0 : L=   56.3532339777 DL=  1.93e-06 (AVERGE_DL)=    0.0003590020 
ITERATION   1 : L=   56.3532339777 DL=  0.00e+00 (AVERGE_DL)=    0.0000000000 
LOCALIZATION SUM CONVERGED

------------------------------------------------------
AUGMENTED HESSIAN OPTIMIZATION OF FOSTER-BOYS ORBITALS
------------------------------------------------------

Spin operator:           0
Orbital window:          0 to 5
Number of iterations:    128
Gradient tolerance:      1.000e-06
Number of pairs:         15
Davidson threshold:      2000
Diagonalization method:  LAPACK
Iter:    0   L: 56.3532339777   Grad. norm: 1.034304e-06
   *** Likely close to a maximum now. ***
       Augmented Hessian eigenvalues:  1.46e-14 -2.11e+01 -2.55e+01 -2.86e+01 ... 
Iter:    1   L: 56.3532339777   Grad. norm: 4.846552e-20
LOCALIZATION HAS CONVERGED.

Eigenvalues of the Hessian:
  0 -2.112e+01
  1 -2.552e+01
  2 -2.862e+01
  3 -2.971e+01
  4 -3.301e+01
  5 -7.301e+01
  6 -7.917e+01
  7 -8.162e+01
  8 -8.218e+01
  9 -8.498e+01
    ...


------------------------------------------------------------------------------- 
                    LOCALIZED MOLECULAR ORBITAL COMPOSITIONS                   
------------------------------------------------------------------------------- 

The Mulliken populations for each LMO on each atom are computed
The LMO`s will be ordered according to atom index and type
  (A) Strongly localized MO`s have populations of >=0.950 on one atom
  (B) Two center bond orbitals have populations of >=0.850 on two atoms
  (C) Other MO`s are considered to be `delocalized`

FOUND  -   6 strongly local MO`s
       -   0 two center bond MO`s
       -   0 significantly delocalized MO`s

Rather strongly localized orbitals:
MO   5:   5O  -   0.999794
MO   4:   4C  -   0.999418
MO   3:   3O  -   0.999671
MO   2:   2C  -   1.000214
MO   1:   1O  -   0.999630
MO   0:   0C  -   0.999762
Localized MO's were stored in: methyl_glycolate_sk.proc0.loc

Warning: internal orbitals are localized - no re-canonicalization of internal orbitals

--------------------------
CLOSED-SHELL FOCK OPERATOR
--------------------------

RI-JK section for the Fock operator:
  RHF full Fock operator         ... done
  RHF frozen core Fock operator  ... done
Time needed for Fock operator              ...            0.781 sec
Reference energy                           ...   -341.703292096

--------------
DLPNO SETTINGS (2015 fully linear scaling implementation)
--------------

TCutMKN:           1.000e-03
TCutPAO:           1.000e-03
TCutPNO:           1.000e-07
TCutPNOSingles:    3.000e-09
TCutEN:            9.700e-01
TCutPAOExt:        1.000e-01
TCutPairs:         1.000e-05
TCutPre:           1.000e-07
TCutOSV:           1.000e-06
TCutDOij:          1.000e-05
TCutDO:            5.000e-03
TCutC:             1.000e-04
TCutCPAO:          1.000e-03
TCutCMO:           1.000e-03
TScaleDOMP2PreScr: 2.000e+00
TScaleMKNMP2PreScr:1.000e+01
TScalePNOMP2PreScr:1.000e+00
PAO overlap thresh 1.000e-08
Using PNOs for Singles Fock computation
Use new domains
Use fully linear algorithm
TCutTNO:           1.000e-09
TCutMP2Pairs:      1.000e-06
TCutDOStrong:      2.000e-03
TCutMKNStrong:     1.000e-02
TCutMKNWeak:       1.000e-01
TCutDOWeak:        4.000e-03
NTCutTNO:          1

--------------------------
Calculating differential overlap integrals ... ok
--------------------------
ELECTRON PAIR PRESCREENING
--------------------------

Dipole-based pair screening          .... used

   TCutDOij = 1.000000e-05
   TCutPre  = 1.000000e-07
   .... Finished loop over pairs
Total time spent in the prescreening                  ...     0.000 sec
sum of pair energies estimated for screened out pairs ...       0.000000000000 Eh
Thresholds for map construction and integral transformation for crude MP2:
   TCutMKN                    ...     1.0e-02
   TCutDO                     ...     1.0e-02
   TCutPairs                  ...     1.0e-05
   TCutPNO_CrudeMP2           ...     1.0e-07
   TCutPNOSingles_CrudeMP2    ...     3.0e-09
--------------------------------
LOCAL RI TRANSFORMATION (IAVPAO)
--------------------------------

Orbital window:       6 to 23
Number of PAOs:     114
Basis functions:    114 (54 shells)
Aux. functions:     420 (144 shells)

Processing maps (0.0 sec)
Average map sizes:
   Aux shells -> MOs              18.0
   Aux shells -> PAOs            114.0
   MOs        -> AO shells        53.0
   PAOs       -> AO shells        54.0

Calculating integrals (0.3 sec, 6.580 MB)
Sorting integrals (0.0 sec, 6.576 MB)
Total time for the integral transformation: 0.3 sec
--------------------------------
INITIAL GUESS AND PNO GENERATION
--------------------------------

PNO truncation parameters                   .... 
    PAOOverlapThresh   =        1.000e-08

    TCutPairs          =        1.000e-05
    TCutPNO            =        1.000e-07
    TCutPNOSingles     =        3.000e-09
    TCutMP2Pairs       =        1.000e-06
    TCutMKN            =        1.000e-02
    TCutDO             =        1.000e-02

Pair selection                          .... not used
Type of local MP2 treatment                 .... semi-local MP2
Strategy for PNO selection                  .... occupation number selection
Pair density normalization                  .... MP2 norm
Spin component scaling                      .... not used

   .... Finished loop over pairs
Making pair pair interaction lists          ... done

                       ===========================
                        169 OF  171 PAIRS ARE KEPT CCSD PAIRS
                          2 OF  171 PAIRS ARE KEPT MP2 PAIRS FOR (T)
                          0 OF  171 PAIRS ARE SKIPPED
                       ===========================

Total time spent in the initial guess                 ...     0.261 sec
SL-MP2 correlation energy (all non-screened pairs)    ...      -0.916357344551 Eh

Initial PNO correlation energy                        ...      -0.916018345091 Eh
sum of pair energies prescreened and skipped MP2 pairs...       0.000000000000 Eh
sum of pair energies of crude MP2 skipped pairs only  ...       0.000000000000 Eh
sum of MP2 pair energies for pairs that were not kept ...      -0.000019140571 Eh
sum of PNO error estimates for the kept pairs         ...      -0.000319858888 Eh
                                                          --------------------
sum of all corrections                                         -0.000338999460
Initial total correlation energy                               -0.916357344551
Thresholds for map construction and integral transformation for fine MP2 and CCSD(T) calculation:
   TCutMKN   ...     1.0e-03
   TCutDO    ...     5.0e-03
   TCutPairs ...     1.0e-05
   TCutCMO   ...     1.0e-03
   TCutCPAO  ...     1.0e-03

Thresholds for map construction and integral transformation for strong Triples:
   TCutMKN   ...     1.0e-02
   TCutDO    ...     1.0e-02
   TCutCMO   ...     1.0e-03
   TCutCPAO  ...     1.0e-03

Thresholds for map construction and integral transformation for weak Triples:
   TCutMKN   ...     1.0e-01
   TCutDO    ...     2.0e-02
   TCutCMO   ...     1.0e-03
   TCutCPAO  ...     1.0e-03

--------------------------------
LOCAL RI TRANSFORMATION (IAVPAO)
--------------------------------

Orbital window:       6 to 23
Number of PAOs:     114
Basis functions:    114 (54 shells)
Aux. functions:     420 (144 shells)

Processing maps (0.0 sec)
Average map sizes:
   Aux shells -> MOs              18.0
   Aux shells -> PAOs            114.0
   MOs        -> AO shells        53.0
   PAOs       -> AO shells        54.0

Calculating integrals (0.3 sec, 6.580 MB)
Sorting integrals (0.0 sec, 6.576 MB)
Total time for the integral transformation: 0.3 sec
--------------------------------
INITIAL GUESS AND PNO GENERATION
--------------------------------

PNO truncation parameters                   .... 
    ScaleTCutPNO       =        1.000e-02
    PAOOverlapThresh   =        1.000e-08

    TCutPairs          =        1.000e-05
    TCutPNO            =        1.000e-07
    TCutPNOSingles     =        3.000e-09
    TCutMP2Pairs       =        1.000e-06
    TCutMKN            =        1.000e-03
    TCutDO             =        5.000e-03

Pair selection                          .... not used
Type of local MP2 treatment                 .... full local PMP2
Strategy for PNO selection                  .... occupation number selection
Pair density normalization                  .... MP2 norm
Spin component scaling                      .... not used

PASS-1: Formation of initial guess LMP2 amplitudes
Initial amplitudes guess done. Entering LMP2 iteration loop:
   Max. no of iterations          ...  50
   Energy convergence tolerance   ...    1.0e-07
   Residual convergence tolerance ...    5.0e-07
   Fock matrix cutoff             ...    1.0e-05 Eh
   DIIS convergence acceleration parameters:
        Max # vectors in DIIS     ... 7
        Start iteration of DIIS   ... 0
        Levelshift                ... 2.000e-01
        Damping factor 1          ... 5.000e-01
        Damping factor 2          ... 1.000e+00
   L-MP2 PNO cut-off              ...   1.0e-09
   L-MP2 PNO cut-off (core)       ...   1.0e-11
                           *** Turning on DIIS ***
LMP2-Iter=   0:  ELMP2= -0.943274300549  DE=   2.7e-02 RMAX=   1.8e-02
LMP2-Iter=   1:  ELMP2= -0.955886406438  DE=   1.3e-02 RMAX=   8.4e-03
LMP2-Iter=   2:  ELMP2= -0.958158700442  DE=   2.3e-03 RMAX=   3.2e-03
LMP2-Iter=   3:  ELMP2= -0.958461135673  DE=   3.0e-04 RMAX=   1.2e-03
LMP2-Iter=   4:  ELMP2= -0.958468203168  DE=   7.1e-06 RMAX=   3.3e-04
LMP2-Iter=   5:  ELMP2= -0.958463358021  DE=   4.8e-06 RMAX=   8.5e-05
LMP2-Iter=   6:  ELMP2= -0.958461964161  DE=   1.4e-06 RMAX=   1.4e-05
LMP2-Iter=   7:  ELMP2= -0.958461828655  DE=   1.4e-07 RMAX=   2.3e-06
LMP2-Iter=   8:  ELMP2= -0.958461852714  DE=   2.4e-08 RMAX=   2.8e-07
LMP2-Iter=   9:  ELMP2= -0.958461851415  DE=   1.3e-09 RMAX=   4.3e-08 => CONVERGED
PASS-2: Formation of Pair natural orbitals
   .... Finished loop over pairs

 PNO Occupation Number Statistics: 
  | Av. % of trace(Dij) retained        ...  99.467995682296
  | sigma^2 in % of trace(Dij) retained ...   7.34e-01
  | Av. % of trace(Di) retained         ...  99.999874123553
  | sigma^2 in % of trace(Di) retained  ...   3.22e-09
 Distributions of % trace(Dij) recovered:
  |       >= 99.9  ...    84 ( 49.1 % of all pairs)
  |   [90.0, 99.0) ...    31 ( 18.1 % of all pairs)
  |   [99.0, 99.9) ...    56 ( 32.7 % of all pairs)
 Distributions of % trace(Di) recovered :
  |       >= 99.9  ...    18 (100.0 % of all I-pairs )

Making pair pair interaction lists          ... done

                       ===========================
                        169 OF  171 PAIRS ARE KEPT
                       ===========================

Total time spent in the initial guess                 ...     2.483 sec
L-MP2 correlation energy (all non-screened pairs)     ...      -0.958461851415 Eh
L-MP2 PNO error correction                            ...      -0.000004385655 Eh
                                                          --------------------
Initial total L-MP2 energy (non-screened pairs)       ...      -0.958466237070 Eh

Initial PNO correlation energy                        ...      -0.958168357084 Eh
sum of pair energies estimated for screened out pairs ...       0.000000000000 Eh
sum of MP2 pair energies for pairs that were not kept ...      -0.000021426072 Eh
sum of PNO error estimates for the kept pairs         ...      -0.000296729073 Eh
                                                          --------------------
sum of all corrections                                         -0.000318155145
Initial total correlation energy                               -0.958486512229
Thresholds for map construction and integral transformation for fine MP2 and CCSD(T) calculation:
   TCutMKN   ...     1.0e-03
   TCutDO    ...     5.0e-03
   TCutPairs ...     1.0e-05
   TCutCMO   ...     1.0e-03
   TCutCPAO  ...     1.0e-03

Time for aux screen maps:            0.001
Time for maps after fine MP2:            0.005
-----------------------------
LOCAL RI TRANSFORMATION (IJV)
-----------------------------

Orbital window:       6 to 23
Basis functions:    114 (54 shells)
Aux. functions:     420 (144 shells)

Processing maps (0.0 sec)
Average map sizes:
   Aux shells -> MOs(i)           18.0
   Aux shells -> MOs(j)           18.0
   MOs        -> AO shells        53.0

Calculating integrals (0.3 sec, 1.043 MB)
Sorting integrals (0.0 sec, 1.038 MB)
Total time for the integral transformation: 0.3 sec
--------------------------------
LOCAL RI TRANSFORMATION (VABPAO)
--------------------------------

Number of PAOs:     114
Basis functions:    114 (54 shells)
Aux. functions:     420 (144 shells)

Processing maps (0.0 sec)
Average map sizes:
   Aux shells -> PAOs            114.0
   PAOs       -> AO shells        54.0

Calculating integrals (0.4 sec, 73.777 MB)
Finished


-------------------------------------
Pair Pair Term precalculation with     
RI-(ij|mn) and (im|jn) transformation  
ON THE FLY                             
-------------------------------------

   IBatch   1 (of   1)              ... done (    8.450 sec)
Total EXT                           ...           8.450 sec

---------------------
RI-PNO TRANSFORMATION
---------------------

Total Number of PNOs                   ...  4206
Average number of PNOs per pair        ...    24
Maximal number of PNOs per pair        ...    37
   #pairs with  1 -  5 PNOs   :    0
   #pairs with  6 - 10 PNOs   :   10
   #pairs with 11 - 15 PNOs   :   18
   #pairs with 16 - 20 PNOs   :   19
   #pairs with 21 - 25 PNOs   :   35
   #pairs with 26 - 30 PNOs   :   33
   #pairs with 31 - 35 PNOs   :   47
   #pairs with 36 - 40 PNOs   :    7
   #pairs with 41 - 45 PNOs   :    0
   #pairs with 46 - 50 PNOs   :    0

Generation of (ij|ab)[P] integrals            ... on
Generation of (ia|bc)[P],(ja|bc)[P] integrals ... on
Storage of 3 and 4 external integrals         ... on
Generation of ALL (ka|bc)[P] integrals        ... on
Keep RI integrals in memory                   ... off

Ibatch:  1 (of  1)
Starting 2-4 index PNO integral generation ... done

Timings:
Total PNO integral transformation time     ...          2.513 sec
Size of the 3-external file                ...        26 MB
Size of the 4-external file                ...       103 MB
Size of the IKJL file                      ...         0 MB
Size of the all 3-external file            ...       238 MB
Size of the 1-external file                ...         1 MB

Making pair/pair overlap matrices          ... done (    0.442 sec)
Size of the pair overlap file              ... 91 MB
Redoing the guess amplitudes               ... done (    0.001 sec)

-------------------------
FINAL STARTUP INFORMATION
-------------------------

E(0)                                       ...   -341.703292096
E(L-MP2)                                   ...     -0.958466237
E(L-MP2) including corrections             ...     -0.958486512
Initial E(tot)                             ...   -342.661778608
<T|T>                                      ...      0.247855881
Number of pairs included                   ... 169
Total number of pairs                      ... 171

------------------------------------------------
                  RHF COUPLED CLUSTER ITERATIONS
------------------------------------------------

Number of PNO amplitudes to be optimized   ...       115386
Number of non-PNO amplitudes               ...      1368900
Untruncated number of regular amplitudes   ...      1385100

Iter       E(tot)           E(Corr)          Delta-E          Residual     Time
  0   -342.619842081     -0.916231830      0.042234407      0.019715625    1.78
                           *** Turning on DIIS ***
  1   -342.665967473     -0.962357222     -0.046125392      0.012234515    1.77
  2   -342.694641531     -0.991031280     -0.028674058      0.006479589    1.78
  3   -342.700282319     -0.996672068     -0.005640788      0.003657413    1.79
  4   -342.702111867     -0.998501616     -0.001829548      0.001796781    1.70
  5   -342.702744905     -0.999134654     -0.000633038      0.000725269    1.70
  6   -342.702873354     -0.999263103     -0.000128448      0.000315295    1.68
  7   -342.702899902     -0.999289651     -0.000026548      0.000134423    1.68
  8   -342.702903207     -0.999292956     -0.000003305      0.000060263    1.68
  9   -342.702900978     -0.999290727      0.000002229      0.000027020    1.68
 10   -342.702900214     -0.999289963      0.000000764      0.000014445    1.68
 11   -342.702899282     -0.999289032      0.000000932      0.000006889    1.69
               --- The Coupled-Cluster iterations have converged ---

----------------------
COUPLED CLUSTER ENERGY
----------------------

E(0)                                       ...   -341.703292096
E(CORR)(strong-pairs)                      ...     -0.999289032
E(CORR)(weak-pairs)                        ...     -0.000318155
E(CORR)(corrected)                         ...     -0.999607187
E(TOT)                                     ...   -342.702899282
Singles Norm <S|S>**1/2                    ...      0.083761454  
T1 diagnostic                              ...      0.013960242  

------------------
LARGEST AMPLITUDES
------------------
  14-> 24  14-> 24       0.049480
  13-> 24  13-> 24       0.049479
  14-> 24  13-> 24       0.041668
  21-> 32  21-> 32       0.040808
  17-> 25  17-> 25       0.040058
  22-> 32  22-> 32       0.039077
  23-> 32  23-> 32       0.039073
  10-> 25  10-> 25       0.036198
  21-> 24  21-> 24       0.035290
  16-> 27  16-> 27       0.035255
  22-> 24  22-> 24       0.034045
  23-> 24  23-> 24       0.034044
  20-> 24  20-> 24       0.033082
  19-> 33  19-> 33       0.032750
  18-> 33  18-> 33       0.032750
  14-> 24  -1-> -1       0.030921


-------------------------------------------
DLPNO BASED TRIPLES CORRECTION
-------------------------------------------

Singles multiplier          ...  1.000000
TCutTNO                     ... 1.000e-09
TCutMP2Pairs                ... 1.000e-06
TCutDOStrong                ... 1.000e-02
TCutMKNStrong               ... 1.000e-02
TCutDOWeak                  ... 2.000e-02
TCutMKNWeak                 ... 1.000e-01

Fragment selection                          .... not used
Number of Triples that are to be computed   ...      1118

 . . . . . . . . .
10% done  
20% done  
30% done  
40% done  
50% done  
60% done  
70% done  
80% done  
90% done               (     15.508 sec)
Triples timings:
Total time for T0               ...    16.744 sec
Total time for Iterative (T)    ...     0.000 sec
Total time of overall (T)       ...    16.981 sec

Triples List generation         ...     0.000 sec
TNO generation                  ...     1.234 sec
Pair density generation         ...     0.002 sec
Look up tables                  ...     0.000 sec
Generating 3-index integrals    ...     7.746 sec
  Make 4-ind.int. from 3-ind.int...     3.038 sec
  Projecting amplitudes (D + S) ...     1.551 sec
  Downprojecting integrals      ...     0.001 sec
  Energy contr. (sum over a,b,c)...     0.986 sec
Fitting ET(->0)                 ...     0.000 sec

Everything after 3-index        ...     7.762 sec

Timing details:
 TNO integrals                  ...    10.256 sec
   Reading 3-index integrals    ...     0.015 sec
   Sorting integrals            ...     1.933 sec
       Sorting integrals 1      ...     0.001 sec
       Sorting integrals 2      ...     0.707 sec
       Sorting integrals 3      ...     0.132 sec
       Sorting integrals 4      ...     0.018 sec
       Sorting integrals 5      ...     0.038 sec
       Sorting integrals 6      ...     1.037 sec
   Calculating local VM**-1/2   ...     0.141 sec
   Orthogonal. integrals        ...     0.244 sec
   Multipl. 3-index integrals   ...     7.924 sec
   All concerning IRIab (w/TNO) ...     1.470 sec

 Calculate W0/W1                ...     2.180 sec
 W 3-ext contribution           ...     1.214 sec
 W 3-int contribution           ...     0.438 sec
 Sorting W                      ...     0.467 sec

 V exchange contribution        ...     0.427 sec

 Timings for Triples without generation
     of 3-index integrals       ...     7.759 sec
       0 weak pairs             ...     7.676 sec
       1 weak pair              ...     0.083 sec
       2 weak pairs             ...     0.000 sec
       3 weak pairs             ...     0.000 sec
  Extra time for extrapolation  ...     0.000 sec

Number of Triples   (0, 1, 2, 3 weak pairs; overall):   1086      32       0       0  (  1118)
Number of Atoms     (0, 1, 2, 3 weak pairs; overall):   11.4    11.8     0.0     0.0  (    12)
Number of PAOs      (0, 1, 2, 3 weak pairs; overall):  110.5   110.5     0.0     0.0  (   114)
Number of AuxFcns   (0, 1, 2, 3 weak pairs; overall):  229.4   186.4     0.0     0.0  (   420)
Number of TNOs      (0, 1, 2, 3 weak pairs         ):   53.3    45.1     0.0     0.0
Aver. Number of NTNO, Atoms, PAOs, AuxFcns / Triples:   1118    53.1    11.4   110.5   228.2

Triples Correction (T)                     ...     -0.027784526
Final correlation energy                   ...     -1.027391712
E(CCSD)                                    ...   -342.702899282
E(CCSD(T))                                 ...   -342.730683808


Maximum memory used throughout the entire calculation: 2576.9 MB


------------------------------------------------------------------------------- 
                                     TIMINGS                                   
------------------------------------------------------------------------------- 


Total execution time                   ...       56.998 sec

Localization of occupied MO's          ...        0.399 sec (  0.7%)
Fock Matrix Formation                  ...        0.781 sec (  1.4%)
Global overlap, Fock, MKN matrices     ...        0.112 sec (  0.2%)
Differential overlap integrals         ...        0.069 sec (  0.1%)
Organizing maps                        ...        0.017 sec (  0.0%)
RI 3-index integral generations        ...        1.296 sec (  2.3%)
RI-PNO integral transformation         ...       13.724 sec ( 24.1%)
Initial Guess                          ...        2.757 sec (  4.8%)
DIIS Solver                            ...        0.428 sec (  0.8%)
State Vector Update                    ...        0.012 sec (  0.0%)
Sigma-vector construction              ...       20.481 sec ( 35.9%)
  <D|H|D>(0-ext)                       ...        1.667 sec (  8.1% of sigma)
  <D|H|D>(2-ext Fock)                  ...        0.012 sec (  0.1% of sigma)
  <D|H|D>(2-ext)                       ...        3.022 sec ( 14.8% of sigma)
  <D|H|D>(4-ext)                       ...        1.332 sec (  6.5% of sigma)
  <D|H|D>(4-ext-corr)                  ...        6.302 sec ( 30.8% of sigma)
  CCSD doubles correction              ...        0.152 sec (  0.7% of sigma)
  <S|H|S>                              ...        0.146 sec (  0.7% of sigma)
  <S|H|D>(1-ext)                       ...        0.227 sec (  1.1% of sigma)
  <D|H|S>(1-ext)                       ...        0.009 sec (  0.0% of sigma)
  <S|H|D>(3-ext)                       ...        0.122 sec (  0.6% of sigma)
  Fock-dressing                        ...        3.836 sec ( 18.7% of sigma)
  Singles amplitudes                   ...        0.176 sec (  0.9% of sigma)
  (ik|jl)-dressing                     ...        1.174 sec (  5.7% of sigma)
  (ij|ab),(ia|jb)-dressing             ...        1.288 sec (  6.3% of sigma)
  Pair energies                        ...        0.004 sec (  0.0% of sigma)
Total Time for computing (T)           ...       17.032 sec ( 29.9% of ALL)


-------------------------   --------------------
FINAL SINGLE POINT ENERGY      -342.730683808100
-------------------------   --------------------


                            ***************************************
                            *     ORCA property calculations      *
                            ***************************************

                                    ---------------------
                                    Active property flags
                                    ---------------------
   (+) Dipole Moment


------------------------------------------------------------------------------
                       ORCA ELECTRIC PROPERTIES CALCULATION
------------------------------------------------------------------------------

Dipole Moment Calculation                       ... on
Quadrupole Moment Calculation                   ... off
Polarizability Calculation                      ... off
GBWName                                         ... methyl_glycolate_sk.gbw
Electron density file                           ... methyl_glycolate_sk.scfp.tmp
The origin for moment calculation is the CENTER OF MASS  = (-0.017719,  0.020670 -0.000003)

-------------
DIPOLE MOMENT
-------------
                                X             Y             Z
Electronic contribution:     -1.37302       0.70737      -0.00004
Nuclear contribution   :      0.85057      -0.99212      -0.00003
                        -----------------------------------------
Total Dipole Moment    :     -0.52244      -0.28474      -0.00007
                        -----------------------------------------
Magnitude (a.u.)       :      0.59500
Magnitude (Debye)      :      1.51237



--------------------
Rotational spectrum 
--------------------
 
Rotational constants in cm-1:     0.212916     0.089229     0.064407 
Rotational constants in MHz :  6383.050416  2675.010557  1930.885917 

 Dipole components along the rotational axes: 
x,y,z [a.u.] :    -0.537284    -0.255640    -0.000075 
x,y,z [Debye]:    -1.365667    -0.649786    -0.000190 

 

Timings for individual modules:

Sum of individual times         ...       74.141 sec (=   1.236 min)
GTO integral calculation        ...        2.845 sec (=   0.047 min)   3.8 %
SCF iterations                  ...       14.160 sec (=   0.236 min)  19.1 %
MDCI module                     ...       57.135 sec (=   0.952 min)  77.1 %
                             ****ORCA TERMINATED NORMALLY****
TOTAL RUN TIME: 0 days 0 hours 1 minutes 14 seconds 362 msec
methyl_glycolate_sk.gbw -> /home1/pantazis/klk/VDZ/Oxygen_compounds/methyl_glycolate_sk.gbw
methyl_glycolate_sk.ges -> /home1/pantazis/klk/VDZ/Oxygen_compounds/methyl_glycolate_sk.ges
methyl_glycolate_sk.job -> /home1/pantazis/klk/VDZ/Oxygen_compounds/methyl_glycolate_sk.job
methyl_glycolate_sk.loc -> /home1/pantazis/klk/VDZ/Oxygen_compounds/methyl_glycolate_sk.loc
methyl_glycolate_sk.nodes -> /home1/pantazis/klk/VDZ/Oxygen_compounds/methyl_glycolate_sk.nodes
methyl_glycolate_sk.prop -> /home1/pantazis/klk/VDZ/Oxygen_compounds/methyl_glycolate_sk.prop
methyl_glycolate_sk_property.txt -> /home1/pantazis/klk/VDZ/Oxygen_compounds/methyl_glycolate_sk_property.txt
methyl_glycolate_sk.xyz -> /home1/pantazis/klk/VDZ/Oxygen_compounds/methyl_glycolate_sk.xyz
cp: cannot stat methyl_glycolate_sk.asa.inp: No such file or directory
