! Job execution by suborca V 6.07 on ZEUS !
Job started from zeus1, running /scratch/pantazis/methanol_anti__LOhdsm/orca/orca copied from /opt/orca on zeussn125 in /scratch/pantazis/methanol_anti__LOhdsm
Job execution start: Sat Jun 29 10:51:45 CEST 2019
Shared library path: /scratch/pantazis/methanol_anti__LOhdsm/orca:/opt/openmpi_1.10.2/lib:/opt/intel/mkl/lib/intel64:/opt/intel/lib/intel64:
PBS Job ID is: 158749.icqc
izeussn125
izeussn125
izeussn125
izeussn125

                                 *****************
                                 * O   R   C   A *
                                 *****************

           --- An Ab Initio, DFT and Semiempirical electronic structure package ---

                  #######################################################
                  #                        -***-                        #
                  #          Department of theory and spectroscopy      #
                  #               Directorship: Frank Neese             #
                  #        Max Planck Institute fuer Kohlenforschung    #
                  #                Kaiser Wilhelm Platz 1               #
                  #                 D-45470 Muelheim/Ruhr               #
                  #                      Germany                        #
                  #                                                     #
                  #                  All rights reserved                #
                  #                        -***-                        #
                  #######################################################


                         Program Version 4.1.x  -  STABLE  -
                                (SVN: $Rev: 14094$)
                ($Date: 2019-06-14 15:01:15 +0200 (Fri, 14 Jun 2019) $)

                         (BUILD: $Sun Jun 23 06:18:31 CEST 2019$)


 With contributions from (in alphabetic order):
   Daniel Aravena         : Magnetic Properties
   Michael Atanasov       : Ab Initio Ligand Field Theory
   Alexander A. Auer      : GIAO ZORA
   Ute Becker             : Parallelization
   Giovanni Bistoni       : ED, Open-shell LED
   Martin Brehm           : Molecular dynamics
   Dmytro Bykov           : SCF Hessian
   Vijay G. Chilkuri      : MRCI spin determinant printing
   Dipayan Datta          : RHF DLPNO-CCSD density
   Achintya Kumar Dutta   : EOM-CC, STEOM-CC
   Dmitry Ganyushin       : Spin-Orbit,Spin-Spin,Magnetic field MRCI
   Miquel Garcia          : C-PCM Hessian
   Yang Guo               : DLPNO-NEVPT2, CIM, IAO-localization
   Andreas Hansen         : Spin unrestricted coupled pair/coupled cluster methods
   Benjamin Helmich-Paris : CASSCF linear response (MC-RPA)
   Lee Huntington         : MR-EOM, pCC
   Robert Izsak           : Overlap fitted RIJCOSX, COSX-SCS-MP3, EOM
   Christian Kollmar      : KDIIS, OOCD, Brueckner-CCSD(T), CCSD density
   Simone Kossmann        : Meta GGA functionals, TD-DFT gradient, OOMP2, MP2 Hessian
   Martin Krupicka        : AUTO-CI
   Lucas Lang             : DCDCAS
   Dagmar Lenk            : GEPOL surface, SMD
   Dimitrios Liakos       : Extrapolation schemes; parallel MDCI
   Dimitrios Manganas     : ROCIS; embedding schemes
   Dimitrios Pantazis     : SARC Basis sets
   Taras Petrenko         : DFT Hessian,TD-DFT gradient, ASA, ECA, R-Raman, ABS, FL, XAS/XES, NRVS
   Peter Pinski           : DLPNO-MP2, DLPNO-MP2 Gradient
   Christoph Reimann      : Effective Core Potentials
   Marius Retegan         : Local ZFS, SOC
   Christoph Riplinger    : Optimizer, TS searches, QM/MM, DLPNO-CCSD(T), (RO)-DLPNO pert. Triples
   Tobias Risthaus        : Range-separated hybrids, TD-DFT gradient, RPA, STAB
   Michael Roemelt        : Restricted open shell CIS
   Masaaki Saitow         : Open-shell DLPNO
   Barbara Sandhoefer     : DKH picture change effects
   Avijit Sen             : IP-ROCIS
   Kantharuban Sivalingam : CASSCF convergence, NEVPT2, FIC-MRCI
   Bernardo de Souza      : ESD, SOC TD-DFT
   Georgi Stoychev        : AutoAux, RI-MP2 NMR
   Willem Van den Heuvel  : Paramagnetic NMR
   Boris Wezisla          : Elementary symmetry handling
   Frank Wennmohs         : Technical directorship


 We gratefully acknowledge several colleagues who have allowed us to
 interface, adapt or use parts of their codes:
   Stefan Grimme, W. Hujo, H. Kruse,             : VdW corrections, initial TS optimization,
                  C. Bannwarth                     DFT functionals, gCP, sTDA/sTD-DF
   Ed Valeev                                     : LibInt (2-el integral package), F12 methods
   Garnet Chan, S. Sharma, J. Yang, R. Olivares  : DMRG
   Ulf Ekstrom                                   : XCFun DFT Library
   Mihaly Kallay                                 : mrcc  (arbitrary order and MRCC methods)
   Andreas Klamt, Michael Diedenhofen            : otool_cosmo (COSMO solvation model)
   Jiri Pittner, Ondrej Demel                    : Mk-CCSD
   Frank Weinhold                                : gennbo (NPA and NBO analysis)
   Christopher J. Cramer and Donald G. Truhlar   : smd solvation model
   Lars Goerigk                                  : TD-DFT with DH, B97 family of functionals
   V. Asgeirsson, H. Jonsson                     : NEB implementation
   FAccTs GmbH                                   : IRC, NEB, NEB-TS, Multilevel


 Your calculation uses the libint2 library for the computation of 2-el integrals
 For citations please refer to: http://libint.valeyev.net

 This ORCA versions uses:
   CBLAS   interface :  Fast vector & matrix operations
   LAPACKE interface :  Fast linear algebra routines
   SCALAPACK package :  Parallel linear algebra routines




***************************************
The coordinates will be read from file: methanol_anti.xyz
***************************************


----- Orbital basis set information -----
Your calculation utilizes the basis: cc-pVDZ 
       H, B-Ne : Obtained from the ccRepo (grant-hill.group.shef.ac.uk/ccrepo) Feb. 2017
                 T. H. Dunning, Jr., J. Chem. Phys. 90, 1007 (1989)
            He : Obtained from the ccRepo (grant-hill.group.shef.ac.uk/ccrepo) Feb. 2017
                 D. E. Woon, T. H. Dunning, Jr., J. Chem. Phys. 100, 2975 (1994)
  Li-Be, Na-Mg : Obtained from the ccRepo (grant-hill.group.shef.ac.uk/ccrepo) Feb. 2017
                 B. P. Prascher, D. E. Woon, K. A. Peterson, T. H. Dunning, Jr., A. K. Wilson, Theor. Chem. Acc. 128, 69 (2011)
         Al-Ar : Obtained from the ccRepo (grant-hill.group.shef.ac.uk/ccrepo) Feb. 2017
                 D. E. Woon, T. H. Dunning, Jr., J. Chem. Phys. 98, 1358 (1993)
            Ca : Obtained from the Peterson Research Group Website (tyr0.chem.wsu.edu/~kipeters) Feb. 2017
                 J. Koput, K. A. Peterson, J. Phys. Chem. 106, 9595 (2002)
         Sc-Zn : Obtained from the ccRepo (grant-hill.group.shef.ac.uk/ccrepo) Feb. 2017
                 N. B. Balabanov, K. A. Peterson, J. Chem. Phys. 123, 064107 (2005)
                 N. B. Balabanov, K. A. Peterson, J. Chem. Phys. 125, 074110 (2006)
         Ga-Kr : Obtained from the ccRepo (grant-hill.group.shef.ac.uk/ccrepo) Feb. 2017
                 A. K. Wilson, D. E. Woon, K. A. Peterson, T. H. Dunning, Jr., J. Chem. Phys. 110, 7667 (1999)

----- AuxC basis set information -----
Your calculation utilizes the auxiliary basis: cc-pVDZ/C 
  H-He, B, Ne, Al-Ar, Ga-Br : Obtained from the EMSL Basis Set Exchange (bse.pnl.gov) Feb. 2017
                              F. Weigend, A. Kohn, C. Hattig, J. Chem. Phys. 116, 3175 (2002)
               Li-Be, Na-Mg : Obtained from the EMSL Basis Set Exchange (bse.pnl.gov) Feb. 2017
                              C. Haettig, Phys. Chem. Chem. Phys. 7, 59 (2005)
                        C-F : Obtained from the EMSL Basis Set Exchange (bse.pnl.gov) Feb. 2017
                              C. Haettig, Phys. Chem. Chem. Phys. 7, 59 (2005)
                              F. Weigend, A. Kohn, C. Hattig, J. Chem. Phys. 116, 3175 (2002)
                         Kr : Obtained from the TURBOMOLE 7.0 basis set library
                              F. Weigend, A. Kohn, C. Hattig, J. Chem. Phys. 116, 3175 (2002)
                              S function revised in Sep. 2009

----- AuxJK basis set information -----
Your calculation utilizes the auxiliary basis: cc-pVTZ/JK 
  H, B-F, Al-Cl, Ga-Br : Obtained from the TURBOMOLE 7.0 basis set library

================================================================================
                                        WARNINGS
                       Please study these warnings very carefully!
================================================================================


WARNING: MDCI localization with Augmented Hessian Foster-Boys
  ===> : Switching off randomization!

WARNING: Post HF methods need fully converged wavefunctions
  ===> : Setting SCFConvForced true
         You can overwrite this default with %scf ConvForced false 


INFO   : the flag for use of LIBINT has been found!

================================================================================
                                       INPUT FILE
================================================================================
NAME = methanol_anti.inp
|  1> ! RHF DLPNO-CCSD(T) cc-pVDZ RIJK cc-pVTZ/JK cc-pVDZ/C
|  2> ! KDIIS SOSCF TightSCF TightPNO
|  3> 
|  4> %pal nprocs 4 end
|  5> 
|  6> %maxcore 8000
|  7> 
|  8> %scf maxiter 300
|  9>      shift shift 0.2 erroff 0.1 end
| 10> end
| 11> 
| 12> * xyzfile 0 1 methanol_anti.xyz 
| 13> 
| 14> 
| 15>                          ****END OF INPUT****
================================================================================

                       ****************************
                       * Single Point Calculation *
                       ****************************

---------------------------------
CARTESIAN COORDINATES (ANGSTROEM)
---------------------------------
  C     -0.661930   -0.017790    0.000000
  O      0.739040    0.126810   -0.000000
  H      1.110210   -0.739120    0.000010
  H     -0.962740   -0.582400    0.913090
  H     -1.125450    0.996240    0.000000
  H     -0.962740   -0.582410   -0.913090

----------------------------
CARTESIAN COORDINATES (A.U.)
----------------------------
  NO LB      ZA    FRAG     MASS         X           Y           Z
   0 C     6.0000    0    12.011   -1.250866   -0.033618    0.000000
   1 O     8.0000    0    15.999    1.396583    0.239636   -0.000000
   2 H     1.0000    0     1.008    2.097993   -1.396734    0.000019
   3 H     1.0000    0     1.008   -1.819315   -1.100577    1.725490
   4 H     1.0000    0     1.008   -2.126792    1.882621    0.000000
   5 H     1.0000    0     1.008   -1.819315   -1.100595   -1.725490

--------------------------------
INTERNAL COORDINATES (ANGSTROEM)
--------------------------------
 C      0   0   0     0.000000000000     0.00000000     0.00000000
 O      1   0   0     1.408412617417     0.00000000     0.00000000
 H      2   1   0     0.942126283414   107.30891336     0.00000000
 H      1   2   3     1.114901097093   108.68570127    59.83164446
 H      1   2   3     1.114947367054   108.67259076   179.99936300
 H      1   2   3     1.114906161343   108.68566895   300.16754808

---------------------------
INTERNAL COORDINATES (A.U.)
---------------------------
 C      0   0   0     0.000000000000     0.00000000     0.00000000
 O      1   0   0     2.661514130478     0.00000000     0.00000000
 H      2   1   0     1.780360659222   107.30891336     0.00000000
 H      1   2   3     2.106857739915   108.68570127    59.83164446
 H      1   2   3     2.106945177468   108.67259076   179.99936300
 H      1   2   3     2.106867309959   108.68566895   300.16754808

---------------------
BASIS SET INFORMATION
---------------------
There are 3 groups of distinct atoms

 Group   1 Type C   : 17s4p1d contracted to 3s2p1d pattern {881/31/1}
 Group   2 Type O   : 17s4p1d contracted to 3s2p1d pattern {881/31/1}
 Group   3 Type H   : 4s1p contracted to 2s1p pattern {31/1}

Atom   0C    basis set group =>   1
Atom   1O    basis set group =>   2
Atom   2H    basis set group =>   3
Atom   3H    basis set group =>   3
Atom   4H    basis set group =>   3
Atom   5H    basis set group =>   3
-------------------------------
AUXILIARY BASIS SET INFORMATION
-------------------------------
There are 3 groups of distinct atoms

 Group   1 Type C   : 7s5p4d2f contracted to 7s5p4d2f pattern {1111111/11111/1111/11}
 Group   2 Type O   : 7s5p4d2f contracted to 7s5p4d2f pattern {1111111/11111/1111/11}
 Group   3 Type H   : 3s2p1d contracted to 3s2p1d pattern {111/11/1}

Atom   0C    basis set group =>   1
Atom   1O    basis set group =>   2
Atom   2H    basis set group =>   3
Atom   3H    basis set group =>   3
Atom   4H    basis set group =>   3
Atom   5H    basis set group =>   3
-------------------------------
AUXILIARY BASIS SET INFORMATION
-------------------------------
There are 3 groups of distinct atoms

 Group   1 Type C   : 10s7p5d2f1g contracted to 10s7p5d2f1g pattern {1111111111/1111111/11111/11/1}
 Group   2 Type O   : 10s7p5d2f1g contracted to 10s7p5d2f1g pattern {1111111111/1111111/11111/11/1}
 Group   3 Type H   : 4s3p2d1f contracted to 4s3p2d1f pattern {1111/111/11/1}

Atom   0C    basis set group =>   1
Atom   1O    basis set group =>   2
Atom   2H    basis set group =>   3
Atom   3H    basis set group =>   3
Atom   4H    basis set group =>   3
Atom   5H    basis set group =>   3

Checking for AutoStart:
The File: methanol_anti.gbw exists
Trying to determine its content:
     ... Fine, the file contains calculation information
     ... Fine, the calculation information was read
     ... Fine, the file contains a basis set
     ... Fine, the basis set was read
     ... Fine, the file contains a geometry
     ... Fine, the geometry was read
     ... Fine, the file contains a set of orbitals
     ... Fine, the orbitals can be read
     => possible old guess file was deleted
     => GBW file was renamed to GES file
     => GES file is set as startup file
     => Guess is set to MORead
     ... now leaving AutoStart



           ************************************************************
           *        Program running with 4 parallel MPI-processes     *
           *              working on a common directory               *
           ************************************************************
------------------------------------------------------------------------------
                           ORCA GTO INTEGRAL CALCULATION
                           -- RI-GTO INTEGRALS CHOSEN --
------------------------------------------------------------------------------

                         BASIS SET STATISTICS AND STARTUP INFO

Gaussian basis set:
 # of primitive gaussian shells          ...   64
 # of primitive gaussian functions       ...   96
 # of contracted shells                  ...   24
 # of contracted basis functions         ...   48
 Highest angular momentum                ...    2
 Maximum contraction depth               ...    8
Auxiliary gaussian basis set:
 # of primitive gaussian shells          ...   90
 # of primitive gaussian functions       ...  278
 # of contracted shells                  ...   90
 # of contracted aux-basis functions     ...  278
 Highest angular momentum                ...    4
 Maximum contraction depth               ...    1
Ratio of auxiliary to basis functions    ...  5.79
Integral package used                  ... LIBINT
 One Electron integrals                  ... done
 Ordering auxiliary basis shells         ... done
 Integral threshhold             Thresh  ...  2.500e-11
 Primitive cut-off               TCut    ...  2.500e-12
 Pre-screening matrix                    ... done
 Shell pair data                         ... 
 Ordering of the shell pairs             ... done (   0.000 sec) 300 of 300 pairs
 Determination of significant pairs      ... done (   0.000 sec)
 Creation of shell pair data             ... done (   0.000 sec)
 Storage of shell pair data              ... done (   0.001 sec)
 Shell pair data done in (   0.002 sec)
 Computing two index integrals           ... done
 Cholesky decomposition of the V-matrix  ... done


Timings:
 Total evaluation time                   ...   0.188 sec (  0.003 min)
 One electron matrix time                ...   0.007 sec (  0.000 min) =  3.8%
 Schwartz matrix evaluation time         ...   0.123 sec (  0.002 min) = 65.3%
 Two index repulsion integral time       ...   0.004 sec (  0.000 min) =  1.9%
 Cholesky decomposition of V             ...   0.027 sec (  0.000 min) = 14.3%
 Three index repulsion integral time     ...   0.000 sec (  0.000 min) =  0.0%



           ************************************************************
           *        Program running with 4 parallel MPI-processes     *
           *              working on a common directory               *
           ************************************************************
-------------------------------------------------------------------------------
                                 ORCA SCF
-------------------------------------------------------------------------------

------------
SCF SETTINGS
------------
Hamiltonian:
 Ab initio Hamiltonian  Method          .... Hartree-Fock(GTOs)
 RI-approximation to the Coulomb term is turned on
   Number of auxiliary basis functions  .... 278
   RI-JK (J+K treated both via RI)      .... on


General Settings:
 Integral files         IntName         .... methanol_anti
 Hartree-Fock type      HFTyp           .... RHF
 Total Charge           Charge          ....    0
 Multiplicity           Mult            ....    1
 Number of Electrons    NEL             ....   18
 Basis Dimension        Dim             ....   48
 Nuclear Repulsion      ENuc            ....     40.4252640452 Eh

Convergence Acceleration:
 DIIS                   CNVDIIS         .... off
 Newton-Raphson         CNVNR           .... off
 SOSCF                  CNVSOSCF        .... on
   Start iteration      SOSCFMaxIt      ....   150
   Startup grad/error   SOSCFStart      ....  0.003300
 Level Shifting         CNVShift        .... on
   Level shift para.    LevelShift      ....    0.2000
   Turn off err/grad.   ShiftErr        ....    0.1000
 Zerner damping         CNVZerner       .... off
 Static damping         CNVDamp         .... off
 Fernandez-Rico         CNVRico         .... off

SCF Procedure:
 Maximum # iterations   MaxIter         ....   300
 SCF integral mode      SCFMode         .... Direct
   Integral package                     .... LIBINT
 Reset frequency        DirectResetFreq ....    20
 Integral Threshold     Thresh          ....  2.500e-11 Eh
 Primitive CutOff       TCut            ....  2.500e-12 Eh

Convergence Tolerance:
 Convergence Check Mode ConvCheckMode   .... Total+1el-Energy
 Convergence forced     ConvForced      .... 1
 Energy Change          TolE            ....  1.000e-08 Eh
 1-El. energy change                    ....  1.000e-05 Eh
 Orbital Gradient       TolG            ....  1.000e-05
 Orbital Rotation angle TolX            ....  1.000e-05


Diagonalization of the overlap matrix:
Smallest eigenvalue                        ... 1.641e-02
Time for diagonalization                   ...    0.003 sec
Threshold for overlap eigenvalues          ... 1.000e-08
Number of eigenvalues below threshold      ... 0
Time for construction of square roots      ...    0.003 sec
Total time needed                          ...    0.006 sec

---------------------
INITIAL GUESS: MOREAD
---------------------
Guess MOs are being read from file: methanol_anti.ges
Input Geometry matches current geometry (good)
Atom 0: N(Shells)= 6 and 10 - projection required
Input basis set needs projection
NBasis(read)= 116
NBasis(calc)= 48
Basis set overlap was calculated
Using GuessMode=FMatrix for the initial guess
C*T matrix was formed
Effective Fockian was calculated
Effective Fockian was diagonalized
Initial density was built
                      ------------------
                      INITIAL GUESS DONE (   0.0 sec)
                      ------------------
--------------
SCF ITERATIONS
--------------
ITER       Energy         Delta-E        Max-DP      RMS-DP      [F,P]   Gradient Norm
                             ****Turning on KDIIS(Cayley)****
  0   -115.0471188660   0.000000000000 0.00081706  0.00007926  0.0047248   0.005711806
  1   -115.0471683209  -0.000049454949 0.00164789  0.00015894  0.0042831   0.005167038
  2   -115.0472488747  -0.000080553821 0.00291557  0.00028003  0.0034544   0.004218357
                      *** Initiating the SOSCF procedure ***
                           *** Shutting down KDIIS ***
                      *** Re-Reading the Fockian *** 
                      *** Removing any level shift *** 
ITER      Energy       Delta-E        Grad      Rot      Max-DP    RMS-DP
  3   -115.04735546  -0.0001065806  0.002069  0.002069  0.004410  0.000426
  4   -115.04741717  -0.0000617101  0.000038  0.000029  0.000064  0.000004
  5   -115.04741718  -0.0000000113  0.000012  0.000012  0.000026  0.000002
  6   -115.04741718  -0.0000000023  0.000003  0.000004  0.000007  0.000001
                  ***Gradient check signals convergence***
              ***Rediagonalizing the Fockian in SOSCF/NRSCF***

               *****************************************************
               *                     SUCCESS                       *
               *           SCF CONVERGED AFTER   7 CYCLES          *
               *****************************************************


----------------
TOTAL SCF ENERGY
----------------

Total Energy       :         -115.04741718 Eh           -3130.59938 eV

Components:
Nuclear Repulsion  :           40.42526405 Eh            1100.02736 eV
Electronic Energy  :         -155.47268122 Eh           -4230.62674 eV
One Electron Energy:         -237.10878720 Eh           -6452.05812 eV
Two Electron Energy:           81.63610597 Eh            2221.43138 eV

Virial components:
Potential Energy   :         -229.97014474 Eh           -6257.80578 eV
Kinetic Energy     :          114.92272756 Eh            3127.20640 eV
Virial Ratio       :            2.00108499


---------------
SCF CONVERGENCE
---------------

  Last Energy change         ...   -1.5297e-10  Tolerance :   1.0000e-08
  Last MAX-Density change    ...    1.8920e-06  Tolerance :   1.0000e-07
  Last RMS-Density change    ...    1.0152e-07  Tolerance :   5.0000e-09
  Last Orbital Gradient      ...    8.5857e-07  Tolerance :   1.0000e-05
  Last Orbital Rotation      ...    6.2463e-07  Tolerance :   1.0000e-05

             **** THE GBW FILE WAS UPDATED (methanol_anti.gbw) ****
             **** DENSITY FILE WAS UPDATED (methanol_anti.scfp.tmp) ****
             **** ENERGY FILE WAS UPDATED (methanol_anti.en.tmp) ****
----------------
ORBITAL ENERGIES
----------------

  NO   OCC          E(Eh)            E(eV) 
   0   2.0000     -20.545553      -559.0729 
   1   2.0000     -11.281675      -306.9900 
   2   2.0000      -1.358011       -36.9534 
   3   2.0000      -0.913706       -24.8632 
   4   2.0000      -0.684830       -18.6352 
   5   2.0000      -0.615246       -16.7417 
   6   2.0000      -0.588111       -16.0033 
   7   2.0000      -0.493146       -13.4192 
   8   2.0000      -0.438018       -11.9191 
   9   0.0000       0.182556         4.9676 
  10   0.0000       0.226301         6.1580 
  11   0.0000       0.262125         7.1328 
  12   0.0000       0.266964         7.2645 
  13   0.0000       0.361990         9.8503 
  14   0.0000       0.637545        17.3485 
  15   0.0000       0.639397        17.3989 
  16   0.0000       0.733158        19.9502 
  17   0.0000       0.804027        21.8787 
  18   0.0000       0.852021        23.1847 
  19   0.0000       0.874467        23.7955 
  20   0.0000       0.905220        24.6323 
  21   0.0000       1.113465        30.2989 
  22   0.0000       1.150280        31.3007 
  23   0.0000       1.161813        31.6145 
  24   0.0000       1.276771        34.7427 
  25   0.0000       1.337251        36.3885 
  26   0.0000       1.446150        39.3517 
  27   0.0000       1.596163        43.4338 
  28   0.0000       1.649173        44.8763 
  29   0.0000       1.666500        45.3478 
  30   0.0000       1.833588        49.8945 
  31   0.0000       1.873945        50.9926 
  32   0.0000       1.926661        52.4271 
  33   0.0000       1.951428        53.1011 
  34   0.0000       2.022777        55.0426 
  35   0.0000       2.165605        58.9291 
  36   0.0000       2.268618        61.7322 
  37   0.0000       2.351439        63.9859 
  38   0.0000       2.367685        64.4280 
  39   0.0000       2.539051        69.0911 
  40   0.0000       2.713918        73.8495 
  41   0.0000       2.716157        73.9104 
  42   0.0000       2.735006        74.4233 
  43   0.0000       3.316461        90.2455 
  44   0.0000       3.393166        92.3327 
  45   0.0000       3.451861        93.9299 
  46   0.0000       3.602965        98.0416 
  47   0.0000       4.115457       111.9873 

                    ********************************
                    * MULLIKEN POPULATION ANALYSIS *
                    ********************************

-----------------------
MULLIKEN ATOMIC CHARGES
-----------------------
   0 C :    0.130564
   1 O :   -0.372021
   2 H :    0.149467
   3 H :    0.020628
   4 H :    0.050734
   5 H :    0.020628
Sum of atomic charges:   -0.0000000

--------------------------------
MULLIKEN REDUCED ORBITAL CHARGES
--------------------------------
  0 C s       :     3.053792  s :     3.053792
      pz      :     0.982696  p :     2.706663
      px      :     0.703808
      py      :     1.020159
      dz2     :     0.016334  d :     0.108981
      dxz     :     0.025665
      dyz     :     0.012795
      dx2y2   :     0.029987
      dxy     :     0.024200
  1 O s       :     3.714444  s :     3.714444
      pz      :     1.926962  p :     4.642099
      px      :     1.291966
      py      :     1.423171
      dz2     :     0.002546  d :     0.015478
      dxz     :     0.001496
      dyz     :     0.000755
      dx2y2   :     0.007061
      dxy     :     0.003620
  2 H s       :     0.765516  s :     0.765516
      pz      :     0.023021  p :     0.085018
      px      :     0.020689
      py      :     0.041308
  3 H s       :     0.951029  s :     0.951029
      pz      :     0.016045  p :     0.028343
      px      :     0.003483
      py      :     0.008815
  4 H s       :     0.920401  s :     0.920401
      pz      :     0.005116  p :     0.028865
      px      :     0.005070
      py      :     0.018679
  5 H s       :     0.951029  s :     0.951029
      pz      :     0.016045  p :     0.028343
      px      :     0.003483
      py      :     0.008815


                     *******************************
                     * LOEWDIN POPULATION ANALYSIS *
                     *******************************

----------------------
LOEWDIN ATOMIC CHARGES
----------------------
   0 C :    0.002096
   1 O :   -0.072956
   2 H :    0.031183
   3 H :    0.007308
   4 H :    0.025060
   5 H :    0.007309

-------------------------------
LOEWDIN REDUCED ORBITAL CHARGES
-------------------------------
  0 C s       :     2.827945  s :     2.827945
      pz      :     1.049256  p :     2.909423
      px      :     0.799934
      py      :     1.060233
      dz2     :     0.040412  d :     0.260537
      dxz     :     0.064534
      dyz     :     0.036038
      dx2y2   :     0.063044
      dxy     :     0.056509
  1 O s       :     3.384208  s :     3.384208
      pz      :     1.850869  p :     4.661100
      px      :     1.318566
      py      :     1.491665
      dz2     :     0.004368  d :     0.027648
      dxz     :     0.002649
      dyz     :     0.000211
      dx2y2   :     0.012821
      dxy     :     0.007599
  2 H s       :     0.749149  s :     0.749149
      pz      :     0.066439  p :     0.219668
      px      :     0.049553
      py      :     0.103676
  3 H s       :     0.920671  s :     0.920671
      pz      :     0.037301  p :     0.072020
      px      :     0.012497
      py      :     0.022223
  4 H s       :     0.903619  s :     0.903619
      pz      :     0.013417  p :     0.071321
      px      :     0.014528
      py      :     0.043376
  5 H s       :     0.920672  s :     0.920672
      pz      :     0.037300  p :     0.072019
      px      :     0.012497
      py      :     0.022222


                      *****************************
                      * MAYER POPULATION ANALYSIS *
                      *****************************

  NA   - Mulliken gross atomic population
  ZA   - Total nuclear charge
  QA   - Mulliken gross atomic charge
  VA   - Mayer's total valence
  BVA  - Mayer's bonded valence
  FA   - Mayer's free valence

  ATOM       NA         ZA         QA         VA         BVA        FA
  0 C      5.8694     6.0000     0.1306     3.9664     3.9664    -0.0000
  1 O      8.3720     8.0000    -0.3720     2.0100     2.0100     0.0000
  2 H      0.8505     1.0000     0.1495     1.0320     1.0320     0.0000
  3 H      0.9794     1.0000     0.0206     0.9694     0.9694    -0.0000
  4 H      0.9493     1.0000     0.0507     0.9785     0.9785    -0.0000
  5 H      0.9794     1.0000     0.0206     0.9694     0.9694    -0.0000

  Mayer bond orders larger than 0.1
B(  0-C ,  1-O ) :   0.9939 B(  0-C ,  3-H ) :   0.9861 B(  0-C ,  4-H ) :   0.9886 
B(  0-C ,  5-H ) :   0.9861 B(  1-O ,  2-H ) :   1.0148 

-------
TIMINGS
-------

Total SCF time: 0 days 0 hours 0 min 1 sec 

Total time                  ....       1.130 sec
Sum of individual times     ....       1.004 sec  ( 88.8%)

Fock matrix formation       ....       0.993 sec  ( 87.9%)
Diagonalization             ....       0.002 sec  (  0.1%)
Density matrix formation    ....       0.000 sec  (  0.0%)
Population analysis         ....       0.002 sec  (  0.2%)
Initial guess               ....       0.005 sec  (  0.5%)
Orbital Transformation      ....       0.000 sec  (  0.0%)
Orbital Orthonormalization  ....       0.000 sec  (  0.0%)
DIIS solution               ....       0.000 sec  (  0.0%)
SOSCF solution              ....       0.001 sec  (  0.1%)


           ************************************************************
           *        Program running with 4 parallel MPI-processes     *
           *              working on a common directory               *
           ************************************************************


------------------------------------------------------------------------------- 
                              ORCA-MATRIX DRIVEN CI                            
------------------------------------------------------------------------------- 


Wavefunction type
-----------------
Correlation treatment                      ...      CCSD     
Single excitations                         ... ON
Orbital optimization                       ... OFF
Calculation of Z vector                    ... OFF
Calculation of Brueckner orbitals          ... OFF
Perturbative triple excitations            ... ON
Calculation of F12 correction              ... OFF
Frozen core treatment                      ... chemical core (4 el)
Reference Wavefunction                     ... RHF
  Internal Orbitals:     2 ...    8 (  7 MO's/ 14 electrons)
  Virtual  Orbitals:     9 ...   47 ( 39 MO's              )
Number of AO's                             ...     48
Number of electrons                        ...     18
Number of correlated electrons             ...     14

Algorithmic settings
--------------------
Integral transformation                    ... All integrals via the RI transformation
K(C) Formation                             ... RI-DLPNO
   PNO-Integral Storage                    ... ON DISK
   PNO occupation number cut-off           ... 1.000e-07
   Singles PNO occupation number cut-off   ... 3.000e-09
   PNO Mulliken prescreening cut-off       ... 1.000e-03
   Domain cut-off (Mulliken population)    ... 1.000e-03
   PNO Normalization                       ...    1
Maximum number of iterations               ...        50
Convergence tolerance (max. residuum)      ... 1.000e-05
Level shift for amplitude update           ... 2.000e-01
Maximum number of DIIS vectors             ...         7
DIIS turned on at iteration                ...         0
Damping before turning on DIIS             ...     0.500
Damping after turning on DIIS              ...     0.000
Pair specific amplitude update             ... OFF
Natural orbital iterations                 ... OFF
Perturbative natural orbital generation    ... OFF
Printlevel                                 ... 2

Singles Fock matrix elements calculated using PNOs.

Memory handling:
----------------
Maximum memory for working arrays          ...   8000 MB
Data storage in matrix containers          ... UNCOMPRESSED
Data type for integral storage             ... DOUBLE
In-Core Storage of quantities:
   Amplitudes+Sigma Vector      ... NO
   J+K operators                ... NO
   DIIS vectors                 ... NO
   3-external integrals         ... NO
   4-external integrals         ... NO

Localization treatment:
-----------------------
Localization option                        ...    6
Localization threshhold                    ... -1.0e+00
Using relative localization threshhold     ... 1.0e-08
Neglect threshold for strong pairs         ... 1.000e-05 Eh
Prescreening threshold for very weak pairs ... 1.000e-07 Eh

Initializing the integral package          ... done
Localizing the valence orbitals
------------------------------------------------------------------------------
                           ORCA ORBITAL LOCALIZATION
------------------------------------------------------------------------------

Input orbitals are from                  ... methanol_anti.proc0.gbw
Output orbitals are to                   ... methanol_anti.proc0.loc
Max. number of iterations                ... 128
Localizations seeded randomly            ... off
Convergence tolerance                    ... 1.000e-06
Using relative localization threshhold   ... 1.000e-08
Treshold for strong local MOs            ... 9.500e-01
Treshold for bond MOs                    ... 8.500e-01
Operator                                 ... 0
Orbital range for localization           ... 2 to 8
Localization criterion                   ... FOSTER-BOYS (AUGMENTED HESSIAN)
Doing the dipole integrals     ... o.k.
Initial value of the localization sum :    15.757723
ITERATION   0 : L=   22.6790825457 DL=  6.92e+00 (AVERGE_DL)=    0.5740980518 
ITERATION   1 : L=   23.7998335367 DL=  1.12e+00 (AVERGE_DL)=    0.2310175206 
ITERATION   2 : L=   23.8286170657 DL=  2.88e-02 (AVERGE_DL)=    0.0370222128 
ITERATION   3 : L=   23.8302463493 DL=  1.63e-03 (AVERGE_DL)=    0.0088082312 
ITERATION   4 : L=   23.8303735477 DL=  1.27e-04 (AVERGE_DL)=    0.0024611101 
ITERATION   5 : L=   23.8303857345 DL=  1.22e-05 (AVERGE_DL)=    0.0007617912 
ITERATION   6 : L=   23.8303868616 DL=  1.13e-06 (AVERGE_DL)=    0.0002316743 
ITERATION   7 : L=   23.8303869604 DL=  9.88e-08 (AVERGE_DL)=    0.0000685848 
LOCALIZATION SUM CONVERGED

------------------------------------------------------
AUGMENTED HESSIAN OPTIMIZATION OF FOSTER-BOYS ORBITALS
------------------------------------------------------

Spin operator:           0
Orbital window:          2 to 8
Number of iterations:    128
Gradient tolerance:      1.000e-06
Number of pairs:         21
Davidson threshold:      2000
Diagonalization method:  LAPACK
Iter:    0   L: 23.8303869604   Grad. norm: 2.803442e-04
   *** Likely close to a maximum now. ***
       Augmented Hessian eigenvalues:  1.85e-08 -1.36e+00 -3.58e+00 -5.19e+00 ... 
Iter:    1   L: 23.8303869697   Grad. norm: 7.514579e-09
LOCALIZATION HAS CONVERGED.

Eigenvalues of the Hessian:
  0 -1.360e+00
  1 -3.585e+00
  2 -5.186e+00
  3 -5.532e+00
  4 -7.534e+00
  5 -1.031e+01
  6 -1.877e+01
  7 -2.189e+01
  8 -2.210e+01
  9 -2.475e+01
    ...


------------------------------------------------------------------------------- 
                    LOCALIZED MOLECULAR ORBITAL COMPOSITIONS                   
------------------------------------------------------------------------------- 

The Mulliken populations for each LMO on each atom are computed
The LMO`s will be ordered according to atom index and type
  (A) Strongly localized MO`s have populations of >=0.950 on one atom
  (B) Two center bond orbitals have populations of >=0.850 on two atoms
  (C) Other MO`s are considered to be `delocalized`

FOUND  -   2 strongly local MO`s
       -   5 two center bond MO`s
       -   0 significantly delocalized MO`s

Rather strongly localized orbitals:
MO   3:   1O  -   0.989110
MO   2:   1O  -   0.989110
Bond-like localized orbitals:
MO   8:   5H  -   0.509299  and   0C  -   0.513886
MO   7:   4H  -   0.488379  and   0C  -   0.528345
MO   6:   3H  -   0.509299  and   0C  -   0.513886
MO   5:   2H  -   0.425678  and   1O  -   0.579582
MO   4:   1O  -   0.651712  and   0C  -   0.362314
Localized MO's were stored in: methanol_anti.proc0.loc

Localizing the core orbitals
------------------------------------------------------------------------------
                           ORCA ORBITAL LOCALIZATION
------------------------------------------------------------------------------

Input orbitals are from                  ... methanol_anti.proc0.loc
Output orbitals are to                   ... methanol_anti.proc0.loc
Max. number of iterations                ... 128
Localizations seeded randomly            ... off
Convergence tolerance                    ... 1.000e-06
Using relative localization threshhold   ... 1.000e-08
Treshold for strong local MOs            ... 9.500e-01
Treshold for bond MOs                    ... 8.500e-01
Operator                                 ... 0
Orbital range for localization           ... 0 to 1
Localization criterion                   ... FOSTER-BOYS (AUGMENTED HESSIAN)
Doing the dipole integrals     ... o.k.
Initial value of the localization sum :     3.572975
ITERATION   0 : L=    3.5729754345 DL=  3.33e-08 (AVERGE_DL)=    0.0001823538 
LOCALIZATION SUM CONVERGED

------------------------------------------------------
AUGMENTED HESSIAN OPTIMIZATION OF FOSTER-BOYS ORBITALS
------------------------------------------------------

Spin operator:           0
Orbital window:          0 to 1
Number of iterations:    128
Gradient tolerance:      1.000e-06
Number of pairs:         1
Davidson threshold:      2000
Diagonalization method:  LAPACK
Iter:    0   L: 3.5729754345   Grad. norm: 4.966443e-18
   *** Likely close to a maximum now. ***
       Augmented Hessian eigenvalues:  8.71e-37 -2.83e+01
Iter:    1   L: 3.5729754345   Grad. norm: 6.483502e-24
LOCALIZATION HAS CONVERGED.

Eigenvalues of the Hessian:
  0 -2.833e+01


------------------------------------------------------------------------------- 
                    LOCALIZED MOLECULAR ORBITAL COMPOSITIONS                   
------------------------------------------------------------------------------- 

The Mulliken populations for each LMO on each atom are computed
The LMO`s will be ordered according to atom index and type
  (A) Strongly localized MO`s have populations of >=0.950 on one atom
  (B) Two center bond orbitals have populations of >=0.850 on two atoms
  (C) Other MO`s are considered to be `delocalized`

FOUND  -   2 strongly local MO`s
       -   0 two center bond MO`s
       -   0 significantly delocalized MO`s

Rather strongly localized orbitals:
MO   1:   1O  -   0.999908
MO   0:   0C  -   0.999800
Localized MO's were stored in: methanol_anti.proc0.loc

Warning: internal orbitals are localized - no re-canonicalization of internal orbitals

--------------------------
CLOSED-SHELL FOCK OPERATOR
--------------------------

RI-JK section for the Fock operator:
  RHF full Fock operator         ... done
  RHF frozen core Fock operator  ... done
Time needed for Fock operator              ...            0.360 sec
Reference energy                           ...   -115.047417179

--------------
DLPNO SETTINGS (2015 fully linear scaling implementation)
--------------

TCutMKN:           1.000e-03
TCutPAO:           1.000e-03
TCutPNO:           1.000e-07
TCutPNOSingles:    3.000e-09
TCutEN:            9.700e-01
TCutPAOExt:        1.000e-01
TCutPairs:         1.000e-05
TCutPre:           1.000e-07
TCutOSV:           1.000e-06
TCutDOij:          1.000e-05
TCutDO:            5.000e-03
TCutC:             1.000e-04
TCutCPAO:          1.000e-03
TCutCMO:           1.000e-03
TScaleDOMP2PreScr: 2.000e+00
TScaleMKNMP2PreScr:1.000e+01
TScalePNOMP2PreScr:1.000e+00
PAO overlap thresh 1.000e-08
Using PNOs for Singles Fock computation
Use new domains
Use fully linear algorithm
TCutTNO:           1.000e-09
TCutMP2Pairs:      1.000e-06
TCutDOStrong:      2.000e-03
TCutMKNStrong:     1.000e-02
TCutMKNWeak:       1.000e-01
TCutDOWeak:        4.000e-03
NTCutTNO:          1

--------------------------
Calculating differential overlap integrals ... ok
--------------------------
ELECTRON PAIR PRESCREENING
--------------------------

Dipole-based pair screening          .... used

   TCutDOij = 1.000000e-05
   TCutPre  = 1.000000e-07
   .... Finished loop over pairs
Total time spent in the prescreening                  ...     0.000 sec
sum of pair energies estimated for screened out pairs ...       0.000000000000 Eh
Thresholds for map construction and integral transformation for crude MP2:
   TCutMKN                    ...     1.0e-02
   TCutDO                     ...     1.0e-02
   TCutPairs                  ...     1.0e-05
   TCutPNO_CrudeMP2           ...     1.0e-07
   TCutPNOSingles_CrudeMP2    ...     3.0e-09
--------------------------------
LOCAL RI TRANSFORMATION (IAVPAO)
--------------------------------

Orbital window:       2 to 8
Number of PAOs:      48
Basis functions:     48 (24 shells)
Aux. functions:     168 (60 shells)

Processing maps (0.0 sec)
Average map sizes:
   Aux shells -> MOs               7.0
   Aux shells -> PAOs             48.0
   MOs        -> AO shells        24.0
   PAOs       -> AO shells        24.0

Calculating integrals (0.2 sec, 0.433 MB)
Sorting integrals (0.0 sec, 0.431 MB)
Total time for the integral transformation: 0.2 sec
--------------------------------
INITIAL GUESS AND PNO GENERATION
--------------------------------

PNO truncation parameters                   .... 
    PAOOverlapThresh   =        1.000e-08

    TCutPairs          =        1.000e-05
    TCutPNO            =        1.000e-07
    TCutPNOSingles     =        3.000e-09
    TCutMP2Pairs       =        1.000e-06
    TCutMKN            =        1.000e-02
    TCutDO             =        1.000e-02

Pair selection                          .... not used
Type of local MP2 treatment                 .... semi-local MP2
Strategy for PNO selection                  .... occupation number selection
Pair density normalization                  .... MP2 norm
Spin component scaling                      .... not used

   .... Finished loop over pairs
Making pair pair interaction lists          ... done

                       ===========================
                         28 OF   28 PAIRS ARE KEPT CCSD PAIRS
                          0 OF   28 PAIRS ARE KEPT MP2 PAIRS FOR (T)
                          0 OF   28 PAIRS ARE SKIPPED
                       ===========================

Total time spent in the initial guess                 ...     0.012 sec
SL-MP2 correlation energy (all non-screened pairs)    ...      -0.327151229205 Eh

Initial PNO correlation energy                        ...      -0.327120695395 Eh
sum of pair energies prescreened and skipped MP2 pairs...       0.000000000000 Eh
sum of pair energies of crude MP2 skipped pairs only  ...       0.000000000000 Eh
sum of MP2 pair energies for pairs that were not kept ...       0.000000000000 Eh
sum of PNO error estimates for the kept pairs         ...      -0.000030533809 Eh
                                                          --------------------
sum of all corrections                                         -0.000030533809
Initial total correlation energy                               -0.327151229205
Thresholds for map construction and integral transformation for fine MP2 and CCSD(T) calculation:
   TCutMKN   ...     1.0e-03
   TCutDO    ...     5.0e-03
   TCutPairs ...     1.0e-05
   TCutCMO   ...     1.0e-03
   TCutCPAO  ...     1.0e-03

Thresholds for map construction and integral transformation for strong Triples:
   TCutMKN   ...     1.0e-02
   TCutDO    ...     1.0e-02
   TCutCMO   ...     1.0e-03
   TCutCPAO  ...     1.0e-03

Thresholds for map construction and integral transformation for weak Triples:
   TCutMKN   ...     1.0e-01
   TCutDO    ...     2.0e-02
   TCutCMO   ...     1.0e-03
   TCutCPAO  ...     1.0e-03

--------------------------------
LOCAL RI TRANSFORMATION (IAVPAO)
--------------------------------

Orbital window:       2 to 8
Number of PAOs:      48
Basis functions:     48 (24 shells)
Aux. functions:     168 (60 shells)

Processing maps (0.0 sec)
Average map sizes:
   Aux shells -> MOs               7.0
   Aux shells -> PAOs             48.0
   MOs        -> AO shells        24.0
   PAOs       -> AO shells        24.0

Calculating integrals (0.2 sec, 0.433 MB)
Sorting integrals (0.0 sec, 0.431 MB)
Total time for the integral transformation: 0.2 sec
--------------------------------
INITIAL GUESS AND PNO GENERATION
--------------------------------

PNO truncation parameters                   .... 
    ScaleTCutPNO       =        1.000e-02
    PAOOverlapThresh   =        1.000e-08

    TCutPairs          =        1.000e-05
    TCutPNO            =        1.000e-07
    TCutPNOSingles     =        3.000e-09
    TCutMP2Pairs       =        1.000e-06
    TCutMKN            =        1.000e-03
    TCutDO             =        5.000e-03

Pair selection                          .... not used
Type of local MP2 treatment                 .... full local PMP2
Strategy for PNO selection                  .... occupation number selection
Pair density normalization                  .... MP2 norm
Spin component scaling                      .... not used

PASS-1: Formation of initial guess LMP2 amplitudes
Initial amplitudes guess done. Entering LMP2 iteration loop:
   Max. no of iterations          ...  50
   Energy convergence tolerance   ...    1.0e-07
   Residual convergence tolerance ...    5.0e-07
   Fock matrix cutoff             ...    1.0e-05 Eh
   DIIS convergence acceleration parameters:
        Max # vectors in DIIS     ... 7
        Start iteration of DIIS   ... 0
        Levelshift                ... 2.000e-01
        Damping factor 1          ... 5.000e-01
        Damping factor 2          ... 1.000e+00
   L-MP2 PNO cut-off              ...   1.0e-09
   L-MP2 PNO cut-off (core)       ...   1.0e-11
                           *** Turning on DIIS ***
LMP2-Iter=   0:  ELMP2= -0.333972756324  DE=   6.7e-03 RMAX=   6.3e-03
LMP2-Iter=   1:  ELMP2= -0.337409567902  DE=   3.4e-03 RMAX=   3.2e-03
LMP2-Iter=   2:  ELMP2= -0.337893728934  DE=   4.8e-04 RMAX=   5.8e-04
LMP2-Iter=   3:  ELMP2= -0.337947302315  DE=   5.4e-05 RMAX=   1.9e-04
LMP2-Iter=   4:  ELMP2= -0.337950897612  DE=   3.6e-06 RMAX=   1.5e-05
LMP2-Iter=   5:  ELMP2= -0.337950658895  DE=   2.4e-07 RMAX=   8.2e-06
LMP2-Iter=   6:  ELMP2= -0.337950612447  DE=   4.6e-08 RMAX=   8.8e-07
LMP2-Iter=   7:  ELMP2= -0.337950607146  DE=   5.3e-09 RMAX=   2.5e-07
LMP2-Iter=   8:  ELMP2= -0.337950611388  DE=   4.2e-09 RMAX=   3.3e-08 => CONVERGED
PASS-2: Formation of Pair natural orbitals
   .... Finished loop over pairs

 PNO Occupation Number Statistics: 
  | Av. % of trace(Dij) retained        ...  99.981644528679
  | sigma^2 in % of trace(Dij) retained ...   4.80e-04
  | Av. % of trace(Di) retained         ...  99.999932227576
  | sigma^2 in % of trace(Di) retained  ...   1.83e-09
 Distributions of % trace(Dij) recovered:
  |       >= 99.9  ...    28 (100.0 % of all pairs)
 Distributions of % trace(Di) recovered :
  |       >= 99.9  ...     7 (100.0 % of all I-pairs )

Making pair pair interaction lists          ... done

                       ===========================
                         28 OF   28 PAIRS ARE KEPT
                       ===========================

Total time spent in the initial guess                 ...     0.095 sec
L-MP2 correlation energy (all non-screened pairs)     ...      -0.337950611388 Eh
L-MP2 PNO error correction                            ...      -0.000000040524 Eh
                                                          --------------------
Initial total L-MP2 energy (non-screened pairs)       ...      -0.337950651912 Eh

Initial PNO correlation energy                        ...      -0.337919728571 Eh
sum of pair energies estimated for screened out pairs ...       0.000000000000 Eh
sum of MP2 pair energies for pairs that were not kept ...       0.000000000000 Eh
sum of PNO error estimates for the kept pairs         ...      -0.000030923341 Eh
                                                          --------------------
sum of all corrections                                         -0.000030923341
Initial total correlation energy                               -0.337950651912
Thresholds for map construction and integral transformation for fine MP2 and CCSD(T) calculation:
   TCutMKN   ...     1.0e-03
   TCutDO    ...     5.0e-03
   TCutPairs ...     1.0e-05
   TCutCMO   ...     1.0e-03
   TCutCPAO  ...     1.0e-03

Time for aux screen maps:            0.000
Time for maps after fine MP2:            0.001
-----------------------------
LOCAL RI TRANSFORMATION (IJV)
-----------------------------

Orbital window:       2 to 8
Basis functions:     48 (24 shells)
Aux. functions:     168 (60 shells)

Processing maps (0.0 sec)
Average map sizes:
   Aux shells -> MOs(i)            7.0
   Aux shells -> MOs(j)            7.0
   MOs        -> AO shells        24.0

Calculating integrals (0.2 sec, 0.065 MB)
Sorting integrals (0.0 sec, 0.063 MB)
Total time for the integral transformation: 0.2 sec
--------------------------------
LOCAL RI TRANSFORMATION (VABPAO)
--------------------------------

Number of PAOs:      48
Basis functions:     48 (24 shells)
Aux. functions:     168 (60 shells)

Processing maps (0.0 sec)
Average map sizes:
   Aux shells -> PAOs             48.0
   PAOs       -> AO shells        24.0

Calculating integrals (0.2 sec, 5.259 MB)
Finished


-------------------------------------
Pair Pair Term precalculation with     
RI-(ij|mn) and (im|jn) transformation  
ON THE FLY                             
-------------------------------------

   IBatch   1 (of   1)              ... done (    0.193 sec)
Total EXT                           ...           0.193 sec

---------------------
RI-PNO TRANSFORMATION
---------------------

Total Number of PNOs                   ...   766
Average number of PNOs per pair        ...    27
Maximal number of PNOs per pair        ...    32
   #pairs with  1 -  5 PNOs   :    0
   #pairs with  6 - 10 PNOs   :    0
   #pairs with 11 - 15 PNOs   :    0
   #pairs with 16 - 20 PNOs   :    1
   #pairs with 21 - 25 PNOs   :    8
   #pairs with 26 - 30 PNOs   :   16
   #pairs with 31 - 35 PNOs   :    3
   #pairs with 36 - 40 PNOs   :    0
   #pairs with 41 - 45 PNOs   :    0
   #pairs with 46 - 50 PNOs   :    0

Generation of (ij|ab)[P] integrals            ... on
Generation of (ia|bc)[P],(ja|bc)[P] integrals ... on
Storage of 3 and 4 external integrals         ... on
Generation of ALL (ka|bc)[P] integrals        ... on
Keep RI integrals in memory                   ... off

Ibatch:  1 (of  1)
Starting 2-4 index PNO integral generation ... done

Timings:
Total PNO integral transformation time     ...          0.111 sec
Size of the 3-external file                ...         4 MB
Size of the 4-external file                ...        17 MB
Size of the IKJL file                      ...         0 MB
Size of the all 3-external file            ...        16 MB
Size of the 1-external file                ...         0 MB

Making pair/pair overlap matrices          ... done (    0.010 sec)
Size of the pair overlap file              ... 3 MB
Redoing the guess amplitudes               ... done (    0.000 sec)

-------------------------
FINAL STARTUP INFORMATION
-------------------------

E(0)                                       ...   -115.047417179
E(L-MP2)                                   ...     -0.337950652
E(L-MP2) including corrections             ...     -0.337950652
Initial E(tot)                             ...   -115.385367831
<T|T>                                      ...      0.089225871
Number of pairs included                   ... 28
Total number of pairs                      ... 28

------------------------------------------------
                  RHF COUPLED CLUSTER ITERATIONS
------------------------------------------------

Number of PNO amplitudes to be optimized   ...        21250
Number of non-PNO amplitudes               ...        42588
Untruncated number of regular amplitudes   ...        42588

Iter       E(tot)           E(Corr)          Delta-E          Residual     Time
  0   -115.374665060     -0.327216957      0.010733694      0.022052653    0.13
                           *** Turning on DIIS ***
  1   -115.397559511     -0.350111408     -0.022894451      0.008591445    0.13
  2   -115.408704715     -0.361256612     -0.011145204      0.001863165    0.13
  3   -115.410300172     -0.362852069     -0.001595457      0.001099858    0.13
  4   -115.410701959     -0.363253857     -0.000401788      0.000259425    0.13
  5   -115.410782149     -0.363334046     -0.000080190      0.000124341    0.13
  6   -115.410796722     -0.363348619     -0.000014573      0.000060059    0.13
  7   -115.410799605     -0.363351502     -0.000002883      0.000027252    0.13
  8   -115.410800367     -0.363352264     -0.000000762      0.000009085    0.13
               --- The Coupled-Cluster iterations have converged ---

----------------------
COUPLED CLUSTER ENERGY
----------------------

E(0)                                       ...   -115.047417179
E(CORR)(strong-pairs)                      ...     -0.363352264
E(CORR)(weak-pairs)                        ...     -0.000030923
E(CORR)(corrected)                         ...     -0.363383188
E(TOT)                                     ...   -115.410800367
Singles Norm <S|S>**1/2                    ...      0.028392907  
T1 diagnostic                              ...      0.007588324  

------------------
LARGEST AMPLITUDES
------------------
   6-> 16   6-> 16       0.046656
   8-> 16   8-> 16       0.046655
   7-> 17   7-> 17       0.043692
   8->  9   8->  9       0.037489
   6->  9   6->  9       0.037489
   4-> 14   4-> 14       0.037463
   7->  9   7->  9       0.036340
   5-> 12   5-> 12       0.032853
   8-> 16   8->  9       0.031538
   8->  9   8-> 16       0.031538
   6->  9   6-> 16       0.031537
   6-> 16   6->  9       0.031537
   7->  9   7-> 17       0.030782
   7-> 17   7->  9       0.030782
   5->  9   5->  9       0.030744
   3-> 17   3-> 17       0.027147


-------------------------------------------
DLPNO BASED TRIPLES CORRECTION
-------------------------------------------

Singles multiplier          ...  1.000000
TCutTNO                     ... 1.000e-09
TCutMP2Pairs                ... 1.000e-06
TCutDOStrong                ... 1.000e-02
TCutMKNStrong               ... 1.000e-02
TCutDOWeak                  ... 2.000e-02
TCutMKNWeak                 ... 1.000e-01

Fragment selection                          .... not used
Number of Triples that are to be computed   ...        77

 . . . . . . . . .
10% done  
20% done  
30% done  
40% done  
50% done  
60% done  
70% done  
80% done  
90% done               (      0.180 sec)
Triples timings:
Total time for T0               ...     0.202 sec
Total time for Iterative (T)    ...     0.000 sec
Total time of overall (T)       ...     0.202 sec

Triples List generation         ...     0.000 sec
TNO generation                  ...     0.022 sec
Pair density generation         ...     0.000 sec
Look up tables                  ...     0.000 sec
Generating 3-index integrals    ...     0.064 sec
  Make 4-ind.int. from 3-ind.int...     0.041 sec
  Projecting amplitudes (D + S) ...     0.013 sec
  Downprojecting integrals      ...     0.000 sec
  Energy contr. (sum over a,b,c)...     0.024 sec
Fitting ET(->0)                 ...     0.000 sec

Everything after 3-index        ...     0.115 sec

Timing details:
 TNO integrals                  ...     0.100 sec
   Reading 3-index integrals    ...     0.001 sec
   Sorting integrals            ...     0.019 sec
       Sorting integrals 1      ...     0.000 sec
       Sorting integrals 2      ...     0.005 sec
       Sorting integrals 3      ...     0.002 sec
       Sorting integrals 4      ...     0.000 sec
       Sorting integrals 5      ...     0.001 sec
       Sorting integrals 6      ...     0.011 sec
   Calculating local VM**-1/2   ...     0.003 sec
   Orthogonal. integrals        ...     0.005 sec
   Multipl. 3-index integrals   ...     0.073 sec
   All concerning IRIab (w/TNO) ...     0.020 sec

 Calculate W0/W1                ...     0.038 sec
 W 3-ext contribution           ...     0.021 sec
 W 3-int contribution           ...     0.006 sec
 Sorting W                      ...     0.010 sec

 V exchange contribution        ...     0.011 sec

 Timings for Triples without generation
     of 3-index integrals       ...     0.115 sec
       0 weak pairs             ...     0.115 sec
       1 weak pair              ...     0.000 sec
       2 weak pairs             ...     0.000 sec
       3 weak pairs             ...     0.000 sec
  Extra time for extrapolation  ...     0.000 sec

Number of Triples   (0, 1, 2, 3 weak pairs; overall):     77       0       0       0  (    77)
Number of Atoms     (0, 1, 2, 3 weak pairs; overall):    6.0     0.0     0.0     0.0  (     6)
Number of PAOs      (0, 1, 2, 3 weak pairs; overall):   48.0     0.0     0.0     0.0  (    48)
Number of AuxFcns   (0, 1, 2, 3 weak pairs; overall):  121.5     0.0     0.0     0.0  (   168)
Number of TNOs      (0, 1, 2, 3 weak pairs         ):   38.2     0.0     0.0     0.0
Aver. Number of NTNO, Atoms, PAOs, AuxFcns / Triples:     77    38.2     6.0    48.0   121.5

Triples Correction (T)                     ...     -0.007426781
Final correlation energy                   ...     -0.370809968
E(CCSD)                                    ...   -115.410800367
E(CCSD(T))                                 ...   -115.418227148


Maximum memory used throughout the entire calculation: 280.4 MB


------------------------------------------------------------------------------- 
                                     TIMINGS                                   
------------------------------------------------------------------------------- 


Total execution time                   ...        3.603 sec

Localization of occupied MO's          ...        0.342 sec (  9.5%)
Fock Matrix Formation                  ...        0.360 sec ( 10.0%)
Global overlap, Fock, MKN matrices     ...        0.106 sec (  2.9%)
Differential overlap integrals         ...        0.020 sec (  0.6%)
Organizing maps                        ...        0.002 sec (  0.1%)
RI 3-index integral generations        ...        0.824 sec ( 22.9%)
RI-PNO integral transformation         ...        0.351 sec (  9.7%)
Initial Guess                          ...        0.110 sec (  3.0%)
DIIS Solver                            ...        0.043 sec (  1.2%)
State Vector Update                    ...        0.001 sec (  0.0%)
Sigma-vector construction              ...        1.145 sec ( 31.8%)
  <D|H|D>(0-ext)                       ...        0.038 sec (  3.3% of sigma)
  <D|H|D>(2-ext Fock)                  ...        0.001 sec (  0.1% of sigma)
  <D|H|D>(2-ext)                       ...        0.084 sec (  7.3% of sigma)
  <D|H|D>(4-ext)                       ...        0.167 sec ( 14.6% of sigma)
  <D|H|D>(4-ext-corr)                  ...        0.557 sec ( 48.7% of sigma)
  CCSD doubles correction              ...        0.008 sec (  0.7% of sigma)
  <S|H|S>                              ...        0.012 sec (  1.0% of sigma)
  <S|H|D>(1-ext)                       ...        0.011 sec (  1.0% of sigma)
  <S|H|D>(3-ext)                       ...        0.016 sec (  1.4% of sigma)
  Fock-dressing                        ...        0.123 sec ( 10.7% of sigma)
  Singles amplitudes                   ...        0.009 sec (  0.8% of sigma)
  (ik|jl)-dressing                     ...        0.028 sec (  2.4% of sigma)
  (ij|ab),(ia|jb)-dressing             ...        0.075 sec (  6.6% of sigma)
Total Time for computing (T)           ...        0.203 sec (  5.6% of ALL)


-------------------------   --------------------
FINAL SINGLE POINT ENERGY      -115.418227147654
-------------------------   --------------------


                            ***************************************
                            *     ORCA property calculations      *
                            ***************************************

                                    ---------------------
                                    Active property flags
                                    ---------------------
   (+) Dipole Moment


------------------------------------------------------------------------------
                       ORCA ELECTRIC PROPERTIES CALCULATION
------------------------------------------------------------------------------

Dipole Moment Calculation                       ... on
Quadrupole Moment Calculation                   ... off
Polarizability Calculation                      ... off
GBWName                                         ... methanol_anti.gbw
Electron density file                           ... methanol_anti.scfp.tmp
The origin for moment calculation is the CENTER OF MASS  = ( 0.113071,  0.053091  0.000001)

-------------
DIPOLE MOMENT
-------------
                                X             Y             Z
Electronic contribution:      1.69067       0.35361       0.00000
Nuclear contribution   :     -2.03523      -0.95554       0.00001
                        -----------------------------------------
Total Dipole Moment    :     -0.34457      -0.60193       0.00001
                        -----------------------------------------
Magnitude (a.u.)       :      0.69358
Magnitude (Debye)      :      1.76293



--------------------
Rotational spectrum 
--------------------
 
Rotational constants in cm-1:     4.096585     0.843249     0.812623 
Rotational constants in MHz : 122812.539316 25279.979722 24361.827307 

 Dipole components along the rotational axes: 
x,y,z [a.u.] :    -0.373020     0.584726     0.000010 
x,y,z [Debye]:    -0.948141     1.486256     0.000025 

 

Timings for individual modules:

Sum of individual times         ...        5.193 sec (=   0.087 min)
GTO integral calculation        ...        0.279 sec (=   0.005 min)   5.4 %
SCF iterations                  ...        1.209 sec (=   0.020 min)  23.3 %
MDCI module                     ...        3.706 sec (=   0.062 min)  71.4 %
                             ****ORCA TERMINATED NORMALLY****
TOTAL RUN TIME: 0 days 0 hours 0 minutes 5 seconds 396 msec
methanol_anti.gbw -> /home1/pantazis/klk/VDZ/Energy_barrier/methanol_anti.gbw
methanol_anti.ges -> /home1/pantazis/klk/VDZ/Energy_barrier/methanol_anti.ges
methanol_anti.job -> /home1/pantazis/klk/VDZ/Energy_barrier/methanol_anti.job
methanol_anti.loc -> /home1/pantazis/klk/VDZ/Energy_barrier/methanol_anti.loc
methanol_anti.nodes -> /home1/pantazis/klk/VDZ/Energy_barrier/methanol_anti.nodes
methanol_anti.prop -> /home1/pantazis/klk/VDZ/Energy_barrier/methanol_anti.prop
methanol_anti_property.txt -> /home1/pantazis/klk/VDZ/Energy_barrier/methanol_anti_property.txt
methanol_anti.xyz -> /home1/pantazis/klk/VDZ/Energy_barrier/methanol_anti.xyz
cp: cannot stat methanol_anti.asa.inp: No such file or directory
