! Job execution by suborca V 6.07 on ZEUS !
Job started from zeus1, running /scratch/pantazis/methoxycyclohexane_eq__HFaCiw/orca/orca copied from /opt/orca on zeussn143 in /scratch/pantazis/methoxycyclohexane_eq__HFaCiw
Job execution start: Sat Jun 29 10:23:12 CEST 2019
Shared library path: /scratch/pantazis/methoxycyclohexane_eq__HFaCiw/orca:/opt/openmpi_1.10.2/lib:/opt/intel/mkl/lib/intel64:/opt/intel/lib/intel64:
PBS Job ID is: 158696.icqc
izeussn143
izeussn143
izeussn143
izeussn143

                                 *****************
                                 * O   R   C   A *
                                 *****************

           --- An Ab Initio, DFT and Semiempirical electronic structure package ---

                  #######################################################
                  #                        -***-                        #
                  #          Department of theory and spectroscopy      #
                  #               Directorship: Frank Neese             #
                  #        Max Planck Institute fuer Kohlenforschung    #
                  #                Kaiser Wilhelm Platz 1               #
                  #                 D-45470 Muelheim/Ruhr               #
                  #                      Germany                        #
                  #                                                     #
                  #                  All rights reserved                #
                  #                        -***-                        #
                  #######################################################


                         Program Version 4.1.x  -  STABLE  -
                                (SVN: $Rev: 14094$)
                ($Date: 2019-06-14 15:01:15 +0200 (Fri, 14 Jun 2019) $)

                         (BUILD: $Sun Jun 23 06:18:31 CEST 2019$)


 With contributions from (in alphabetic order):
   Daniel Aravena         : Magnetic Properties
   Michael Atanasov       : Ab Initio Ligand Field Theory
   Alexander A. Auer      : GIAO ZORA
   Ute Becker             : Parallelization
   Giovanni Bistoni       : ED, Open-shell LED
   Martin Brehm           : Molecular dynamics
   Dmytro Bykov           : SCF Hessian
   Vijay G. Chilkuri      : MRCI spin determinant printing
   Dipayan Datta          : RHF DLPNO-CCSD density
   Achintya Kumar Dutta   : EOM-CC, STEOM-CC
   Dmitry Ganyushin       : Spin-Orbit,Spin-Spin,Magnetic field MRCI
   Miquel Garcia          : C-PCM Hessian
   Yang Guo               : DLPNO-NEVPT2, CIM, IAO-localization
   Andreas Hansen         : Spin unrestricted coupled pair/coupled cluster methods
   Benjamin Helmich-Paris : CASSCF linear response (MC-RPA)
   Lee Huntington         : MR-EOM, pCC
   Robert Izsak           : Overlap fitted RIJCOSX, COSX-SCS-MP3, EOM
   Christian Kollmar      : KDIIS, OOCD, Brueckner-CCSD(T), CCSD density
   Simone Kossmann        : Meta GGA functionals, TD-DFT gradient, OOMP2, MP2 Hessian
   Martin Krupicka        : AUTO-CI
   Lucas Lang             : DCDCAS
   Dagmar Lenk            : GEPOL surface, SMD
   Dimitrios Liakos       : Extrapolation schemes; parallel MDCI
   Dimitrios Manganas     : ROCIS; embedding schemes
   Dimitrios Pantazis     : SARC Basis sets
   Taras Petrenko         : DFT Hessian,TD-DFT gradient, ASA, ECA, R-Raman, ABS, FL, XAS/XES, NRVS
   Peter Pinski           : DLPNO-MP2, DLPNO-MP2 Gradient
   Christoph Reimann      : Effective Core Potentials
   Marius Retegan         : Local ZFS, SOC
   Christoph Riplinger    : Optimizer, TS searches, QM/MM, DLPNO-CCSD(T), (RO)-DLPNO pert. Triples
   Tobias Risthaus        : Range-separated hybrids, TD-DFT gradient, RPA, STAB
   Michael Roemelt        : Restricted open shell CIS
   Masaaki Saitow         : Open-shell DLPNO
   Barbara Sandhoefer     : DKH picture change effects
   Avijit Sen             : IP-ROCIS
   Kantharuban Sivalingam : CASSCF convergence, NEVPT2, FIC-MRCI
   Bernardo de Souza      : ESD, SOC TD-DFT
   Georgi Stoychev        : AutoAux, RI-MP2 NMR
   Willem Van den Heuvel  : Paramagnetic NMR
   Boris Wezisla          : Elementary symmetry handling
   Frank Wennmohs         : Technical directorship


 We gratefully acknowledge several colleagues who have allowed us to
 interface, adapt or use parts of their codes:
   Stefan Grimme, W. Hujo, H. Kruse,             : VdW corrections, initial TS optimization,
                  C. Bannwarth                     DFT functionals, gCP, sTDA/sTD-DF
   Ed Valeev                                     : LibInt (2-el integral package), F12 methods
   Garnet Chan, S. Sharma, J. Yang, R. Olivares  : DMRG
   Ulf Ekstrom                                   : XCFun DFT Library
   Mihaly Kallay                                 : mrcc  (arbitrary order and MRCC methods)
   Andreas Klamt, Michael Diedenhofen            : otool_cosmo (COSMO solvation model)
   Jiri Pittner, Ondrej Demel                    : Mk-CCSD
   Frank Weinhold                                : gennbo (NPA and NBO analysis)
   Christopher J. Cramer and Donald G. Truhlar   : smd solvation model
   Lars Goerigk                                  : TD-DFT with DH, B97 family of functionals
   V. Asgeirsson, H. Jonsson                     : NEB implementation
   FAccTs GmbH                                   : IRC, NEB, NEB-TS, Multilevel


 Your calculation uses the libint2 library for the computation of 2-el integrals
 For citations please refer to: http://libint.valeyev.net

 This ORCA versions uses:
   CBLAS   interface :  Fast vector & matrix operations
   LAPACKE interface :  Fast linear algebra routines
   SCALAPACK package :  Parallel linear algebra routines




***************************************
The coordinates will be read from file: methoxycyclohexane_eq.xyz
***************************************


----- Orbital basis set information -----
Your calculation utilizes the basis: cc-pVDZ 
       H, B-Ne : Obtained from the ccRepo (grant-hill.group.shef.ac.uk/ccrepo) Feb. 2017
                 T. H. Dunning, Jr., J. Chem. Phys. 90, 1007 (1989)
            He : Obtained from the ccRepo (grant-hill.group.shef.ac.uk/ccrepo) Feb. 2017
                 D. E. Woon, T. H. Dunning, Jr., J. Chem. Phys. 100, 2975 (1994)
  Li-Be, Na-Mg : Obtained from the ccRepo (grant-hill.group.shef.ac.uk/ccrepo) Feb. 2017
                 B. P. Prascher, D. E. Woon, K. A. Peterson, T. H. Dunning, Jr., A. K. Wilson, Theor. Chem. Acc. 128, 69 (2011)
         Al-Ar : Obtained from the ccRepo (grant-hill.group.shef.ac.uk/ccrepo) Feb. 2017
                 D. E. Woon, T. H. Dunning, Jr., J. Chem. Phys. 98, 1358 (1993)
            Ca : Obtained from the Peterson Research Group Website (tyr0.chem.wsu.edu/~kipeters) Feb. 2017
                 J. Koput, K. A. Peterson, J. Phys. Chem. 106, 9595 (2002)
         Sc-Zn : Obtained from the ccRepo (grant-hill.group.shef.ac.uk/ccrepo) Feb. 2017
                 N. B. Balabanov, K. A. Peterson, J. Chem. Phys. 123, 064107 (2005)
                 N. B. Balabanov, K. A. Peterson, J. Chem. Phys. 125, 074110 (2006)
         Ga-Kr : Obtained from the ccRepo (grant-hill.group.shef.ac.uk/ccrepo) Feb. 2017
                 A. K. Wilson, D. E. Woon, K. A. Peterson, T. H. Dunning, Jr., J. Chem. Phys. 110, 7667 (1999)

----- AuxC basis set information -----
Your calculation utilizes the auxiliary basis: cc-pVDZ/C 
  H-He, B, Ne, Al-Ar, Ga-Br : Obtained from the EMSL Basis Set Exchange (bse.pnl.gov) Feb. 2017
                              F. Weigend, A. Kohn, C. Hattig, J. Chem. Phys. 116, 3175 (2002)
               Li-Be, Na-Mg : Obtained from the EMSL Basis Set Exchange (bse.pnl.gov) Feb. 2017
                              C. Haettig, Phys. Chem. Chem. Phys. 7, 59 (2005)
                        C-F : Obtained from the EMSL Basis Set Exchange (bse.pnl.gov) Feb. 2017
                              C. Haettig, Phys. Chem. Chem. Phys. 7, 59 (2005)
                              F. Weigend, A. Kohn, C. Hattig, J. Chem. Phys. 116, 3175 (2002)
                         Kr : Obtained from the TURBOMOLE 7.0 basis set library
                              F. Weigend, A. Kohn, C. Hattig, J. Chem. Phys. 116, 3175 (2002)
                              S function revised in Sep. 2009

----- AuxJK basis set information -----
Your calculation utilizes the auxiliary basis: cc-pVTZ/JK 
  H, B-F, Al-Cl, Ga-Br : Obtained from the TURBOMOLE 7.0 basis set library

================================================================================
                                        WARNINGS
                       Please study these warnings very carefully!
================================================================================


WARNING: MDCI localization with Augmented Hessian Foster-Boys
  ===> : Switching off randomization!

WARNING: Post HF methods need fully converged wavefunctions
  ===> : Setting SCFConvForced true
         You can overwrite this default with %scf ConvForced false 


INFO   : the flag for use of LIBINT has been found!

================================================================================
                                       INPUT FILE
================================================================================
NAME = methoxycyclohexane_eq.inp
|  1> ! RHF DLPNO-CCSD(T) cc-pVDZ RIJK cc-pVTZ/JK cc-pVDZ/C
|  2> ! KDIIS SOSCF TightSCF TightPNO
|  3> 
|  4> %pal nprocs 4 end
|  5> 
|  6> %maxcore 8000
|  7> 
|  8> %scf maxiter 300
|  9>      shift shift 0.2 erroff 0.1 end
| 10> end
| 11> 
| 12> * xyzfile 0 1 methoxycyclohexane_eq.xyz 
| 13> 
| 14> 
| 15>                          ****END OF INPUT****
================================================================================

                       ****************************
                       * Single Point Calculation *
                       ****************************

---------------------------------
CARTESIAN COORDINATES (ANGSTROEM)
---------------------------------
  C      0.601420   -0.196540    0.196660
  C     -0.325870   -1.348010   -0.196500
  C     -1.762380   -1.117110    0.300510
  C     -2.318510    0.231750   -0.182340
  C     -1.384360    1.388560    0.204730
  C      0.050350    1.149880   -0.299020
  O      1.890920   -0.495670   -0.344150
  C      2.963200    0.242000    0.214080
  H     -2.407430   -1.938480   -0.033920
  H     -1.776490   -1.140500    1.400080
  H     -3.321240    0.399400    0.229910
  H     -2.428540    0.207040   -1.276130
  H     -1.373390    1.493410    1.299660
  H     -1.764800    2.337650   -0.191970
  H     -0.316850   -1.433730   -1.291660
  H      0.079900   -2.286260    0.198410
  H      0.700100    1.973060    0.020540
  H      0.064360    1.137910   -1.397670
  H      0.682850   -0.164140    1.298960
  H      3.882790   -0.166530   -0.211910
  H      2.910270    1.312580   -0.029130
  H      2.997990    0.130780    1.309320

----------------------------
CARTESIAN COORDINATES (A.U.)
----------------------------
  NO LB      ZA    FRAG     MASS         X           Y           Z
   0 C     6.0000    0    12.011    1.136519   -0.371407    0.371634
   1 C     6.0000    0    12.011   -0.615805   -2.547370   -0.371331
   2 C     6.0000    0    12.011   -3.330416   -2.111032    0.567882
   3 C     6.0000    0    12.011   -4.381349    0.437944   -0.344573
   4 C     6.0000    0    12.011   -2.616061    2.623998    0.386884
   5 C     6.0000    0    12.011    0.095148    2.172958   -0.565066
   6 O     8.0000    0    15.999    3.573321   -0.936681   -0.650349
   7 C     6.0000    0    12.011    5.599636    0.457314    0.404553
   8 H     1.0000    0     1.008   -4.549383   -3.663196   -0.064100
   9 H     1.0000    0     1.008   -3.357080   -2.155233    2.645768
  10 H     1.0000    0     1.008   -6.276234    0.754757    0.434467
  11 H     1.0000    0     1.008   -4.589276    0.391249   -2.411536
  12 H     1.0000    0     1.008   -2.595331    2.822136    2.456001
  13 H     1.0000    0     1.008   -3.334989    4.417518   -0.362771
  14 H     1.0000    0     1.008   -0.598760   -2.709357   -2.440884
  15 H     1.0000    0     1.008    0.150989   -4.320405    0.374941
  16 H     1.0000    0     1.008    1.322997    3.728543    0.038815
  17 H     1.0000    0     1.008    0.121623    2.150338   -2.641214
  18 H     1.0000    0     1.008    1.290399   -0.310180    2.454679
  19 H     1.0000    0     1.008    7.337410   -0.314696   -0.400452
  20 H     1.0000    0     1.008    5.499613    2.480417   -0.055048
  21 H     1.0000    0     1.008    5.665380    0.247138    2.474256

--------------------------------
INTERNAL COORDINATES (ANGSTROEM)
--------------------------------
 C      0   0   0     0.000000000000     0.00000000     0.00000000
 C      1   0   0     1.529811978839     0.00000000     0.00000000
 C      2   1   0     1.537496253719   111.72906413     0.00000000
 C      3   2   1     1.536830504317   111.61371651    54.87463937
 C      4   3   2     1.536446804644   111.20208534   305.77956064
 C      1   2   3     1.536952707047   111.04873570   304.83917338
 O      1   2   3     1.429952608655   106.97524604   181.58460735
 C      7   1   2     1.416178717606   115.13489157   196.93658439
 H      3   2   1     1.096622817700   109.78631718   177.63733000
 H      3   2   1     1.099909254939   109.38728078   293.97286606
 H      4   3   2     1.097052431701   110.29282103   183.15647499
 H      4   3   2     1.099587990613   109.20904278    66.31793192
 H      5   4   3     1.099993440117   109.18357047   293.52929849
 H      5   4   3     1.096757635807   110.45790611   176.95540635
 H      2   1   3     1.098546632784   108.05694699   121.11573079
 H      2   1   3     1.095863250365   109.10969981   236.90776571
 H      6   1   2     1.096320650403   110.56506068   177.78726499
 H      6   1   2     1.098804524699   107.95971312   294.50113565
 H      1   2   3     1.105778411301   108.83727922    64.58121810
 H      8   7   1     1.092707650335   106.78566732   173.94113990
 H      8   7   1     1.099133397455   112.56131249   292.98493848
 H      8   7   1     1.101422212460   111.30211458    55.24927302

---------------------------
INTERNAL COORDINATES (A.U.)
---------------------------
 C      0   0   0     0.000000000000     0.00000000     0.00000000
 C      1   0   0     2.890925676398     0.00000000     0.00000000
 C      2   1   0     2.905446851459   111.72906413     0.00000000
 C      3   2   1     2.904188767416   111.61371651    54.87463937
 C      4   3   2     2.903463680115   111.20208534   305.77956064
 C      1   2   3     2.904419697108   111.04873570   304.83917338
 O      1   2   3     2.702218814845   106.97524604   181.58460735
 C      7   1   2     2.676189932963   115.13489157   196.93658439
 H      3   2   1     2.072316797662   109.78631718   177.63733000
 H      3   2   1     2.078527264000   109.38728078   293.97286606
 H      4   3   2     2.073128650466   110.29282103   183.15647499
 H      4   3   2     2.077920162407   109.20904278    66.31793192
 H      5   4   3     2.078686350931   109.18357047   293.52929849
 H      5   4   3     2.072571566961   110.45790611   176.95540635
 H      2   1   3     2.075952281302   108.05694699   121.11573079
 H      2   1   3     2.070881423418   109.10969981   236.90776571
 H      6   1   2     2.071745784224   110.56506068   177.78726499
 H      6   1   2     2.076439626395   107.95971312   294.50113565
 H      1   2   3     2.089618362162   108.83727922    64.58121810
 H      8   7   1     2.064918203573   106.78566732   173.94113990
 H      8   7   1     2.077061105836   112.56131249   292.98493848
 H      8   7   1     2.081386339367   111.30211458    55.24927302

---------------------
BASIS SET INFORMATION
---------------------
There are 3 groups of distinct atoms

 Group   1 Type C   : 17s4p1d contracted to 3s2p1d pattern {881/31/1}
 Group   2 Type O   : 17s4p1d contracted to 3s2p1d pattern {881/31/1}
 Group   3 Type H   : 4s1p contracted to 2s1p pattern {31/1}

Atom   0C    basis set group =>   1
Atom   1C    basis set group =>   1
Atom   2C    basis set group =>   1
Atom   3C    basis set group =>   1
Atom   4C    basis set group =>   1
Atom   5C    basis set group =>   1
Atom   6O    basis set group =>   2
Atom   7C    basis set group =>   1
Atom   8H    basis set group =>   3
Atom   9H    basis set group =>   3
Atom  10H    basis set group =>   3
Atom  11H    basis set group =>   3
Atom  12H    basis set group =>   3
Atom  13H    basis set group =>   3
Atom  14H    basis set group =>   3
Atom  15H    basis set group =>   3
Atom  16H    basis set group =>   3
Atom  17H    basis set group =>   3
Atom  18H    basis set group =>   3
Atom  19H    basis set group =>   3
Atom  20H    basis set group =>   3
Atom  21H    basis set group =>   3
-------------------------------
AUXILIARY BASIS SET INFORMATION
-------------------------------
There are 3 groups of distinct atoms

 Group   1 Type C   : 7s5p4d2f contracted to 7s5p4d2f pattern {1111111/11111/1111/11}
 Group   2 Type O   : 7s5p4d2f contracted to 7s5p4d2f pattern {1111111/11111/1111/11}
 Group   3 Type H   : 3s2p1d contracted to 3s2p1d pattern {111/11/1}

Atom   0C    basis set group =>   1
Atom   1C    basis set group =>   1
Atom   2C    basis set group =>   1
Atom   3C    basis set group =>   1
Atom   4C    basis set group =>   1
Atom   5C    basis set group =>   1
Atom   6O    basis set group =>   2
Atom   7C    basis set group =>   1
Atom   8H    basis set group =>   3
Atom   9H    basis set group =>   3
Atom  10H    basis set group =>   3
Atom  11H    basis set group =>   3
Atom  12H    basis set group =>   3
Atom  13H    basis set group =>   3
Atom  14H    basis set group =>   3
Atom  15H    basis set group =>   3
Atom  16H    basis set group =>   3
Atom  17H    basis set group =>   3
Atom  18H    basis set group =>   3
Atom  19H    basis set group =>   3
Atom  20H    basis set group =>   3
Atom  21H    basis set group =>   3
-------------------------------
AUXILIARY BASIS SET INFORMATION
-------------------------------
There are 3 groups of distinct atoms

 Group   1 Type C   : 10s7p5d2f1g contracted to 10s7p5d2f1g pattern {1111111111/1111111/11111/11/1}
 Group   2 Type O   : 10s7p5d2f1g contracted to 10s7p5d2f1g pattern {1111111111/1111111/11111/11/1}
 Group   3 Type H   : 4s3p2d1f contracted to 4s3p2d1f pattern {1111/111/11/1}

Atom   0C    basis set group =>   1
Atom   1C    basis set group =>   1
Atom   2C    basis set group =>   1
Atom   3C    basis set group =>   1
Atom   4C    basis set group =>   1
Atom   5C    basis set group =>   1
Atom   6O    basis set group =>   2
Atom   7C    basis set group =>   1
Atom   8H    basis set group =>   3
Atom   9H    basis set group =>   3
Atom  10H    basis set group =>   3
Atom  11H    basis set group =>   3
Atom  12H    basis set group =>   3
Atom  13H    basis set group =>   3
Atom  14H    basis set group =>   3
Atom  15H    basis set group =>   3
Atom  16H    basis set group =>   3
Atom  17H    basis set group =>   3
Atom  18H    basis set group =>   3
Atom  19H    basis set group =>   3
Atom  20H    basis set group =>   3
Atom  21H    basis set group =>   3

Checking for AutoStart:
The File: methoxycyclohexane_eq.gbw exists
Trying to determine its content:
     ... Fine, the file contains calculation information
     ... Fine, the calculation information was read
     ... Fine, the file contains a basis set
     ... Fine, the basis set was read
     ... Fine, the file contains a geometry
     ... Fine, the geometry was read
     ... Fine, the file contains a set of orbitals
     ... Fine, the orbitals can be read
     => possible old guess file was deleted
     => GBW file was renamed to GES file
     => GES file is set as startup file
     => Guess is set to MORead
     ... now leaving AutoStart



           ************************************************************
           *        Program running with 4 parallel MPI-processes     *
           *              working on a common directory               *
           ************************************************************
------------------------------------------------------------------------------
                           ORCA GTO INTEGRAL CALCULATION
                           -- RI-GTO INTEGRALS CHOSEN --
------------------------------------------------------------------------------

                         BASIS SET STATISTICS AND STARTUP INFO

Gaussian basis set:
 # of primitive gaussian shells          ...  246
 # of primitive gaussian functions       ...  370
 # of contracted shells                  ...   90
 # of contracted basis functions         ...  182
 Highest angular momentum                ...    2
 Maximum contraction depth               ...    8
Auxiliary gaussian basis set:
 # of primitive gaussian shells          ...  340
 # of primitive gaussian functions       ... 1052
 # of contracted shells                  ...  340
 # of contracted aux-basis functions     ... 1052
 Highest angular momentum                ...    4
 Maximum contraction depth               ...    1
Ratio of auxiliary to basis functions    ...  5.78
Integral package used                  ... LIBINT
 One Electron integrals                  ... done
 Ordering auxiliary basis shells         ... done
 Integral threshhold             Thresh  ...  2.500e-11
 Primitive cut-off               TCut    ...  2.500e-12
 Pre-screening matrix                    ... done
 Shell pair data                         ... 
 Ordering of the shell pairs             ... done (   0.001 sec) 3956 of 4095 pairs
 Determination of significant pairs      ... done (   0.000 sec)
 Creation of shell pair data             ... done (   0.001 sec)
 Storage of shell pair data              ... done (   0.017 sec)
 Shell pair data done in (   0.019 sec)
 Computing two index integrals           ... done
 Cholesky decomposition of the V-matrix  ... done


Timings:
 Total evaluation time                   ...   0.610 sec (  0.010 min)
 One electron matrix time                ...   0.081 sec (  0.001 min) = 13.2%
 Schwartz matrix evaluation time         ...   0.185 sec (  0.003 min) = 30.3%
 Two index repulsion integral time       ...   0.145 sec (  0.002 min) = 23.8%
 Cholesky decomposition of V             ...   0.149 sec (  0.002 min) = 24.4%
 Three index repulsion integral time     ...   0.000 sec (  0.000 min) =  0.0%



           ************************************************************
           *        Program running with 4 parallel MPI-processes     *
           *              working on a common directory               *
           ************************************************************
-------------------------------------------------------------------------------
                                 ORCA SCF
-------------------------------------------------------------------------------

------------
SCF SETTINGS
------------
Hamiltonian:
 Ab initio Hamiltonian  Method          .... Hartree-Fock(GTOs)
 RI-approximation to the Coulomb term is turned on
   Number of auxiliary basis functions  .... 1052
   RI-JK (J+K treated both via RI)      .... on


General Settings:
 Integral files         IntName         .... methoxycyclohexane_eq
 Hartree-Fock type      HFTyp           .... RHF
 Total Charge           Charge          ....    0
 Multiplicity           Mult            ....    1
 Number of Electrons    NEL             ....   64
 Basis Dimension        Dim             ....  182
 Nuclear Repulsion      ENuc            ....    407.7664541079 Eh

Convergence Acceleration:
 DIIS                   CNVDIIS         .... off
 Newton-Raphson         CNVNR           .... off
 SOSCF                  CNVSOSCF        .... on
   Start iteration      SOSCFMaxIt      ....   150
   Startup grad/error   SOSCFStart      ....  0.003300
 Level Shifting         CNVShift        .... on
   Level shift para.    LevelShift      ....    0.2000
   Turn off err/grad.   ShiftErr        ....    0.1000
 Zerner damping         CNVZerner       .... off
 Static damping         CNVDamp         .... off
 Fernandez-Rico         CNVRico         .... off

SCF Procedure:
 Maximum # iterations   MaxIter         ....   300
 SCF integral mode      SCFMode         .... Direct
   Integral package                     .... LIBINT
 Reset frequency        DirectResetFreq ....    20
 Integral Threshold     Thresh          ....  2.500e-11 Eh
 Primitive CutOff       TCut            ....  2.500e-12 Eh

Convergence Tolerance:
 Convergence Check Mode ConvCheckMode   .... Total+1el-Energy
 Convergence forced     ConvForced      .... 1
 Energy Change          TolE            ....  1.000e-08 Eh
 1-El. energy change                    ....  1.000e-05 Eh
 Orbital Gradient       TolG            ....  1.000e-05
 Orbital Rotation angle TolX            ....  1.000e-05


Diagonalization of the overlap matrix:
Smallest eigenvalue                        ... 2.967e-03
Time for diagonalization                   ...    0.008 sec
Threshold for overlap eigenvalues          ... 1.000e-08
Number of eigenvalues below threshold      ... 0
Time for construction of square roots      ...    0.006 sec
Total time needed                          ...    0.014 sec

---------------------
INITIAL GUESS: MOREAD
---------------------
Guess MOs are being read from file: methoxycyclohexane_eq.ges
Input Geometry matches current geometry (good)
Atom 0: N(Shells)= 6 and 10 - projection required
Input basis set needs projection
NBasis(read)= 436
NBasis(calc)= 182
Basis set overlap was calculated
Using GuessMode=FMatrix for the initial guess
C*T matrix was formed
Effective Fockian was calculated
Effective Fockian was diagonalized
Initial density was built
                      ------------------
                      INITIAL GUESS DONE (   0.1 sec)
                      ------------------
--------------
SCF ITERATIONS
--------------
ITER       Energy         Delta-E        Max-DP      RMS-DP      [F,P]   Gradient Norm
                             ****Turning on KDIIS(Cayley)****
  0   -348.1081012629   0.000000000000 0.00214572  0.00005950  0.0036288   0.005713009
                      *** Initiating the SOSCF procedure ***
                           *** Shutting down KDIIS ***
                      *** Re-Reading the Fockian *** 
                      *** Removing any level shift *** 
ITER      Energy       Delta-E        Grad      Rot      Max-DP    RMS-DP
  1   -348.10825498  -0.0001537142  0.003292  0.003292  0.004154  0.000115
  2   -348.10850012  -0.0002451446  0.002656  0.001079  0.015551  0.000431
  3   -348.10894883  -0.0004487085  0.000758  0.000639  0.002595  0.000085
  4   -348.10896872  -0.0000198923  0.000357  0.000189  0.001023  0.000031
  5   -348.10897399  -0.0000052658  0.000033  0.000033  0.000092  0.000004
  6   -348.10897408  -0.0000000954  0.000010  0.000020  0.000053  0.000002
  7   -348.10897409  -0.0000000110  0.000004  0.000002  0.000012  0.000000
                  ***Gradient check signals convergence***
              ***Rediagonalizing the Fockian in SOSCF/NRSCF***

               *****************************************************
               *                     SUCCESS                       *
               *           SCF CONVERGED AFTER   8 CYCLES          *
               *****************************************************


----------------
TOTAL SCF ENERGY
----------------

Total Energy       :         -348.10897410 Eh           -9472.52676 eV

Components:
Nuclear Repulsion  :          407.76645411 Eh           11095.88932 eV
Electronic Energy  :         -755.87542820 Eh          -20568.41608 eV
One Electron Energy:        -1280.77465012 Eh          -34851.65005 eV
Two Electron Energy:          524.89922191 Eh           14283.23397 eV

Virial components:
Potential Energy   :         -695.77592717 Eh          -18933.02551 eV
Kinetic Energy     :          347.66695307 Eh            9460.49876 eV
Virial Ratio       :            2.00127139


---------------
SCF CONVERGENCE
---------------

  Last Energy change         ...   -7.4886e-10  Tolerance :   1.0000e-08
  Last MAX-Density change    ...    2.2300e-06  Tolerance :   1.0000e-07
  Last RMS-Density change    ...    9.8457e-08  Tolerance :   5.0000e-09
  Last Orbital Gradient      ...    9.0144e-07  Tolerance :   1.0000e-05
  Last Orbital Rotation      ...    8.0465e-07  Tolerance :   1.0000e-05

             **** THE GBW FILE WAS UPDATED (methoxycyclohexane_eq.gbw) ****
             **** DENSITY FILE WAS UPDATED (methoxycyclohexane_eq.scfp.tmp) ****
             **** ENERGY FILE WAS UPDATED (methoxycyclohexane_eq.en.tmp) ****
----------------
ORBITAL ENERGIES
----------------

  NO   OCC          E(Eh)            E(eV) 
   0   2.0000     -20.545474      -559.0708 
   1   2.0000     -11.274628      -306.7982 
   2   2.0000     -11.272792      -306.7483 
   3   2.0000     -11.225697      -305.4667 
   4   2.0000     -11.223555      -305.4085 
   5   2.0000     -11.222752      -305.3866 
   6   2.0000     -11.220691      -305.3305 
   7   2.0000     -11.217477      -305.2431 
   8   2.0000      -1.361482       -37.0478 
   9   2.0000      -1.109465       -30.1901 
  10   2.0000      -1.004437       -27.3321 
  11   2.0000      -0.999342       -27.1935 
  12   2.0000      -0.911629       -24.8067 
  13   2.0000      -0.834012       -22.6946 
  14   2.0000      -0.811955       -22.0944 
  15   2.0000      -0.757225       -20.6051 
  16   2.0000      -0.659717       -17.9518 
  17   2.0000      -0.645115       -17.5545 
  18   2.0000      -0.621743       -16.9185 
  19   2.0000      -0.615804       -16.7569 
  20   2.0000      -0.589901       -16.0520 
  21   2.0000      -0.584833       -15.9141 
  22   2.0000      -0.556845       -15.1525 
  23   2.0000      -0.526057       -14.3147 
  24   2.0000      -0.511343       -13.9144 
  25   2.0000      -0.497444       -13.5362 
  26   2.0000      -0.482254       -13.1228 
  27   2.0000      -0.469230       -12.7684 
  28   2.0000      -0.455277       -12.3887 
  29   2.0000      -0.445603       -12.1255 
  30   2.0000      -0.434380       -11.8201 
  31   2.0000      -0.399893       -10.8816 
  32   0.0000       0.177921         4.8415 
  33   0.0000       0.192049         5.2259 
  34   0.0000       0.203653         5.5417 
  35   0.0000       0.218076         5.9341 
  36   0.0000       0.238272         6.4837 
  37   0.0000       0.248143         6.7523 
  38   0.0000       0.260145         7.0789 
  39   0.0000       0.262840         7.1522 
  40   0.0000       0.265654         7.2288 
  41   0.0000       0.278331         7.5738 
  42   0.0000       0.288691         7.8557 
  43   0.0000       0.293413         7.9842 
  44   0.0000       0.298257         8.1160 
  45   0.0000       0.318390         8.6638 
  46   0.0000       0.333884         9.0854 
  47   0.0000       0.377499        10.2723 
  48   0.0000       0.397194        10.8082 
  49   0.0000       0.400015        10.8850 
  50   0.0000       0.423533        11.5249 
  51   0.0000       0.444991        12.1088 
  52   0.0000       0.448503        12.2044 
  53   0.0000       0.483694        13.1620 
  54   0.0000       0.591782        16.1032 
  55   0.0000       0.604830        16.4583 
  56   0.0000       0.622558        16.9407 
  57   0.0000       0.629378        17.1262 
  58   0.0000       0.643642        17.5144 
  59   0.0000       0.654042        17.7974 
  60   0.0000       0.680535        18.5183 
  61   0.0000       0.693356        18.8672 
  62   0.0000       0.726664        19.7735 
  63   0.0000       0.777695        21.1622 
  64   0.0000       0.811485        22.0816 
  65   0.0000       0.831844        22.6356 
  66   0.0000       0.834521        22.7085 
  67   0.0000       0.844782        22.9877 
  68   0.0000       0.854055        23.2400 
  69   0.0000       0.864639        23.5280 
  70   0.0000       0.869145        23.6506 
  71   0.0000       0.873419        23.7669 
  72   0.0000       0.881781        23.9945 
  73   0.0000       0.892903        24.2971 
  74   0.0000       0.896138        24.3851 
  75   0.0000       0.897828        24.4311 
  76   0.0000       0.908347        24.7174 
  77   0.0000       0.910164        24.7668 
  78   0.0000       0.915682        24.9170 
  79   0.0000       0.918963        25.0063 
  80   0.0000       0.923742        25.1363 
  81   0.0000       0.927425        25.2365 
  82   0.0000       0.940627        25.5958 
  83   0.0000       0.950957        25.8769 
  84   0.0000       0.952499        25.9188 
  85   0.0000       0.964537        26.2464 
  86   0.0000       1.000161        27.2158 
  87   0.0000       1.092619        29.7317 
  88   0.0000       1.123417        30.5697 
  89   0.0000       1.129573        30.7372 
  90   0.0000       1.159400        31.5489 
  91   0.0000       1.222775        33.2734 
  92   0.0000       1.242899        33.8210 
  93   0.0000       1.248975        33.9863 
  94   0.0000       1.314083        35.7580 
  95   0.0000       1.389661        37.8146 
  96   0.0000       1.404463        38.2174 
  97   0.0000       1.416706        38.5505 
  98   0.0000       1.443120        39.2693 
  99   0.0000       1.455220        39.5985 
 100   0.0000       1.468312        39.9548 
 101   0.0000       1.504905        40.9506 
 102   0.0000       1.549740        42.1706 
 103   0.0000       1.572459        42.7888 
 104   0.0000       1.617398        44.0116 
 105   0.0000       1.634985        44.4902 
 106   0.0000       1.668630        45.4057 
 107   0.0000       1.683050        45.7981 
 108   0.0000       1.700467        46.2721 
 109   0.0000       1.705812        46.4175 
 110   0.0000       1.724202        46.9179 
 111   0.0000       1.758006        47.8378 
 112   0.0000       1.847588        50.2754 
 113   0.0000       1.854752        50.4704 
 114   0.0000       1.870676        50.9037 
 115   0.0000       1.886469        51.3334 
 116   0.0000       1.890124        51.4329 
 117   0.0000       1.893271        51.5185 
 118   0.0000       1.900775        51.7227 
 119   0.0000       1.907317        51.9007 
 120   0.0000       1.912679        52.0466 
 121   0.0000       1.919092        52.2212 
 122   0.0000       1.940291        52.7980 
 123   0.0000       1.956415        53.2368 
 124   0.0000       1.957764        53.2735 
 125   0.0000       1.967457        53.5372 
 126   0.0000       1.969515        53.5932 
 127   0.0000       1.982896        53.9573 
 128   0.0000       1.989369        54.1335 
 129   0.0000       1.993918        54.2573 
 130   0.0000       2.017495        54.8988 
 131   0.0000       2.034602        55.3643 
 132   0.0000       2.044479        55.6331 
 133   0.0000       2.057176        55.9786 
 134   0.0000       2.067449        56.2582 
 135   0.0000       2.093264        56.9606 
 136   0.0000       2.109303        57.3970 
 137   0.0000       2.116039        57.5803 
 138   0.0000       2.149522        58.4915 
 139   0.0000       2.178999        59.2936 
 140   0.0000       2.196307        59.7646 
 141   0.0000       2.214643        60.2635 
 142   0.0000       2.231253        60.7155 
 143   0.0000       2.245719        61.1091 
 144   0.0000       2.292682        62.3871 
 145   0.0000       2.304424        62.7066 
 146   0.0000       2.323057        63.2136 
 147   0.0000       2.338238        63.6267 
 148   0.0000       2.372202        64.5509 
 149   0.0000       2.388920        65.0058 
 150   0.0000       2.422190        65.9111 
 151   0.0000       2.446960        66.5852 
 152   0.0000       2.482008        67.5389 
 153   0.0000       2.491137        67.7873 
 154   0.0000       2.536605        69.0245 
 155   0.0000       2.548294        69.3426 
 156   0.0000       2.564323        69.7788 
 157   0.0000       2.567704        69.8708 
 158   0.0000       2.597719        70.6875 
 159   0.0000       2.620413        71.3051 
 160   0.0000       2.639224        71.8169 
 161   0.0000       2.657511        72.3145 
 162   0.0000       2.689730        73.1913 
 163   0.0000       2.748412        74.7881 
 164   0.0000       2.756793        75.0162 
 165   0.0000       2.784831        75.7791 
 166   0.0000       2.793850        76.0245 
 167   0.0000       2.839936        77.2786 
 168   0.0000       2.870214        78.1025 
 169   0.0000       2.887553        78.5743 
 170   0.0000       2.889860        78.6371 
 171   0.0000       2.922486        79.5249 
 172   0.0000       2.946625        80.1817 
 173   0.0000       3.016646        82.0871 
 174   0.0000       3.032171        82.5096 
 175   0.0000       3.061067        83.2959 
 176   0.0000       3.108367        84.5830 
 177   0.0000       3.355862        91.3176 
 178   0.0000       3.389613        92.2361 
 179   0.0000       3.479194        94.6737 
 180   0.0000       3.673118        99.9506 
 181   0.0000       3.782540       102.9281 

                    ********************************
                    * MULLIKEN POPULATION ANALYSIS *
                    ********************************

-----------------------
MULLIKEN ATOMIC CHARGES
-----------------------
   0 C :    0.135039
   1 C :    0.008839
   2 C :   -0.053458
   3 C :   -0.039738
   4 C :   -0.048257
   5 C :   -0.018809
   6 O :   -0.501871
   7 C :    0.179907
   8 H :    0.026969
   9 H :    0.023001
  10 H :    0.023721
  11 H :    0.025664
  12 H :    0.023090
  13 H :    0.026458
  14 H :    0.031392
  15 H :    0.029722
  16 H :    0.023686
  17 H :    0.031905
  18 H :    0.003746
  19 H :    0.041390
  20 H :    0.015665
  21 H :    0.011939
Sum of atomic charges:   -0.0000000

--------------------------------
MULLIKEN REDUCED ORBITAL CHARGES
--------------------------------
  0 C s       :     3.070768  s :     3.070768
      pz      :     0.924794  p :     2.646479
      px      :     0.739008
      py      :     0.982676
      dz2     :     0.035131  d :     0.147715
      dxz     :     0.025182
      dyz     :     0.014328
      dx2y2   :     0.035004
      dxy     :     0.038070
  1 C s       :     3.054832  s :     3.054832
      pz      :     0.992326  p :     2.857326
      px      :     0.909204
      py      :     0.955797
      dz2     :     0.022231  d :     0.079003
      dxz     :     0.011710
      dyz     :     0.008244
      dx2y2   :     0.016171
      dxy     :     0.020647
  2 C s       :     3.072605  s :     3.072605
      pz      :     0.981114  p :     2.897874
      px      :     0.956739
      py      :     0.960020
      dz2     :     0.023813  d :     0.082980
      dxz     :     0.010623
      dyz     :     0.009098
      dx2y2   :     0.017880
      dxy     :     0.021566
  3 C s       :     3.069037  s :     3.069037
      pz      :     0.982118  p :     2.887694
      px      :     0.968682
      py      :     0.936894
      dz2     :     0.022748  d :     0.083006
      dxz     :     0.008636
      dyz     :     0.011951
      dx2y2   :     0.020452
      dxy     :     0.019220
  4 C s       :     3.069357  s :     3.069357
      pz      :     0.980524  p :     2.895818
      px      :     0.940690
      py      :     0.974603
      dz2     :     0.023070  d :     0.083082
      dxz     :     0.011746
      dyz     :     0.008504
      dx2y2   :     0.019632
      dxy     :     0.020131
  5 C s       :     3.060848  s :     3.060848
      pz      :     0.993870  p :     2.878944
      px      :     0.937071
      py      :     0.948003
      dz2     :     0.022874  d :     0.079017
      dxz     :     0.010789
      dyz     :     0.008799
      dx2y2   :     0.016517
      dxy     :     0.020039
  6 O s       :     3.794296  s :     3.794296
      pz      :     1.746967  p :     4.690295
      px      :     1.212120
      py      :     1.731208
      dz2     :     0.001926  d :     0.017280
      dxz     :     0.005254
      dyz     :     0.002386
      dx2y2   :     0.002856
      dxy     :     0.004859
  7 C s       :     3.021587  s :     3.021587
      pz      :     0.941696  p :     2.693416
      px      :     0.835311
      py      :     0.916409
      dz2     :     0.025948  d :     0.105089
      dxz     :     0.019857
      dyz     :     0.008526
      dx2y2   :     0.027172
      dxy     :     0.023587
  8 H s       :     0.943662  s :     0.943662
      pz      :     0.006370  p :     0.029369
      px      :     0.009707
      py      :     0.013293
  9 H s       :     0.948347  s :     0.948347
      pz      :     0.020458  p :     0.028652
      px      :     0.003985
      py      :     0.004209
 10 H s       :     0.946982  s :     0.946982
      pz      :     0.007112  p :     0.029296
      px      :     0.017908
      py      :     0.004277
 11 H s       :     0.945634  s :     0.945634
      pz      :     0.020407  p :     0.028702
      px      :     0.004559
      py      :     0.003736
 12 H s       :     0.948225  s :     0.948225
      pz      :     0.020354  p :     0.028685
      px      :     0.003800
      py      :     0.004531
 13 H s       :     0.944201  s :     0.944201
      pz      :     0.007005  p :     0.029341
      px      :     0.005893
      py      :     0.016443
 14 H s       :     0.939478  s :     0.939478
      pz      :     0.020745  p :     0.029130
      px      :     0.003973
      py      :     0.004413
 15 H s       :     0.940598  s :     0.940598
      pz      :     0.006865  p :     0.029681
      px      :     0.006503
      py      :     0.016313
 16 H s       :     0.946679  s :     0.946679
      pz      :     0.006174  p :     0.029635
      px      :     0.009944
      py      :     0.013517
 17 H s       :     0.939313  s :     0.939313
      pz      :     0.020755  p :     0.028782
      px      :     0.003956
      py      :     0.004072
 18 H s       :     0.970142  s :     0.970142
      pz      :     0.020851  p :     0.026112
      px      :     0.001671
      py      :     0.003589
 19 H s       :     0.929211  s :     0.929211
      pz      :     0.007491  p :     0.029399
      px      :     0.014988
      py      :     0.006920
 20 H s       :     0.954498  s :     0.954498
      pz      :     0.005969  p :     0.029836
      px      :     0.003465
      py      :     0.020402
 21 H s       :     0.958615  s :     0.958615
      pz      :     0.021140  p :     0.029447
      px      :     0.003302
      py      :     0.005005


                     *******************************
                     * LOEWDIN POPULATION ANALYSIS *
                     *******************************

----------------------
LOEWDIN ATOMIC CHARGES
----------------------
   0 C :    0.006543
   1 C :   -0.025646
   2 C :   -0.033404
   3 C :   -0.033476
   4 C :   -0.032416
   5 C :   -0.035724
   6 O :   -0.084266
   7 C :    0.011947
   8 H :    0.021330
   9 H :    0.015821
  10 H :    0.019608
  11 H :    0.017149
  12 H :    0.016031
  13 H :    0.021104
  14 H :    0.020933
  15 H :    0.022646
  16 H :    0.017200
  17 H :    0.020179
  18 H :    0.002294
  19 H :    0.021777
  20 H :    0.004794
  21 H :    0.005576

-------------------------------
LOEWDIN REDUCED ORBITAL CHARGES
-------------------------------
  0 C s       :     2.802509  s :     2.802509
      pz      :     0.995437  p :     2.849119
      px      :     0.833876
      py      :     1.019807
      dz2     :     0.087033  d :     0.341829
      dxz     :     0.057910
      dyz     :     0.031153
      dx2y2   :     0.076215
      dxy     :     0.089518
  1 C s       :     2.793468  s :     2.793468
      pz      :     1.032602  p :     3.031439
      px      :     0.991136
      py      :     1.007701
      dz2     :     0.057711  d :     0.200739
      dxz     :     0.027151
      dyz     :     0.020771
      dx2y2   :     0.042870
      dxy     :     0.052236
  2 C s       :     2.792781  s :     2.792781
      pz      :     1.027337  p :     3.035942
      px      :     1.001301
      py      :     1.007304
      dz2     :     0.061091  d :     0.204681
      dxz     :     0.024459
      dyz     :     0.021398
      dx2y2   :     0.042855
      dxy     :     0.054879
  3 C s       :     2.793229  s :     2.793229
      pz      :     1.029192  p :     3.035131
      px      :     1.010841
      py      :     0.995098
      dz2     :     0.057926  d :     0.205116
      dxz     :     0.021958
      dyz     :     0.027005
      dx2y2   :     0.051629
      dxy     :     0.046598
  4 C s       :     2.792553  s :     2.792553
      pz      :     1.028527  p :     3.035057
      px      :     0.993986
      py      :     1.012544
      dz2     :     0.058661  d :     0.204806
      dxz     :     0.026806
      dyz     :     0.021249
      dx2y2   :     0.048347
      dxy     :     0.049743
  5 C s       :     2.796694  s :     2.796694
      pz      :     1.031551  p :     3.039116
      px      :     0.998180
      py      :     1.009385
      dz2     :     0.059465  d :     0.199914
      dxz     :     0.024941
      dyz     :     0.020817
      dx2y2   :     0.041242
      dxy     :     0.053450
  6 O s       :     3.411113  s :     3.411113
      pz      :     1.716673  p :     4.644221
      px      :     1.233839
      py      :     1.693709
      dz2     :     0.003044  d :     0.028933
      dxz     :     0.008806
      dyz     :     0.002668
      dx2y2   :     0.005850
      dxy     :     0.008565
  7 C s       :     2.811912  s :     2.811912
      pz      :     1.017622  p :     2.912806
      px      :     0.899878
      py      :     0.995306
      dz2     :     0.070936  d :     0.263335
      dxz     :     0.047047
      dyz     :     0.021082
      dx2y2   :     0.070443
      dxy     :     0.053826
  8 H s       :     0.900167  s :     0.900167
      pz      :     0.018441  p :     0.078503
      px      :     0.026652
      py      :     0.033410
  9 H s       :     0.906127  s :     0.906127
      pz      :     0.046287  p :     0.078051
      px      :     0.015993
      py      :     0.015772
 10 H s       :     0.902021  s :     0.902021
      pz      :     0.019792  p :     0.078371
      px      :     0.041604
      py      :     0.016975
 11 H s       :     0.904816  s :     0.904816
      pz      :     0.046185  p :     0.078035
      px      :     0.015801
      py      :     0.016048
 12 H s       :     0.905886  s :     0.905886
      pz      :     0.046029  p :     0.078084
      px      :     0.016008
      py      :     0.016047
 13 H s       :     0.900350  s :     0.900350
      pz      :     0.019613  p :     0.078546
      px      :     0.019803
      py      :     0.039130
 14 H s       :     0.900189  s :     0.900189
      pz      :     0.047344  p :     0.078878
      px      :     0.015795
      py      :     0.015739
 15 H s       :     0.898332  s :     0.898332
      pz      :     0.019370  p :     0.079022
      px      :     0.020376
      py      :     0.039276
 16 H s       :     0.903244  s :     0.903244
      pz      :     0.018264  p :     0.079556
      px      :     0.027432
      py      :     0.033860
 17 H s       :     0.900817  s :     0.900817
      pz      :     0.047624  p :     0.079004
      px      :     0.015665
      py      :     0.015715
 18 H s       :     0.922123  s :     0.922123
      pz      :     0.048865  p :     0.075583
      px      :     0.010650
      py      :     0.016067
 19 H s       :     0.902807  s :     0.902807
      pz      :     0.019510  p :     0.075416
      px      :     0.037256
      py      :     0.018650
 20 H s       :     0.918957  s :     0.918957
      pz      :     0.015769  p :     0.076249
      px      :     0.012341
      py      :     0.048139
 21 H s       :     0.919396  s :     0.919396
      pz      :     0.049437  p :     0.075028
      px      :     0.011819
      py      :     0.013772


                      *****************************
                      * MAYER POPULATION ANALYSIS *
                      *****************************

  NA   - Mulliken gross atomic population
  ZA   - Total nuclear charge
  QA   - Mulliken gross atomic charge
  VA   - Mayer's total valence
  BVA  - Mayer's bonded valence
  FA   - Mayer's free valence

  ATOM       NA         ZA         QA         VA         BVA        FA
  0 C      5.8650     6.0000     0.1350     3.9545     3.9545     0.0000
  1 C      5.9912     6.0000     0.0088     3.9730     3.9730    -0.0000
  2 C      6.0535     6.0000    -0.0535     3.9896     3.9896    -0.0000
  3 C      6.0397     6.0000    -0.0397     3.9922     3.9922    -0.0000
  4 C      6.0483     6.0000    -0.0483     3.9968     3.9968     0.0000
  5 C      6.0188     6.0000    -0.0188     3.9503     3.9503    -0.0000
  6 O      8.5019     8.0000    -0.5019     1.9381     1.9381    -0.0000
  7 C      5.8201     6.0000     0.1799     3.9398     3.9398     0.0000
  8 H      0.9730     1.0000     0.0270     0.9711     0.9711    -0.0000
  9 H      0.9770     1.0000     0.0230     0.9645     0.9645    -0.0000
 10 H      0.9763     1.0000     0.0237     0.9705     0.9705     0.0000
 11 H      0.9743     1.0000     0.0257     0.9645     0.9645    -0.0000
 12 H      0.9769     1.0000     0.0231     0.9650     0.9650     0.0000
 13 H      0.9735     1.0000     0.0265     0.9706     0.9706    -0.0000
 14 H      0.9686     1.0000     0.0314     0.9756     0.9756    -0.0000
 15 H      0.9703     1.0000     0.0297     0.9785     0.9785    -0.0000
 16 H      0.9763     1.0000     0.0237     0.9712     0.9712    -0.0000
 17 H      0.9681     1.0000     0.0319     0.9740     0.9740    -0.0000
 18 H      0.9963     1.0000     0.0037     0.9645     0.9645    -0.0000
 19 H      0.9586     1.0000     0.0414     0.9856     0.9856    -0.0000
 20 H      0.9843     1.0000     0.0157     0.9685     0.9685    -0.0000
 21 H      0.9881     1.0000     0.0119     0.9746     0.9746    -0.0000

  Mayer bond orders larger than 0.1
B(  0-C ,  1-C ) :   1.0409 B(  0-C ,  5-C ) :   1.0255 B(  0-C ,  6-O ) :   0.9297 
B(  0-C , 18-H ) :   0.9523 B(  1-C ,  2-C ) :   1.0407 B(  1-C , 14-H ) :   0.9594 
B(  1-C , 15-H ) :   0.9679 B(  2-C ,  3-C ) :   1.0408 B(  2-C ,  8-H ) :   0.9724 
B(  2-C ,  9-H ) :   0.9636 B(  3-C ,  4-C ) :   1.0444 B(  3-C , 10-H ) :   0.9723 
B(  3-C , 11-H ) :   0.9647 B(  4-C ,  5-C ) :   1.0423 B(  4-C , 12-H ) :   0.9634 
B(  4-C , 13-H ) :   0.9707 B(  5-C , 16-H ) :   0.9654 B(  5-C , 17-H ) :   0.9588 
B(  6-O ,  7-C ) :   0.9797 B(  7-C , 19-H ) :   0.9955 B(  7-C , 20-H ) :   0.9806 
B(  7-C , 21-H ) :   0.9801 

-------
TIMINGS
-------

Total SCF time: 0 days 0 hours 0 min 42 sec 

Total time                  ....      42.162 sec
Sum of individual times     ....      41.957 sec  ( 99.5%)

Fock matrix formation       ....      41.847 sec  ( 99.3%)
Diagonalization             ....       0.012 sec  (  0.0%)
Density matrix formation    ....       0.003 sec  (  0.0%)
Population analysis         ....       0.007 sec  (  0.0%)
Initial guess               ....       0.064 sec  (  0.2%)
Orbital Transformation      ....       0.000 sec  (  0.0%)
Orbital Orthonormalization  ....       0.000 sec  (  0.0%)
DIIS solution               ....       0.000 sec  (  0.0%)
SOSCF solution              ....       0.025 sec  (  0.1%)


           ************************************************************
           *        Program running with 4 parallel MPI-processes     *
           *              working on a common directory               *
           ************************************************************


------------------------------------------------------------------------------- 
                              ORCA-MATRIX DRIVEN CI                            
------------------------------------------------------------------------------- 


Wavefunction type
-----------------
Correlation treatment                      ...      CCSD     
Single excitations                         ... ON
Orbital optimization                       ... OFF
Calculation of Z vector                    ... OFF
Calculation of Brueckner orbitals          ... OFF
Perturbative triple excitations            ... ON
Calculation of F12 correction              ... OFF
Frozen core treatment                      ... chemical core (16 el)
Reference Wavefunction                     ... RHF
  Internal Orbitals:     8 ...   31 ( 24 MO's/ 48 electrons)
  Virtual  Orbitals:    32 ...  181 (150 MO's              )
Number of AO's                             ...    182
Number of electrons                        ...     64
Number of correlated electrons             ...     48

Algorithmic settings
--------------------
Integral transformation                    ... All integrals via the RI transformation
K(C) Formation                             ... RI-DLPNO
   PNO-Integral Storage                    ... ON DISK
   PNO occupation number cut-off           ... 1.000e-07
   Singles PNO occupation number cut-off   ... 3.000e-09
   PNO Mulliken prescreening cut-off       ... 1.000e-03
   Domain cut-off (Mulliken population)    ... 1.000e-03
   PNO Normalization                       ...    1
Maximum number of iterations               ...        50
Convergence tolerance (max. residuum)      ... 1.000e-05
Level shift for amplitude update           ... 2.000e-01
Maximum number of DIIS vectors             ...         7
DIIS turned on at iteration                ...         0
Damping before turning on DIIS             ...     0.500
Damping after turning on DIIS              ...     0.000
Pair specific amplitude update             ... OFF
Natural orbital iterations                 ... OFF
Perturbative natural orbital generation    ... OFF
Printlevel                                 ... 2

Singles Fock matrix elements calculated using PNOs.

Memory handling:
----------------
Maximum memory for working arrays          ...   8000 MB
Data storage in matrix containers          ... UNCOMPRESSED
Data type for integral storage             ... DOUBLE
In-Core Storage of quantities:
   Amplitudes+Sigma Vector      ... NO
   J+K operators                ... NO
   DIIS vectors                 ... NO
   3-external integrals         ... NO
   4-external integrals         ... NO

Localization treatment:
-----------------------
Localization option                        ...    6
Localization threshhold                    ... -1.0e+00
Using relative localization threshhold     ... 1.0e-08
Neglect threshold for strong pairs         ... 1.000e-05 Eh
Prescreening threshold for very weak pairs ... 1.000e-07 Eh

Initializing the integral package          ... done
Localizing the valence orbitals
------------------------------------------------------------------------------
                           ORCA ORBITAL LOCALIZATION
------------------------------------------------------------------------------

Input orbitals are from                  ... methoxycyclohexane_eq.proc0.gbw
Output orbitals are to                   ... methoxycyclohexane_eq.proc0.loc
Max. number of iterations                ... 128
Localizations seeded randomly            ... off
Convergence tolerance                    ... 1.000e-06
Using relative localization threshhold   ... 1.000e-08
Treshold for strong local MOs            ... 9.500e-01
Treshold for bond MOs                    ... 8.500e-01
Operator                                 ... 0
Orbital range for localization           ... 8 to 31
Localization criterion                   ... FOSTER-BOYS (AUGMENTED HESSIAN)
Doing the dipole integrals     ... o.k.
Initial value of the localization sum :   397.038485
ITERATION   0 : L=  414.7457007817 DL=  1.77e+01 (AVERGE_DL)=    0.2532914897 
ITERATION   1 : L=  417.0789936885 DL=  2.33e+00 (AVERGE_DL)=    0.0919454175 
ITERATION   2 : L=  417.0935532485 DL=  1.46e-02 (AVERGE_DL)=    0.0072630592 
ITERATION   3 : L=  417.0936909694 DL=  1.38e-04 (AVERGE_DL)=    0.0007063913 
ITERATION   4 : L=  417.0937046619 DL=  1.37e-05 (AVERGE_DL)=    0.0002227341 
ITERATION   5 : L=  417.0937062073 DL=  1.55e-06 (AVERGE_DL)=    0.0000748304 
ITERATION   6 : L=  417.0937064096 DL=  2.02e-07 (AVERGE_DL)=    0.0000270692 
LOCALIZATION SUM CONVERGED

------------------------------------------------------
AUGMENTED HESSIAN OPTIMIZATION OF FOSTER-BOYS ORBITALS
------------------------------------------------------

Spin operator:           0
Orbital window:          8 to 31
Number of iterations:    128
Gradient tolerance:      1.000e-06
Number of pairs:         276
Davidson threshold:      2000
Diagonalization method:  LAPACK
Iter:    0   L: 417.0937064096   Grad. norm: 1.814117e-03
   *** Likely close to a maximum now. ***
       Augmented Hessian eigenvalues:  6.66e-08 -1.21e+00 -3.64e+00 -5.42e+00 ... 
Iter:    1   L: 417.0937064429   Grad. norm: 3.222242e-08
LOCALIZATION HAS CONVERGED.

Eigenvalues of the Hessian:
  0 -1.212e+00
  1 -3.638e+00
  2 -5.422e+00
  3 -5.498e+00
  4 -7.566e+00
  5 -1.102e+01
  6 -1.783e+01
  7 -1.786e+01
  8 -1.788e+01
  9 -1.792e+01
    ...


------------------------------------------------------------------------------- 
                    LOCALIZED MOLECULAR ORBITAL COMPOSITIONS                   
------------------------------------------------------------------------------- 

The Mulliken populations for each LMO on each atom are computed
The LMO`s will be ordered according to atom index and type
  (A) Strongly localized MO`s have populations of >=0.950 on one atom
  (B) Two center bond orbitals have populations of >=0.850 on two atoms
  (C) Other MO`s are considered to be `delocalized`

FOUND  -   2 strongly local MO`s
       -  22 two center bond MO`s
       -   0 significantly delocalized MO`s

Rather strongly localized orbitals:
MO   9:   6O  -   0.978213
MO   8:   6O  -   0.982280
Bond-like localized orbitals:
MO  31:  21H  -   0.511944  and   7C  -   0.508484
MO  30:  20H  -   0.512106  and   7C  -   0.509730
MO  29:  19H  -   0.491531  and   7C  -   0.525789
MO  28:  18H  -   0.519375  and   0C  -   0.499427
MO  27:  17H  -   0.501785  and   5C  -   0.507202
MO  26:  16H  -   0.506980  and   5C  -   0.500086
MO  25:  15H  -   0.500678  and   1C  -   0.507532
MO  24:  14H  -   0.501421  and   1C  -   0.507980
MO  23:  13H  -   0.505327  and   4C  -   0.504286
MO  22:  12H  -   0.510087  and   4C  -   0.501873
MO  21:  11H  -   0.508796  and   3C  -   0.504028
MO  20:  10H  -   0.506859  and   3C  -   0.504111
MO  19:   9H  -   0.510277  and   2C  -   0.502009
MO  18:   8H  -   0.504899  and   2C  -   0.505091
MO  17:   7C  -   0.359503  and   6O  -   0.661390
MO  16:   6O  -   0.673667  and   0C  -   0.349547
MO  15:   5C  -   0.522848  and   4C  -   0.520539
MO  14:   5C  -   0.521398  and   0C  -   0.532812
MO  13:   4C  -   0.527113  and   3C  -   0.519798
MO  12:   3C  -   0.523233  and   2C  -   0.523055
MO  11:   2C  -   0.529422  and   1C  -   0.516114
MO  10:   1C  -   0.496184  and   0C  -   0.558565
Localized MO's were stored in: methoxycyclohexane_eq.proc0.loc

Localizing the core orbitals
------------------------------------------------------------------------------
                           ORCA ORBITAL LOCALIZATION
------------------------------------------------------------------------------

Input orbitals are from                  ... methoxycyclohexane_eq.proc0.loc
Output orbitals are to                   ... methoxycyclohexane_eq.proc0.loc
Max. number of iterations                ... 128
Localizations seeded randomly            ... off
Convergence tolerance                    ... 1.000e-06
Using relative localization threshhold   ... 1.000e-08
Treshold for strong local MOs            ... 9.500e-01
Treshold for bond MOs                    ... 8.500e-01
Operator                                 ... 0
Orbital range for localization           ... 0 to 7
Localization criterion                   ... FOSTER-BOYS (AUGMENTED HESSIAN)
Doing the dipole integrals     ... o.k.
Initial value of the localization sum :   108.676518
ITERATION   0 : L=  108.6765356587 DL=  1.79e-05 (AVERGE_DL)=    0.0007993496 
ITERATION   1 : L=  108.6765356587 DL=  0.00e+00 (AVERGE_DL)=    0.0000000000 
LOCALIZATION SUM CONVERGED

------------------------------------------------------
AUGMENTED HESSIAN OPTIMIZATION OF FOSTER-BOYS ORBITALS
------------------------------------------------------

Spin operator:           0
Orbital window:          0 to 7
Number of iterations:    128
Gradient tolerance:      1.000e-06
Number of pairs:         28
Davidson threshold:      2000
Diagonalization method:  LAPACK
Iter:    0   L: 108.6765356587   Grad. norm: 6.033481e-06
   *** Likely close to a maximum now. ***
       Augmented Hessian eigenvalues:  3.72e-13 -2.86e+01 -2.92e+01 -3.34e+01 ... 
Iter:    1   L: 108.6765356587   Grad. norm: 8.650006e-19
LOCALIZATION HAS CONVERGED.

Eigenvalues of the Hessian:
  0 -2.864e+01
  1 -2.920e+01
  2 -3.343e+01
  3 -3.372e+01
  4 -3.374e+01
  5 -3.374e+01
  6 -3.377e+01
  7 -3.384e+01
  8 -8.088e+01
  9 -8.242e+01
    ...


------------------------------------------------------------------------------- 
                    LOCALIZED MOLECULAR ORBITAL COMPOSITIONS                   
------------------------------------------------------------------------------- 

The Mulliken populations for each LMO on each atom are computed
The LMO`s will be ordered according to atom index and type
  (A) Strongly localized MO`s have populations of >=0.950 on one atom
  (B) Two center bond orbitals have populations of >=0.850 on two atoms
  (C) Other MO`s are considered to be `delocalized`

FOUND  -   8 strongly local MO`s
       -   0 two center bond MO`s
       -   0 significantly delocalized MO`s

Rather strongly localized orbitals:
MO   7:   7C  -   0.999760
MO   6:   6O  -   0.999596
MO   5:   5C  -   0.999150
MO   4:   4C  -   0.999204
MO   3:   3C  -   0.999226
MO   2:   2C  -   0.999228
MO   1:   1C  -   0.999145
MO   0:   0C  -   0.999090
Localized MO's were stored in: methoxycyclohexane_eq.proc0.loc

Warning: internal orbitals are localized - no re-canonicalization of internal orbitals

--------------------------
CLOSED-SHELL FOCK OPERATOR
--------------------------

RI-JK section for the Fock operator:
  RHF full Fock operator         ... done
  RHF frozen core Fock operator  ... done
Time needed for Fock operator              ...            1.890 sec
Reference energy                           ...   -348.108974095

--------------
DLPNO SETTINGS (2015 fully linear scaling implementation)
--------------

TCutMKN:           1.000e-03
TCutPAO:           1.000e-03
TCutPNO:           1.000e-07
TCutPNOSingles:    3.000e-09
TCutEN:            9.700e-01
TCutPAOExt:        1.000e-01
TCutPairs:         1.000e-05
TCutPre:           1.000e-07
TCutOSV:           1.000e-06
TCutDOij:          1.000e-05
TCutDO:            5.000e-03
TCutC:             1.000e-04
TCutCPAO:          1.000e-03
TCutCMO:           1.000e-03
TScaleDOMP2PreScr: 2.000e+00
TScaleMKNMP2PreScr:1.000e+01
TScalePNOMP2PreScr:1.000e+00
PAO overlap thresh 1.000e-08
Using PNOs for Singles Fock computation
Use new domains
Use fully linear algorithm
TCutTNO:           1.000e-09
TCutMP2Pairs:      1.000e-06
TCutDOStrong:      2.000e-03
TCutMKNStrong:     1.000e-02
TCutMKNWeak:       1.000e-01
TCutDOWeak:        4.000e-03
NTCutTNO:          1

--------------------------
Calculating differential overlap integrals ... ok
--------------------------
ELECTRON PAIR PRESCREENING
--------------------------

Dipole-based pair screening          .... used

   TCutDOij = 1.000000e-05
   TCutPre  = 1.000000e-07
   .... Finished loop over pairs
Total time spent in the prescreening                  ...     0.000 sec
sum of pair energies estimated for screened out pairs ...       0.000000000000 Eh
Thresholds for map construction and integral transformation for crude MP2:
   TCutMKN                    ...     1.0e-02
   TCutDO                     ...     1.0e-02
   TCutPairs                  ...     1.0e-05
   TCutPNO_CrudeMP2           ...     1.0e-07
   TCutPNOSingles_CrudeMP2    ...     3.0e-09
--------------------------------
LOCAL RI TRANSFORMATION (IAVPAO)
--------------------------------

Orbital window:       8 to 31
Number of PAOs:     182
Basis functions:    182 (90 shells)
Aux. functions:     644 (228 shells)

Processing maps (0.0 sec)
Average map sizes:
   Aux shells -> MOs              24.0
   Aux shells -> PAOs            182.0
   MOs        -> AO shells        85.6
   PAOs       -> AO shells        90.0

Calculating integrals (0.5 sec, 21.469 MB)
Sorting integrals (0.0 sec, 21.462 MB)
Total time for the integral transformation: 0.5 sec
--------------------------------
INITIAL GUESS AND PNO GENERATION
--------------------------------

PNO truncation parameters                   .... 
    PAOOverlapThresh   =        1.000e-08

    TCutPairs          =        1.000e-05
    TCutPNO            =        1.000e-07
    TCutPNOSingles     =        3.000e-09
    TCutMP2Pairs       =        1.000e-06
    TCutMKN            =        1.000e-02
    TCutDO             =        1.000e-02

Pair selection                          .... not used
Type of local MP2 treatment                 .... semi-local MP2
Strategy for PNO selection                  .... occupation number selection
Pair density normalization                  .... MP2 norm
Spin component scaling                      .... not used

   .... Finished loop over pairs
Making pair pair interaction lists          ... done

                       ===========================
                        280 OF  300 PAIRS ARE KEPT CCSD PAIRS
                         20 OF  300 PAIRS ARE KEPT MP2 PAIRS FOR (T)
                          0 OF  300 PAIRS ARE SKIPPED
                       ===========================

Total time spent in the initial guess                 ...     1.068 sec
SL-MP2 correlation energy (all non-screened pairs)    ...      -1.139251244984 Eh

Initial PNO correlation energy                        ...      -1.138503310138 Eh
sum of pair energies prescreened and skipped MP2 pairs...       0.000000000000 Eh
sum of pair energies of crude MP2 skipped pairs only  ...       0.000000000000 Eh
sum of MP2 pair energies for pairs that were not kept ...      -0.000138290200 Eh
sum of PNO error estimates for the kept pairs         ...      -0.000609644646 Eh
                                                          --------------------
sum of all corrections                                         -0.000747934846
Initial total correlation energy                               -1.139251244984
Thresholds for map construction and integral transformation for fine MP2 and CCSD(T) calculation:
   TCutMKN   ...     1.0e-03
   TCutDO    ...     5.0e-03
   TCutPairs ...     1.0e-05
   TCutCMO   ...     1.0e-03
   TCutCPAO  ...     1.0e-03

Thresholds for map construction and integral transformation for strong Triples:
   TCutMKN   ...     1.0e-02
   TCutDO    ...     1.0e-02
   TCutCMO   ...     1.0e-03
   TCutCPAO  ...     1.0e-03

Thresholds for map construction and integral transformation for weak Triples:
   TCutMKN   ...     1.0e-01
   TCutDO    ...     2.0e-02
   TCutCMO   ...     1.0e-03
   TCutCPAO  ...     1.0e-03

--------------------------------
LOCAL RI TRANSFORMATION (IAVPAO)
--------------------------------

Orbital window:       8 to 31
Number of PAOs:     182
Basis functions:    182 (90 shells)
Aux. functions:     644 (228 shells)

Processing maps (0.0 sec)
Average map sizes:
   Aux shells -> MOs              24.0
   Aux shells -> PAOs            182.0
   MOs        -> AO shells        85.6
   PAOs       -> AO shells        90.0

Calculating integrals (0.5 sec, 21.469 MB)
Sorting integrals (0.0 sec, 21.462 MB)
Total time for the integral transformation: 0.5 sec
--------------------------------
INITIAL GUESS AND PNO GENERATION
--------------------------------

PNO truncation parameters                   .... 
    ScaleTCutPNO       =        1.000e-02
    PAOOverlapThresh   =        1.000e-08

    TCutPairs          =        1.000e-05
    TCutPNO            =        1.000e-07
    TCutPNOSingles     =        3.000e-09
    TCutMP2Pairs       =        1.000e-06
    TCutMKN            =        1.000e-03
    TCutDO             =        5.000e-03

Pair selection                          .... not used
Type of local MP2 treatment                 .... full local PMP2
Strategy for PNO selection                  .... occupation number selection
Pair density normalization                  .... MP2 norm
Spin component scaling                      .... not used

PASS-1: Formation of initial guess LMP2 amplitudes
Initial amplitudes guess done. Entering LMP2 iteration loop:
   Max. no of iterations          ...  50
   Energy convergence tolerance   ...    1.0e-07
   Residual convergence tolerance ...    5.0e-07
   Fock matrix cutoff             ...    1.0e-05 Eh
   DIIS convergence acceleration parameters:
        Max # vectors in DIIS     ... 7
        Start iteration of DIIS   ... 0
        Levelshift                ... 2.000e-01
        Damping factor 1          ... 5.000e-01
        Damping factor 2          ... 1.000e+00
   L-MP2 PNO cut-off              ...   1.0e-09
   L-MP2 PNO cut-off (core)       ...   1.0e-11
                           *** Turning on DIIS ***
LMP2-Iter=   0:  ELMP2= -1.164805103320  DE=   2.5e-02 RMAX=   5.6e-03
LMP2-Iter=   1:  ELMP2= -1.177060703656  DE=   1.2e-02 RMAX=   3.2e-03
LMP2-Iter=   2:  ELMP2= -1.178914305594  DE=   1.9e-03 RMAX=   6.2e-04
LMP2-Iter=   3:  ELMP2= -1.179081543344  DE=   1.7e-04 RMAX=   2.5e-04
LMP2-Iter=   4:  ELMP2= -1.179090093279  DE=   8.5e-06 RMAX=   2.9e-05
LMP2-Iter=   5:  ELMP2= -1.179088458671  DE=   1.6e-06 RMAX=   1.0e-05
LMP2-Iter=   6:  ELMP2= -1.179088241056  DE=   2.2e-07 RMAX=   1.2e-06
LMP2-Iter=   7:  ELMP2= -1.179088224969  DE=   1.6e-08 RMAX=   3.6e-07
LMP2-Iter=   8:  ELMP2= -1.179088232810  DE=   7.8e-09 RMAX=   6.5e-08 => CONVERGED
PASS-2: Formation of Pair natural orbitals
   .... Finished loop over pairs

 PNO Occupation Number Statistics: 
  | Av. % of trace(Dij) retained        ...  99.315702251812
  | sigma^2 in % of trace(Dij) retained ...   1.02e+00
  | Av. % of trace(Di) retained         ...  99.999850453648
  | sigma^2 in % of trace(Di) retained  ...   3.51e-09
 Distributions of % trace(Dij) recovered:
  |       >= 99.9  ...   114 ( 38.0 % of all pairs)
  |   [90.0, 99.0) ...    71 ( 23.7 % of all pairs)
  |   [99.0, 99.9) ...   115 ( 38.3 % of all pairs)
 Distributions of % trace(Di) recovered :
  |       >= 99.9  ...    24 (100.0 % of all I-pairs )

Making pair pair interaction lists          ... done

                       ===========================
                        280 OF  300 PAIRS ARE KEPT
                       ===========================

Total time spent in the initial guess                 ...     8.468 sec
L-MP2 correlation energy (all non-screened pairs)     ...      -1.179088232810 Eh
L-MP2 PNO error correction                            ...      -0.000011249287 Eh
                                                          --------------------
Initial total L-MP2 energy (non-screened pairs)       ...      -1.179099482097 Eh

Initial PNO correlation energy                        ...      -1.178461671433 Eh
sum of pair energies estimated for screened out pairs ...       0.000000000000 Eh
sum of MP2 pair energies for pairs that were not kept ...      -0.000165974313 Eh
sum of PNO error estimates for the kept pairs         ...      -0.000546659305 Eh
                                                          --------------------
sum of all corrections                                         -0.000712633618
Initial total correlation energy                               -1.179174305051
Thresholds for map construction and integral transformation for fine MP2 and CCSD(T) calculation:
   TCutMKN   ...     1.0e-03
   TCutDO    ...     5.0e-03
   TCutPairs ...     1.0e-05
   TCutCMO   ...     1.0e-03
   TCutCPAO  ...     1.0e-03

Time for aux screen maps:            0.004
Time for maps after fine MP2:            0.014
-----------------------------
LOCAL RI TRANSFORMATION (IJV)
-----------------------------

Orbital window:       8 to 31
Basis functions:    182 (90 shells)
Aux. functions:     644 (228 shells)

Processing maps (0.0 sec)
Average map sizes:
   Aux shells -> MOs(i)           24.0
   Aux shells -> MOs(j)           24.0
   MOs        -> AO shells        85.6

Calculating integrals (0.5 sec, 2.837 MB)
Sorting integrals (0.0 sec, 2.830 MB)
Total time for the integral transformation: 0.5 sec
--------------------------------
LOCAL RI TRANSFORMATION (VABPAO)
--------------------------------

Number of PAOs:     182
Basis functions:    182 (90 shells)
Aux. functions:     644 (228 shells)

Processing maps (0.0 sec)
Average map sizes:
   Aux shells -> PAOs            182.0
   PAOs       -> AO shells        90.0

Calculating integrals (0.8 sec, 289.373 MB)
Finished


-------------------------------------
Pair Pair Term precalculation with     
RI-(ij|mn) and (im|jn) transformation  
ON THE FLY                             
-------------------------------------

   IBatch   1 (of   1)              ... done (   32.367 sec)
Total EXT                           ...          32.367 sec

---------------------
RI-PNO TRANSFORMATION
---------------------

Total Number of PNOs                   ...  7525
Average number of PNOs per pair        ...    26
Maximal number of PNOs per pair        ...    44
   #pairs with  1 -  5 PNOs   :    0
   #pairs with  6 - 10 PNOs   :   18
   #pairs with 11 - 15 PNOs   :   32
   #pairs with 16 - 20 PNOs   :   16
   #pairs with 21 - 25 PNOs   :   62
   #pairs with 26 - 30 PNOs   :   31
   #pairs with 31 - 35 PNOs   :   69
   #pairs with 36 - 40 PNOs   :   46
   #pairs with 41 - 45 PNOs   :    6
   #pairs with 46 - 50 PNOs   :    0

Generation of (ij|ab)[P] integrals            ... on
Generation of (ia|bc)[P],(ja|bc)[P] integrals ... on
Storage of 3 and 4 external integrals         ... on
Generation of ALL (ka|bc)[P] integrals        ... on
Keep RI integrals in memory                   ... off

Ibatch:  1 (of  1)
Starting 2-4 index PNO integral generation ... done

Timings:
Total PNO integral transformation time     ...          9.001 sec
Size of the 3-external file                ...        58 MB
Size of the 4-external file                ...       257 MB
Size of the IKJL file                      ...         0 MB
Size of the all 3-external file            ...       702 MB
Size of the 1-external file                ...         4 MB

Making pair/pair overlap matrices          ... done (    1.986 sec)
Size of the pair overlap file              ... 285 MB
Redoing the guess amplitudes               ... done (    0.002 sec)

-------------------------
FINAL STARTUP INFORMATION
-------------------------

E(0)                                       ...   -348.108974095
E(L-MP2)                                   ...     -1.179099482
E(L-MP2) including corrections             ...     -1.179174305
Initial E(tot)                             ...   -349.288148401
<T|T>                                      ...      0.355021568
Number of pairs included                   ... 280
Total number of pairs                      ... 300

------------------------------------------------
                  RHF COUPLED CLUSTER ITERATIONS
------------------------------------------------

Number of PNO amplitudes to be optimized   ...       228315
Number of non-PNO amplitudes               ...      6300000
Untruncated number of regular amplitudes   ...      6750000

Iter       E(tot)           E(Corr)          Delta-E          Residual     Time
  0   -349.248476513     -1.138789784      0.040309698      0.019807713    5.70
                           *** Turning on DIIS ***
  1   -349.332972764     -1.223286035     -0.084496250      0.008538650    5.26
  2   -349.372807743     -1.263121014     -0.039834979      0.002145985    5.86
  3   -349.378207298     -1.268520569     -0.005399555      0.001314987    4.94
  4   -349.379465653     -1.269778924     -0.001258355      0.000430443    6.25
  5   -349.379704093     -1.270017364     -0.000238440      0.000235091    5.93
  6   -349.379754366     -1.270067637     -0.000050273      0.000092217    5.34
  7   -349.379762863     -1.270076134     -0.000008497      0.000044703    6.07
  8   -349.379764389     -1.270077660     -0.000001526      0.000016249    5.31
  9   -349.379763983     -1.270077254      0.000000406      0.000004491    6.02
               --- The Coupled-Cluster iterations have converged ---

----------------------
COUPLED CLUSTER ENERGY
----------------------

E(0)                                       ...   -348.108974095
E(CORR)(strong-pairs)                      ...     -1.270077254
E(CORR)(weak-pairs)                        ...     -0.000712634
E(CORR)(corrected)                         ...     -1.270789888
E(TOT)                                     ...   -349.379763983
Singles Norm <S|S>**1/2                    ...      0.057725758  
T1 diagnostic                              ...      0.008331995  

------------------
LARGEST AMPLITUDES
------------------
  29-> 40  29-> 40       0.042411
  30-> 39  30-> 39       0.041617
  18-> 41  18-> 41       0.041491
  20-> 41  20-> 41       0.041398
  23-> 41  23-> 41       0.041015
  25-> 41  25-> 41       0.040928
  26-> 41  26-> 41       0.040043
  27-> 40  27-> 40       0.039537
  24-> 40  24-> 40       0.039279
  28-> 32  28-> 32       0.038870
  16-> 32  16-> 32       0.037923
  22-> 32  22-> 32       0.037832
  31-> 39  31-> 39       0.037815
  26-> 32  26-> 32       0.037814
  19-> 32  19-> 32       0.037748
  21-> 42  21-> 42       0.037206


-------------------------------------------
DLPNO BASED TRIPLES CORRECTION
-------------------------------------------

Singles multiplier          ...  1.000000
TCutTNO                     ... 1.000e-09
TCutMP2Pairs                ... 1.000e-06
TCutDOStrong                ... 1.000e-02
TCutMKNStrong               ... 1.000e-02
TCutDOWeak                  ... 2.000e-02
TCutMKNWeak                 ... 1.000e-01

Fragment selection                          .... not used
Number of Triples that are to be computed   ...      2470

 . . . . . . . . .
10% done  
20% done  
30% done  
40% done  
50% done  
60% done  
70% done  
80% done  
90% done               (     86.437 sec)
Triples timings:
Total time for T0               ...    93.585 sec
Total time for Iterative (T)    ...     0.000 sec
Total time of overall (T)       ...    93.587 sec

Triples List generation         ...     0.000 sec
TNO generation                  ...     7.143 sec
Pair density generation         ...     0.003 sec
Look up tables                  ...     0.000 sec
Generating 3-index integrals    ...    47.114 sec
  Make 4-ind.int. from 3-ind.int...    13.429 sec
  Projecting amplitudes (D + S) ...    11.292 sec
  Downprojecting integrals      ...     0.004 sec
  Energy contr. (sum over a,b,c)...     3.999 sec
Fitting ET(->0)                 ...     0.000 sec

Everything after 3-index        ...    39.323 sec

Timing details:
 TNO integrals                  ...    58.685 sec
   Reading 3-index integrals    ...     0.059 sec
   Sorting integrals            ...     9.829 sec
       Sorting integrals 1      ...     0.003 sec
       Sorting integrals 2      ...     4.020 sec
       Sorting integrals 3      ...     0.458 sec
       Sorting integrals 4      ...     0.063 sec
       Sorting integrals 5      ...     0.155 sec
       Sorting integrals 6      ...     5.130 sec
   Calculating local VM**-1/2   ...     0.566 sec
   Orthogonal. integrals        ...     0.860 sec
   Multipl. 3-index integrals   ...    47.371 sec
   All concerning IRIab (w/TNO) ...     6.318 sec

 Calculate W0/W1                ...    10.581 sec
 W 3-ext contribution           ...     5.276 sec
 W 3-int contribution           ...     2.195 sec
 Sorting W                      ...     2.909 sec

 V exchange contribution        ...     1.495 sec

 Timings for Triples without generation
     of 3-index integrals       ...    39.316 sec
       0 weak pairs             ...    36.709 sec
       1 weak pair              ...     2.606 sec
       2 weak pairs             ...     0.000 sec
       3 weak pairs             ...     0.000 sec
  Extra time for extrapolation  ...     0.000 sec

Number of Triples   (0, 1, 2, 3 weak pairs; overall):   2162     308       0       0  (  2470)
Number of Atoms     (0, 1, 2, 3 weak pairs; overall):   19.8    17.7     0.0     0.0  (    22)
Number of PAOs      (0, 1, 2, 3 weak pairs; overall):  168.8   158.7     0.0     0.0  (   182)
Number of AuxFcns   (0, 1, 2, 3 weak pairs; overall):  276.0   227.7     0.0     0.0  (   644)
Number of TNOs      (0, 1, 2, 3 weak pairs         ):   64.3    50.1     0.0     0.0
Aver. Number of NTNO, Atoms, PAOs, AuxFcns / Triples:   2470    62.5    19.6   167.5   270.0

Triples Correction (T)                     ...     -0.037772178
Final correlation energy                   ...     -1.308562066
E(CCSD)                                    ...   -349.379763983
E(CCSD(T))                                 ...   -349.417536162


Maximum memory used throughout the entire calculation: 7322.8 MB


------------------------------------------------------------------------------- 
                                     TIMINGS                                   
------------------------------------------------------------------------------- 


Total execution time                   ...      208.914 sec

Localization of occupied MO's          ...        0.497 sec (  0.2%)
Fock Matrix Formation                  ...        1.890 sec (  0.9%)
Global overlap, Fock, MKN matrices     ...        0.165 sec (  0.1%)
Differential overlap integrals         ...        0.162 sec (  0.1%)
Organizing maps                        ...        0.042 sec (  0.0%)
RI 3-index integral generations        ...        2.256 sec (  1.1%)
RI-PNO integral transformation         ...       43.580 sec ( 20.9%)
Initial Guess                          ...        9.557 sec (  4.6%)
DIIS Solver                            ...        0.787 sec (  0.4%)
State Vector Update                    ...        0.018 sec (  0.0%)
Sigma-vector construction              ...       56.490 sec ( 27.0%)
  <D|H|D>(0-ext)                       ...        4.062 sec (  7.2% of sigma)
  <D|H|D>(2-ext Fock)                  ...        0.020 sec (  0.0% of sigma)
  <D|H|D>(2-ext)                       ...        8.806 sec ( 15.6% of sigma)
  <D|H|D>(4-ext)                       ...        3.595 sec (  6.4% of sigma)
  <D|H|D>(4-ext-corr)                  ...       21.803 sec ( 38.6% of sigma)
  CCSD doubles correction              ...        0.325 sec (  0.6% of sigma)
  <S|H|S>                              ...        0.404 sec (  0.7% of sigma)
  <S|H|D>(1-ext)                       ...        0.490 sec (  0.9% of sigma)
  <D|H|S>(1-ext)                       ...        0.018 sec (  0.0% of sigma)
  <S|H|D>(3-ext)                       ...        0.242 sec (  0.4% of sigma)
  Fock-dressing                        ...       10.698 sec ( 18.9% of sigma)
  Singles amplitudes                   ...        0.352 sec (  0.6% of sigma)
  (ik|jl)-dressing                     ...        3.149 sec (  5.6% of sigma)
  (ij|ab),(ia|jb)-dressing             ...        2.307 sec (  4.1% of sigma)
  Pair energies                        ...        0.006 sec (  0.0% of sigma)
Total Time for computing (T)           ...       93.708 sec ( 44.9% of ALL)


-------------------------   --------------------
FINAL SINGLE POINT ENERGY      -349.417536161563
-------------------------   --------------------


                            ***************************************
                            *     ORCA property calculations      *
                            ***************************************

                                    ---------------------
                                    Active property flags
                                    ---------------------
   (+) Dipole Moment


------------------------------------------------------------------------------
                       ORCA ELECTRIC PROPERTIES CALCULATION
------------------------------------------------------------------------------

Dipole Moment Calculation                       ... on
Quadrupole Moment Calculation                   ... off
Polarizability Calculation                      ... off
GBWName                                         ... methoxycyclohexane_eq.gbw
Electron density file                           ... methoxycyclohexane_eq.scfp.tmp
The origin for moment calculation is the CENTER OF MASS  = ( 0.033563, -0.030499 -0.021695)

-------------
DIPOLE MOMENT
-------------
                                X             Y             Z
Electronic contribution:      2.02792      -1.57694      -1.02655
Nuclear contribution   :     -2.14805       1.95195       1.38847
                        -----------------------------------------
Total Dipole Moment    :     -0.12013       0.37502       0.36192
                        -----------------------------------------
Magnitude (a.u.)       :      0.53484
Magnitude (Debye)      :      1.35946



--------------------
Rotational spectrum 
--------------------
 
Rotational constants in cm-1:     0.131778     0.044689     0.036082 
Rotational constants in MHz :  3950.607469  1339.731399  1081.721664 

 Dipole components along the rotational axes: 
x,y,z [a.u.] :     0.128704     0.374504     0.359496 
x,y,z [Debye]:     0.327138     0.951913     0.913766 

 

Timings for individual modules:

Sum of individual times         ...      252.190 sec (=   4.203 min)
GTO integral calculation        ...        0.750 sec (=   0.013 min)   0.3 %
SCF iterations                  ...       42.275 sec (=   0.705 min)  16.8 %
MDCI module                     ...      209.165 sec (=   3.486 min)  82.9 %
                             ****ORCA TERMINATED NORMALLY****
TOTAL RUN TIME: 0 days 0 hours 4 minutes 12 seconds 497 msec
methoxycyclohexane_eq.gbw -> /home1/pantazis/klk/VDZ/Cyclohexanes/methoxycyclohexane_eq.gbw
methoxycyclohexane_eq.ges -> /home1/pantazis/klk/VDZ/Cyclohexanes/methoxycyclohexane_eq.ges
methoxycyclohexane_eq.job -> /home1/pantazis/klk/VDZ/Cyclohexanes/methoxycyclohexane_eq.job
methoxycyclohexane_eq.loc -> /home1/pantazis/klk/VDZ/Cyclohexanes/methoxycyclohexane_eq.loc
methoxycyclohexane_eq.nodes -> /home1/pantazis/klk/VDZ/Cyclohexanes/methoxycyclohexane_eq.nodes
methoxycyclohexane_eq.prop -> /home1/pantazis/klk/VDZ/Cyclohexanes/methoxycyclohexane_eq.prop
methoxycyclohexane_eq_property.txt -> /home1/pantazis/klk/VDZ/Cyclohexanes/methoxycyclohexane_eq_property.txt
methoxycyclohexane_eq.xyz -> /home1/pantazis/klk/VDZ/Cyclohexanes/methoxycyclohexane_eq.xyz
cp: cannot stat methoxycyclohexane_eq.asa.inp: No such file or directory
