! Job execution by suborca V 6.07 on ZEUS !
Job started from zeus1, running /scratch/pantazis/methylformate_CO_Lp_ecl__Q54RxK/orca/orca copied from /opt/orca on zeussn149 in /scratch/pantazis/methylformate_CO_Lp_ecl__Q54RxK
Job execution start: Sat Jun 29 10:51:50 CEST 2019
Shared library path: /scratch/pantazis/methylformate_CO_Lp_ecl__Q54RxK/orca:/opt/openmpi_1.10.2/lib:/opt/intel/mkl/lib/intel64:/opt/intel/lib/intel64:
PBS Job ID is: 158751.icqc
izeussn149
izeussn149
izeussn149
izeussn149

                                 *****************
                                 * O   R   C   A *
                                 *****************

           --- An Ab Initio, DFT and Semiempirical electronic structure package ---

                  #######################################################
                  #                        -***-                        #
                  #          Department of theory and spectroscopy      #
                  #               Directorship: Frank Neese             #
                  #        Max Planck Institute fuer Kohlenforschung    #
                  #                Kaiser Wilhelm Platz 1               #
                  #                 D-45470 Muelheim/Ruhr               #
                  #                      Germany                        #
                  #                                                     #
                  #                  All rights reserved                #
                  #                        -***-                        #
                  #######################################################


                         Program Version 4.1.x  -  STABLE  -
                                (SVN: $Rev: 14094$)
                ($Date: 2019-06-14 15:01:15 +0200 (Fri, 14 Jun 2019) $)

                         (BUILD: $Sun Jun 23 06:18:31 CEST 2019$)


 With contributions from (in alphabetic order):
   Daniel Aravena         : Magnetic Properties
   Michael Atanasov       : Ab Initio Ligand Field Theory
   Alexander A. Auer      : GIAO ZORA
   Ute Becker             : Parallelization
   Giovanni Bistoni       : ED, Open-shell LED
   Martin Brehm           : Molecular dynamics
   Dmytro Bykov           : SCF Hessian
   Vijay G. Chilkuri      : MRCI spin determinant printing
   Dipayan Datta          : RHF DLPNO-CCSD density
   Achintya Kumar Dutta   : EOM-CC, STEOM-CC
   Dmitry Ganyushin       : Spin-Orbit,Spin-Spin,Magnetic field MRCI
   Miquel Garcia          : C-PCM Hessian
   Yang Guo               : DLPNO-NEVPT2, CIM, IAO-localization
   Andreas Hansen         : Spin unrestricted coupled pair/coupled cluster methods
   Benjamin Helmich-Paris : CASSCF linear response (MC-RPA)
   Lee Huntington         : MR-EOM, pCC
   Robert Izsak           : Overlap fitted RIJCOSX, COSX-SCS-MP3, EOM
   Christian Kollmar      : KDIIS, OOCD, Brueckner-CCSD(T), CCSD density
   Simone Kossmann        : Meta GGA functionals, TD-DFT gradient, OOMP2, MP2 Hessian
   Martin Krupicka        : AUTO-CI
   Lucas Lang             : DCDCAS
   Dagmar Lenk            : GEPOL surface, SMD
   Dimitrios Liakos       : Extrapolation schemes; parallel MDCI
   Dimitrios Manganas     : ROCIS; embedding schemes
   Dimitrios Pantazis     : SARC Basis sets
   Taras Petrenko         : DFT Hessian,TD-DFT gradient, ASA, ECA, R-Raman, ABS, FL, XAS/XES, NRVS
   Peter Pinski           : DLPNO-MP2, DLPNO-MP2 Gradient
   Christoph Reimann      : Effective Core Potentials
   Marius Retegan         : Local ZFS, SOC
   Christoph Riplinger    : Optimizer, TS searches, QM/MM, DLPNO-CCSD(T), (RO)-DLPNO pert. Triples
   Tobias Risthaus        : Range-separated hybrids, TD-DFT gradient, RPA, STAB
   Michael Roemelt        : Restricted open shell CIS
   Masaaki Saitow         : Open-shell DLPNO
   Barbara Sandhoefer     : DKH picture change effects
   Avijit Sen             : IP-ROCIS
   Kantharuban Sivalingam : CASSCF convergence, NEVPT2, FIC-MRCI
   Bernardo de Souza      : ESD, SOC TD-DFT
   Georgi Stoychev        : AutoAux, RI-MP2 NMR
   Willem Van den Heuvel  : Paramagnetic NMR
   Boris Wezisla          : Elementary symmetry handling
   Frank Wennmohs         : Technical directorship


 We gratefully acknowledge several colleagues who have allowed us to
 interface, adapt or use parts of their codes:
   Stefan Grimme, W. Hujo, H. Kruse,             : VdW corrections, initial TS optimization,
                  C. Bannwarth                     DFT functionals, gCP, sTDA/sTD-DF
   Ed Valeev                                     : LibInt (2-el integral package), F12 methods
   Garnet Chan, S. Sharma, J. Yang, R. Olivares  : DMRG
   Ulf Ekstrom                                   : XCFun DFT Library
   Mihaly Kallay                                 : mrcc  (arbitrary order and MRCC methods)
   Andreas Klamt, Michael Diedenhofen            : otool_cosmo (COSMO solvation model)
   Jiri Pittner, Ondrej Demel                    : Mk-CCSD
   Frank Weinhold                                : gennbo (NPA and NBO analysis)
   Christopher J. Cramer and Donald G. Truhlar   : smd solvation model
   Lars Goerigk                                  : TD-DFT with DH, B97 family of functionals
   V. Asgeirsson, H. Jonsson                     : NEB implementation
   FAccTs GmbH                                   : IRC, NEB, NEB-TS, Multilevel


 Your calculation uses the libint2 library for the computation of 2-el integrals
 For citations please refer to: http://libint.valeyev.net

 This ORCA versions uses:
   CBLAS   interface :  Fast vector & matrix operations
   LAPACKE interface :  Fast linear algebra routines
   SCALAPACK package :  Parallel linear algebra routines




***************************************
The coordinates will be read from file: methylformate_CO_Lp_ecl.xyz
***************************************


----- Orbital basis set information -----
Your calculation utilizes the basis: cc-pVDZ 
       H, B-Ne : Obtained from the ccRepo (grant-hill.group.shef.ac.uk/ccrepo) Feb. 2017
                 T. H. Dunning, Jr., J. Chem. Phys. 90, 1007 (1989)
            He : Obtained from the ccRepo (grant-hill.group.shef.ac.uk/ccrepo) Feb. 2017
                 D. E. Woon, T. H. Dunning, Jr., J. Chem. Phys. 100, 2975 (1994)
  Li-Be, Na-Mg : Obtained from the ccRepo (grant-hill.group.shef.ac.uk/ccrepo) Feb. 2017
                 B. P. Prascher, D. E. Woon, K. A. Peterson, T. H. Dunning, Jr., A. K. Wilson, Theor. Chem. Acc. 128, 69 (2011)
         Al-Ar : Obtained from the ccRepo (grant-hill.group.shef.ac.uk/ccrepo) Feb. 2017
                 D. E. Woon, T. H. Dunning, Jr., J. Chem. Phys. 98, 1358 (1993)
            Ca : Obtained from the Peterson Research Group Website (tyr0.chem.wsu.edu/~kipeters) Feb. 2017
                 J. Koput, K. A. Peterson, J. Phys. Chem. 106, 9595 (2002)
         Sc-Zn : Obtained from the ccRepo (grant-hill.group.shef.ac.uk/ccrepo) Feb. 2017
                 N. B. Balabanov, K. A. Peterson, J. Chem. Phys. 123, 064107 (2005)
                 N. B. Balabanov, K. A. Peterson, J. Chem. Phys. 125, 074110 (2006)
         Ga-Kr : Obtained from the ccRepo (grant-hill.group.shef.ac.uk/ccrepo) Feb. 2017
                 A. K. Wilson, D. E. Woon, K. A. Peterson, T. H. Dunning, Jr., J. Chem. Phys. 110, 7667 (1999)

----- AuxC basis set information -----
Your calculation utilizes the auxiliary basis: cc-pVDZ/C 
  H-He, B, Ne, Al-Ar, Ga-Br : Obtained from the EMSL Basis Set Exchange (bse.pnl.gov) Feb. 2017
                              F. Weigend, A. Kohn, C. Hattig, J. Chem. Phys. 116, 3175 (2002)
               Li-Be, Na-Mg : Obtained from the EMSL Basis Set Exchange (bse.pnl.gov) Feb. 2017
                              C. Haettig, Phys. Chem. Chem. Phys. 7, 59 (2005)
                        C-F : Obtained from the EMSL Basis Set Exchange (bse.pnl.gov) Feb. 2017
                              C. Haettig, Phys. Chem. Chem. Phys. 7, 59 (2005)
                              F. Weigend, A. Kohn, C. Hattig, J. Chem. Phys. 116, 3175 (2002)
                         Kr : Obtained from the TURBOMOLE 7.0 basis set library
                              F. Weigend, A. Kohn, C. Hattig, J. Chem. Phys. 116, 3175 (2002)
                              S function revised in Sep. 2009

----- AuxJK basis set information -----
Your calculation utilizes the auxiliary basis: cc-pVTZ/JK 
  H, B-F, Al-Cl, Ga-Br : Obtained from the TURBOMOLE 7.0 basis set library

================================================================================
                                        WARNINGS
                       Please study these warnings very carefully!
================================================================================


WARNING: MDCI localization with Augmented Hessian Foster-Boys
  ===> : Switching off randomization!

WARNING: Post HF methods need fully converged wavefunctions
  ===> : Setting SCFConvForced true
         You can overwrite this default with %scf ConvForced false 


INFO   : the flag for use of LIBINT has been found!

================================================================================
                                       INPUT FILE
================================================================================
NAME = methylformate_CO_Lp_ecl.inp
|  1> ! RHF DLPNO-CCSD(T) cc-pVDZ RIJK cc-pVTZ/JK cc-pVDZ/C
|  2> ! KDIIS SOSCF TightSCF TightPNO
|  3> 
|  4> %pal nprocs 4 end
|  5> 
|  6> %maxcore 8000
|  7> 
|  8> %scf maxiter 300
|  9>      shift shift 0.2 erroff 0.1 end
| 10> end
| 11> 
| 12> * xyzfile 0 1 methylformate_CO_Lp_ecl.xyz 
| 13> 
| 14> 
| 15>                          ****END OF INPUT****
================================================================================

                       ****************************
                       * Single Point Calculation *
                       ****************************

---------------------------------
CARTESIAN COORDINATES (ANGSTROEM)
---------------------------------
  C      0.706340    0.281560   -0.217870
  O      1.741500   -0.104580    0.275510
  O     -0.432050   -0.451980   -0.344630
  C     -1.593820    0.116180    0.226740
  H      0.561730    1.310290   -0.628320
  H     -1.386570    0.418770    1.280570
  H     -1.929440    0.995110   -0.374400
  H     -2.396410   -0.658130    0.221870

----------------------------
CARTESIAN COORDINATES (A.U.)
----------------------------
  NO LB      ZA    FRAG     MASS         X           Y           Z
   0 C     6.0000    0    12.011    1.334789    0.532071   -0.411715
   1 O     8.0000    0    15.999    3.290958   -0.197628    0.520638
   2 O     8.0000    0    15.999   -0.816456   -0.854118   -0.651256
   3 C     6.0000    0    12.011   -3.011883    0.219548    0.428477
   4 H     1.0000    0     1.008    1.061516    2.476089   -1.187353
   5 H     1.0000    0     1.008   -2.620238    0.791361    2.419927
   6 H     1.0000    0     1.008   -3.646113    1.880485   -0.707513
   7 H     1.0000    0     1.008   -4.528559   -1.243685    0.419274

--------------------------------
INTERNAL COORDINATES (ANGSTROEM)
--------------------------------
 C      0   0   0     0.000000000000     0.00000000     0.00000000
 O      1   0   0     1.209993450230     0.00000000     0.00000000
 O      1   2   0     1.360176761050   125.58487163     0.00000000
 C      3   1   2     1.413852536653   115.67974081   124.41793222
 H      1   2   3     1.116990003312   123.67634965   179.53344443
 H      4   3   1     1.115827468518   109.75644037   309.21012838
 H      4   3   1     1.116480196376   110.22886633    71.19278338
 H      4   3   1     1.115226614236   108.09412879   190.40412244

---------------------------
INTERNAL COORDINATES (A.U.)
---------------------------
 C      0   0   0     0.000000000000     0.00000000     0.00000000
 O      1   0   0     2.286556244774     0.00000000     0.00000000
 O      1   2   0     2.570361572108   125.58487163     0.00000000
 C      3   1   2     2.671794088024   115.67974081   124.41793222
 H      1   2   3     2.110805200588   123.67634965   179.53344443
 H      4   3   1     2.108608328206   109.75644037   309.21012838
 H      4   3   1     2.109841805097   110.22886633    71.19278338
 H      4   3   1     2.107472878166   108.09412879   190.40412244

---------------------
BASIS SET INFORMATION
---------------------
There are 3 groups of distinct atoms

 Group   1 Type C   : 17s4p1d contracted to 3s2p1d pattern {881/31/1}
 Group   2 Type O   : 17s4p1d contracted to 3s2p1d pattern {881/31/1}
 Group   3 Type H   : 4s1p contracted to 2s1p pattern {31/1}

Atom   0C    basis set group =>   1
Atom   1O    basis set group =>   2
Atom   2O    basis set group =>   2
Atom   3C    basis set group =>   1
Atom   4H    basis set group =>   3
Atom   5H    basis set group =>   3
Atom   6H    basis set group =>   3
Atom   7H    basis set group =>   3
-------------------------------
AUXILIARY BASIS SET INFORMATION
-------------------------------
There are 3 groups of distinct atoms

 Group   1 Type C   : 7s5p4d2f contracted to 7s5p4d2f pattern {1111111/11111/1111/11}
 Group   2 Type O   : 7s5p4d2f contracted to 7s5p4d2f pattern {1111111/11111/1111/11}
 Group   3 Type H   : 3s2p1d contracted to 3s2p1d pattern {111/11/1}

Atom   0C    basis set group =>   1
Atom   1O    basis set group =>   2
Atom   2O    basis set group =>   2
Atom   3C    basis set group =>   1
Atom   4H    basis set group =>   3
Atom   5H    basis set group =>   3
Atom   6H    basis set group =>   3
Atom   7H    basis set group =>   3
-------------------------------
AUXILIARY BASIS SET INFORMATION
-------------------------------
There are 3 groups of distinct atoms

 Group   1 Type C   : 10s7p5d2f1g contracted to 10s7p5d2f1g pattern {1111111111/1111111/11111/11/1}
 Group   2 Type O   : 10s7p5d2f1g contracted to 10s7p5d2f1g pattern {1111111111/1111111/11111/11/1}
 Group   3 Type H   : 4s3p2d1f contracted to 4s3p2d1f pattern {1111/111/11/1}

Atom   0C    basis set group =>   1
Atom   1O    basis set group =>   2
Atom   2O    basis set group =>   2
Atom   3C    basis set group =>   1
Atom   4H    basis set group =>   3
Atom   5H    basis set group =>   3
Atom   6H    basis set group =>   3
Atom   7H    basis set group =>   3

Checking for AutoStart:
The File: methylformate_CO_Lp_ecl.gbw exists
Trying to determine its content:
     ... Fine, the file contains calculation information
     ... Fine, the calculation information was read
     ... Fine, the file contains a basis set
     ... Fine, the basis set was read
     ... Fine, the file contains a geometry
     ... Fine, the geometry was read
     ... Fine, the file contains a set of orbitals
     ... Fine, the orbitals can be read
     => possible old guess file was deleted
     => GBW file was renamed to GES file
     => GES file is set as startup file
     => Guess is set to MORead
     ... now leaving AutoStart



           ************************************************************
           *        Program running with 4 parallel MPI-processes     *
           *              working on a common directory               *
           ************************************************************
------------------------------------------------------------------------------
                           ORCA GTO INTEGRAL CALCULATION
                           -- RI-GTO INTEGRALS CHOSEN --
------------------------------------------------------------------------------

                         BASIS SET STATISTICS AND STARTUP INFO

Gaussian basis set:
 # of primitive gaussian shells          ...  108
 # of primitive gaussian functions       ...  164
 # of contracted shells                  ...   36
 # of contracted basis functions         ...   76
 Highest angular momentum                ...    2
 Maximum contraction depth               ...    8
Auxiliary gaussian basis set:
 # of primitive gaussian shells          ...  140
 # of primitive gaussian functions       ...  436
 # of contracted shells                  ...  140
 # of contracted aux-basis functions     ...  436
 Highest angular momentum                ...    4
 Maximum contraction depth               ...    1
Ratio of auxiliary to basis functions    ...  5.74
Integral package used                  ... LIBINT
 One Electron integrals                  ... done
 Ordering auxiliary basis shells         ... done
 Integral threshhold             Thresh  ...  2.500e-11
 Primitive cut-off               TCut    ...  2.500e-12
 Pre-screening matrix                    ... done
 Shell pair data                         ... 
 Ordering of the shell pairs             ... done (   0.000 sec) 665 of 666 pairs
 Determination of significant pairs      ... done (   0.000 sec)
 Creation of shell pair data             ... done (   0.000 sec)
 Storage of shell pair data              ... done (   0.000 sec)
 Shell pair data done in (   0.001 sec)
 Computing two index integrals           ... done
 Cholesky decomposition of the V-matrix  ... done


Timings:
 Total evaluation time                   ...  12.478 sec (  0.208 min)
 One electron matrix time                ...  12.119 sec (  0.202 min) = 97.1%
 Schwartz matrix evaluation time         ...   0.265 sec (  0.004 min) =  2.1%
 Two index repulsion integral time       ...   0.028 sec (  0.000 min) =  0.2%
 Cholesky decomposition of V             ...   0.038 sec (  0.001 min) =  0.3%
 Three index repulsion integral time     ...   0.000 sec (  0.000 min) =  0.0%



           ************************************************************
           *        Program running with 4 parallel MPI-processes     *
           *              working on a common directory               *
           ************************************************************
-------------------------------------------------------------------------------
                                 ORCA SCF
-------------------------------------------------------------------------------

------------
SCF SETTINGS
------------
Hamiltonian:
 Ab initio Hamiltonian  Method          .... Hartree-Fock(GTOs)
 RI-approximation to the Coulomb term is turned on
   Number of auxiliary basis functions  .... 436
   RI-JK (J+K treated both via RI)      .... on


General Settings:
 Integral files         IntName         .... methylformate_CO_Lp_ecl
 Hartree-Fock type      HFTyp           .... RHF
 Total Charge           Charge          ....    0
 Multiplicity           Mult            ....    1
 Number of Electrons    NEL             ....   32
 Basis Dimension        Dim             ....   76
 Nuclear Repulsion      ENuc            ....    119.1633390291 Eh

Convergence Acceleration:
 DIIS                   CNVDIIS         .... off
 Newton-Raphson         CNVNR           .... off
 SOSCF                  CNVSOSCF        .... on
   Start iteration      SOSCFMaxIt      ....   150
   Startup grad/error   SOSCFStart      ....  0.003300
 Level Shifting         CNVShift        .... on
   Level shift para.    LevelShift      ....    0.2000
   Turn off err/grad.   ShiftErr        ....    0.1000
 Zerner damping         CNVZerner       .... off
 Static damping         CNVDamp         .... off
 Fernandez-Rico         CNVRico         .... off

SCF Procedure:
 Maximum # iterations   MaxIter         ....   300
 SCF integral mode      SCFMode         .... Direct
   Integral package                     .... LIBINT
 Reset frequency        DirectResetFreq ....    20
 Integral Threshold     Thresh          ....  2.500e-11 Eh
 Primitive CutOff       TCut            ....  2.500e-12 Eh

Convergence Tolerance:
 Convergence Check Mode ConvCheckMode   .... Total+1el-Energy
 Convergence forced     ConvForced      .... 1
 Energy Change          TolE            ....  1.000e-08 Eh
 1-El. energy change                    ....  1.000e-05 Eh
 Orbital Gradient       TolG            ....  1.000e-05
 Orbital Rotation angle TolX            ....  1.000e-05


Diagonalization of the overlap matrix:
Smallest eigenvalue                        ... 1.303e-02
Time for diagonalization                   ...    0.004 sec
Threshold for overlap eigenvalues          ... 1.000e-08
Number of eigenvalues below threshold      ... 0
Time for construction of square roots      ...    0.005 sec
Total time needed                          ...    0.010 sec

---------------------
INITIAL GUESS: MOREAD
---------------------
Guess MOs are being read from file: methylformate_CO_Lp_ecl.ges
Input Geometry matches current geometry (good)
Atom 0: N(Shells)= 6 and 10 - projection required
Input basis set needs projection
NBasis(read)= 176
NBasis(calc)= 76
Basis set overlap was calculated
Using GuessMode=FMatrix for the initial guess
C*T matrix was formed
Effective Fockian was calculated
Effective Fockian was diagonalized
Initial density was built
                      ------------------
                      INITIAL GUESS DONE (   0.0 sec)
                      ------------------
--------------
SCF ITERATIONS
--------------
ITER       Energy         Delta-E        Max-DP      RMS-DP      [F,P]   Gradient Norm
                             ****Turning on KDIIS(Cayley)****
  0   -227.7841847816   0.000000000000 0.00151696  0.00008454  0.0039318   0.006090193
  1   -227.7842797466  -0.000094965085 0.00300900  0.00016512  0.0035556   0.005476690
                      *** Initiating the SOSCF procedure ***
                           *** Shutting down KDIIS ***
                      *** Re-Reading the Fockian *** 
                      *** Removing any level shift *** 
ITER      Energy       Delta-E        Grad      Rot      Max-DP    RMS-DP
  2   -227.78442056  -0.0001408114  0.002857  0.002857  0.005168  0.000281
  3   -227.78460028  -0.0001797248  0.001709  0.001360  0.006752  0.000375
  4   -227.78469570  -0.0000954174  0.000645  0.000488  0.001654  0.000104
  5   -227.78470406  -0.0000083601  0.000264  0.000264  0.000614  0.000032
  6   -227.78470563  -0.0000015732  0.000065  0.000088  0.000152  0.000009
  7   -227.78470578  -0.0000001437  0.000032  0.000087  0.000103  0.000005
  8   -227.78470582  -0.0000000383  0.000012  0.000019  0.000037  0.000002
  9   -227.78470582  -0.0000000045  0.000003  0.000003  0.000007  0.000001
                  ***Gradient check signals convergence***
              ***Rediagonalizing the Fockian in SOSCF/NRSCF***

               *****************************************************
               *                     SUCCESS                       *
               *           SCF CONVERGED AFTER  10 CYCLES          *
               *****************************************************


----------------
TOTAL SCF ENERGY
----------------

Total Energy       :         -227.78470582 Eh           -6198.33696 eV

Components:
Nuclear Repulsion  :          119.16333903 Eh            3242.59931 eV
Electronic Energy  :         -346.94804485 Eh           -9440.93627 eV
One Electron Energy:         -547.47738561 Eh          -14897.61704 eV
Two Electron Energy:          200.52934076 Eh            5456.68077 eV

Virial components:
Potential Energy   :         -455.14979651 Eh          -12385.25562 eV
Kinetic Energy     :          227.36509069 Eh            6186.91865 eV
Virial Ratio       :            2.00184556


---------------
SCF CONVERGENCE
---------------

  Last Energy change         ...   -4.5912e-10  Tolerance :   1.0000e-08
  Last MAX-Density change    ...    2.0165e-06  Tolerance :   1.0000e-07
  Last RMS-Density change    ...    1.5615e-07  Tolerance :   5.0000e-09
  Last Orbital Gradient      ...    6.0768e-07  Tolerance :   1.0000e-05
  Last Orbital Rotation      ...    1.1108e-06  Tolerance :   1.0000e-05

             **** THE GBW FILE WAS UPDATED (methylformate_CO_Lp_ecl.gbw) ****
             **** DENSITY FILE WAS UPDATED (methylformate_CO_Lp_ecl.scfp.tmp) ****
             **** ENERGY FILE WAS UPDATED (methylformate_CO_Lp_ecl.en.tmp) ****
----------------
ORBITAL ENERGIES
----------------

  NO   OCC          E(Eh)            E(eV) 
   0   2.0000     -20.600875      -560.5783 
   1   2.0000     -20.569440      -559.7229 
   2   2.0000     -11.398190      -310.1605 
   3   2.0000     -11.319068      -308.0075 
   4   2.0000      -1.458063       -39.6759 
   5   2.0000      -1.374505       -37.4022 
   6   2.0000      -0.976282       -26.5660 
   7   2.0000      -0.838079       -22.8053 
   8   2.0000      -0.723941       -19.6994 
   9   2.0000      -0.681327       -18.5399 
  10   2.0000      -0.666518       -18.1369 
  11   2.0000      -0.612670       -16.6716 
  12   2.0000      -0.553545       -15.0627 
  13   2.0000      -0.514102       -13.9894 
  14   2.0000      -0.466882       -12.7045 
  15   2.0000      -0.455857       -12.4045 
  16   0.0000       0.147351         4.0096 
  17   0.0000       0.179786         4.8922 
  18   0.0000       0.224977         6.1219 
  19   0.0000       0.238955         6.5023 
  20   0.0000       0.251798         6.8518 
  21   0.0000       0.290381         7.9017 
  22   0.0000       0.421133        11.4596 
  23   0.0000       0.482425        13.1275 
  24   0.0000       0.599300        16.3078 
  25   0.0000       0.618756        16.8372 
  26   0.0000       0.667729        18.1698 
  27   0.0000       0.711177        19.3521 
  28   0.0000       0.723357        19.6835 
  29   0.0000       0.817085        22.2340 
  30   0.0000       0.822163        22.3722 
  31   0.0000       0.826876        22.5004 
  32   0.0000       0.866929        23.5904 
  33   0.0000       0.892978        24.2992 
  34   0.0000       0.961721        26.1697 
  35   0.0000       1.090017        29.6609 
  36   0.0000       1.112385        30.2695 
  37   0.0000       1.128220        30.7004 
  38   0.0000       1.213534        33.0219 
  39   0.0000       1.239709        33.7342 
  40   0.0000       1.308060        35.5941 
  41   0.0000       1.351313        36.7711 
  42   0.0000       1.398518        38.0556 
  43   0.0000       1.473640        40.0998 
  44   0.0000       1.526288        41.5324 
  45   0.0000       1.618237        44.0345 
  46   0.0000       1.629718        44.3469 
  47   0.0000       1.728943        47.0469 
  48   0.0000       1.777835        48.3773 
  49   0.0000       1.843703        50.1697 
  50   0.0000       1.856471        50.5171 
  51   0.0000       1.893595        51.5273 
  52   0.0000       1.903627        51.8003 
  53   0.0000       1.942578        52.8602 
  54   0.0000       1.988506        54.1100 
  55   0.0000       2.013050        54.7779 
  56   0.0000       2.073698        56.4282 
  57   0.0000       2.137450        58.1630 
  58   0.0000       2.267688        61.7069 
  59   0.0000       2.314344        62.9765 
  60   0.0000       2.374497        64.6133 
  61   0.0000       2.472649        67.2842 
  62   0.0000       2.648358        72.0655 
  63   0.0000       2.677666        72.8630 
  64   0.0000       2.698848        73.4394 
  65   0.0000       2.726097        74.1809 
  66   0.0000       3.009425        81.8906 
  67   0.0000       3.048820        82.9626 
  68   0.0000       3.236772        88.0770 
  69   0.0000       3.286850        89.4397 
  70   0.0000       3.388644        92.2097 
  71   0.0000       3.508592        95.4736 
  72   0.0000       3.591727        97.7359 
  73   0.0000       3.676964       100.0553 
  74   0.0000       3.830324       104.2284 
  75   0.0000       3.869673       105.2992 

                    ********************************
                    * MULLIKEN POPULATION ANALYSIS *
                    ********************************

-----------------------
MULLIKEN ATOMIC CHARGES
-----------------------
   0 C :    0.433101
   1 O :   -0.321066
   2 O :   -0.435297
   3 C :    0.125759
   4 H :    0.030253
   5 H :    0.048970
   6 H :    0.042502
   7 H :    0.075778
Sum of atomic charges:   -0.0000000

--------------------------------
MULLIKEN REDUCED ORBITAL CHARGES
--------------------------------
  0 C s       :     3.025070  s :     3.025070
      pz      :     0.714397  p :     2.306171
      px      :     0.758104
      py      :     0.833669
      dz2     :     0.023286  d :     0.235659
      dxz     :     0.048315
      dyz     :     0.020761
      dx2y2   :     0.072337
      dxy     :     0.070960
  1 O s       :     3.770689  s :     3.770689
      pz      :     1.364872  p :     4.528578
      px      :     1.441861
      py      :     1.721845
      dz2     :     0.003464  d :     0.021800
      dxz     :     0.006755
      dyz     :     0.001379
      dx2y2   :     0.005245
      dxy     :     0.004957
  2 O s       :     3.758479  s :     3.758479
      pz      :     1.764067  p :     4.658405
      px      :     1.225289
      py      :     1.669048
      dz2     :     0.002497  d :     0.018414
      dxz     :     0.003011
      dyz     :     0.002621
      dx2y2   :     0.002164
      dxy     :     0.008120
  3 C s       :     3.061197  s :     3.061197
      pz      :     0.945289  p :     2.708795
      px      :     0.791551
      py      :     0.971955
      dz2     :     0.021578  d :     0.104249
      dxz     :     0.021671
      dyz     :     0.014063
      dx2y2   :     0.018190
      dxy     :     0.028747
  4 H s       :     0.941241  s :     0.941241
      pz      :     0.005516  p :     0.028506
      px      :     0.002078
      py      :     0.020912
  5 H s       :     0.921943  s :     0.921943
      pz      :     0.020100  p :     0.029086
      px      :     0.003090
      py      :     0.005896
  6 H s       :     0.928665  s :     0.928665
      pz      :     0.009183  p :     0.028833
      px      :     0.004567
      py      :     0.015083
  7 H s       :     0.894853  s :     0.894853
      pz      :     0.004679  p :     0.029369
      px      :     0.012089
      py      :     0.012601


                     *******************************
                     * LOEWDIN POPULATION ANALYSIS *
                     *******************************

----------------------
LOEWDIN ATOMIC CHARGES
----------------------
   0 C :    0.018829
   1 O :   -0.078406
   2 O :   -0.030474
   3 C :    0.019541
   4 H :   -0.006051
   5 H :    0.020769
   6 H :    0.016885
   7 H :    0.038908

-------------------------------
LOEWDIN REDUCED ORBITAL CHARGES
-------------------------------
  0 C s       :     2.863607  s :     2.863607
      pz      :     0.750502  p :     2.589454
      px      :     0.910207
      py      :     0.928746
      dz2     :     0.049703  d :     0.528109
      dxz     :     0.105773
      dyz     :     0.048476
      dx2y2   :     0.166910
      dxy     :     0.157247
  1 O s       :     3.505619  s :     3.505619
      pz      :     1.356167  p :     4.539769
      px      :     1.504003
      py      :     1.679599
      dz2     :     0.004140  d :     0.033018
      dxz     :     0.010278
      dyz     :     0.002138
      dx2y2   :     0.008704
      dxy     :     0.007758
  2 O s       :     3.388326  s :     3.388326
      pz      :     1.702823  p :     4.610992
      px      :     1.253491
      py      :     1.654678
      dz2     :     0.004031  d :     0.031156
      dxz     :     0.005444
      dyz     :     0.002684
      dx2y2   :     0.004661
      dxy     :     0.014336
  3 C s       :     2.828239  s :     2.828239
      pz      :     1.010486  p :     2.897323
      px      :     0.861252
      py      :     1.025585
      dz2     :     0.056950  d :     0.254897
      dxz     :     0.047386
      dyz     :     0.037680
      dx2y2   :     0.038948
      dxy     :     0.073933
  4 H s       :     0.932470  s :     0.932470
      pz      :     0.014692  p :     0.073581
      px      :     0.008182
      py      :     0.050706
  5 H s       :     0.905674  s :     0.905674
      pz      :     0.047005  p :     0.073557
      px      :     0.010711
      py      :     0.015841
  6 H s       :     0.909727  s :     0.909727
      pz      :     0.022834  p :     0.073389
      px      :     0.014529
      py      :     0.036026
  7 H s       :     0.888283  s :     0.888283
      pz      :     0.012741  p :     0.072809
      px      :     0.029479
      py      :     0.030589


                      *****************************
                      * MAYER POPULATION ANALYSIS *
                      *****************************

  NA   - Mulliken gross atomic population
  ZA   - Total nuclear charge
  QA   - Mulliken gross atomic charge
  VA   - Mayer's total valence
  BVA  - Mayer's bonded valence
  FA   - Mayer's free valence

  ATOM       NA         ZA         QA         VA         BVA        FA
  0 C      5.5669     6.0000     0.4331     4.1946     4.1946    -0.0000
  1 O      8.3211     8.0000    -0.3211     2.1986     2.1986    -0.0000
  2 O      8.4353     8.0000    -0.4353     2.0304     2.0304    -0.0000
  3 C      5.8742     6.0000     0.1258     3.9026     3.9026    -0.0000
  4 H      0.9697     1.0000     0.0303     0.9799     0.9799    -0.0000
  5 H      0.9510     1.0000     0.0490     0.9728     0.9728    -0.0000
  6 H      0.9575     1.0000     0.0425     0.9741     0.9741    -0.0000
  7 H      0.9242     1.0000     0.0758     0.9843     0.9843    -0.0000

  Mayer bond orders larger than 0.1
B(  0-C ,  1-O ) :   2.1463 B(  0-C ,  2-O ) :   1.0760 B(  0-C ,  4-H ) :   0.9553 
B(  2-O ,  3-C ) :   0.9264 B(  3-C ,  5-H ) :   0.9826 B(  3-C ,  6-H ) :   0.9812 
B(  3-C ,  7-H ) :   0.9909 

-------
TIMINGS
-------

Total SCF time: 0 days 0 hours 0 min 3 sec 

Total time                  ....       3.109 sec
Sum of individual times     ....       2.909 sec  ( 93.6%)

Fock matrix formation       ....       2.812 sec  ( 90.4%)
Diagonalization             ....       0.023 sec  (  0.7%)
Density matrix formation    ....       0.001 sec  (  0.0%)
Population analysis         ....       0.009 sec  (  0.3%)
Initial guess               ....       0.014 sec  (  0.5%)
Orbital Transformation      ....       0.000 sec  (  0.0%)
Orbital Orthonormalization  ....       0.000 sec  (  0.0%)
DIIS solution               ....       0.000 sec  (  0.0%)
SOSCF solution              ....       0.049 sec  (  1.6%)


           ************************************************************
           *        Program running with 4 parallel MPI-processes     *
           *              working on a common directory               *
           ************************************************************


------------------------------------------------------------------------------- 
                              ORCA-MATRIX DRIVEN CI                            
------------------------------------------------------------------------------- 


Wavefunction type
-----------------
Correlation treatment                      ...      CCSD     
Single excitations                         ... ON
Orbital optimization                       ... OFF
Calculation of Z vector                    ... OFF
Calculation of Brueckner orbitals          ... OFF
Perturbative triple excitations            ... ON
Calculation of F12 correction              ... OFF
Frozen core treatment                      ... chemical core (8 el)
Reference Wavefunction                     ... RHF
  Internal Orbitals:     4 ...   15 ( 12 MO's/ 24 electrons)
  Virtual  Orbitals:    16 ...   75 ( 60 MO's              )
Number of AO's                             ...     76
Number of electrons                        ...     32
Number of correlated electrons             ...     24

Algorithmic settings
--------------------
Integral transformation                    ... All integrals via the RI transformation
K(C) Formation                             ... RI-DLPNO
   PNO-Integral Storage                    ... ON DISK
   PNO occupation number cut-off           ... 1.000e-07
   Singles PNO occupation number cut-off   ... 3.000e-09
   PNO Mulliken prescreening cut-off       ... 1.000e-03
   Domain cut-off (Mulliken population)    ... 1.000e-03
   PNO Normalization                       ...    1
Maximum number of iterations               ...        50
Convergence tolerance (max. residuum)      ... 1.000e-05
Level shift for amplitude update           ... 2.000e-01
Maximum number of DIIS vectors             ...         7
DIIS turned on at iteration                ...         0
Damping before turning on DIIS             ...     0.500
Damping after turning on DIIS              ...     0.000
Pair specific amplitude update             ... OFF
Natural orbital iterations                 ... OFF
Perturbative natural orbital generation    ... OFF
Printlevel                                 ... 2

Singles Fock matrix elements calculated using PNOs.

Memory handling:
----------------
Maximum memory for working arrays          ...   8000 MB
Data storage in matrix containers          ... UNCOMPRESSED
Data type for integral storage             ... DOUBLE
In-Core Storage of quantities:
   Amplitudes+Sigma Vector      ... NO
   J+K operators                ... NO
   DIIS vectors                 ... NO
   3-external integrals         ... NO
   4-external integrals         ... NO

Localization treatment:
-----------------------
Localization option                        ...    6
Localization threshhold                    ... -1.0e+00
Using relative localization threshhold     ... 1.0e-08
Neglect threshold for strong pairs         ... 1.000e-05 Eh
Prescreening threshold for very weak pairs ... 1.000e-07 Eh

Initializing the integral package          ... done
Localizing the valence orbitals
------------------------------------------------------------------------------
                           ORCA ORBITAL LOCALIZATION
------------------------------------------------------------------------------

Input orbitals are from                  ... methylformate_CO_Lp_ecl.proc0.gbw
Output orbitals are to                   ... methylformate_CO_Lp_ecl.proc0.loc
Max. number of iterations                ... 128
Localizations seeded randomly            ... off
Convergence tolerance                    ... 1.000e-06
Using relative localization threshhold   ... 1.000e-08
Treshold for strong local MOs            ... 9.500e-01
Treshold for bond MOs                    ... 8.500e-01
Operator                                 ... 0
Orbital range for localization           ... 4 to 15
Localization criterion                   ... FOSTER-BOYS (AUGMENTED HESSIAN)
Doing the dipole integrals     ... o.k.
Initial value of the localization sum :    88.390377
ITERATION   0 : L=   93.9380511091 DL=  5.55e+00 (AVERGE_DL)=    0.2899235633 
ITERATION   1 : L=   94.7777885201 DL=  8.40e-01 (AVERGE_DL)=    0.1127975802 
ITERATION   2 : L=   94.8298994922 DL=  5.21e-02 (AVERGE_DL)=    0.0280991136 
ITERATION   3 : L=   94.8355908986 DL=  5.69e-03 (AVERGE_DL)=    0.0092861957 
ITERATION   4 : L=   94.8364383155 DL=  8.47e-04 (AVERGE_DL)=    0.0035832457 
ITERATION   5 : L=   94.8365653564 DL=  1.27e-04 (AVERGE_DL)=    0.0013873941 
ITERATION   6 : L=   94.8365845757 DL=  1.92e-05 (AVERGE_DL)=    0.0005396303 
ITERATION   7 : L=   94.8365874393 DL=  2.86e-06 (AVERGE_DL)=    0.0002082996 
ITERATION   8 : L=   94.8365878637 DL=  4.24e-07 (AVERGE_DL)=    0.0000801903 
LOCALIZATION SUM CONVERGED

------------------------------------------------------
AUGMENTED HESSIAN OPTIMIZATION OF FOSTER-BOYS ORBITALS
------------------------------------------------------

Spin operator:           0
Orbital window:          4 to 15
Number of iterations:    128
Gradient tolerance:      1.000e-06
Number of pairs:         66
Davidson threshold:      2000
Diagonalization method:  LAPACK
Iter:    0   L: 94.8365878637   Grad. norm: 8.391511e-04
   *** Likely close to a maximum now. ***
       Augmented Hessian eigenvalues:  1.50e-07 -1.02e+00 -1.09e+00 -2.40e+00 ... 
Iter:    1   L: 94.8365879388   Grad. norm: 7.327245e-08
LOCALIZATION HAS CONVERGED.

Eigenvalues of the Hessian:
  0 -1.018e+00
  1 -1.090e+00
  2 -2.402e+00
  3 -2.655e+00
  4 -2.893e+00
  5 -4.519e+00
  6 -4.917e+00
  7 -5.054e+00
  8 -6.475e+00
  9 -6.960e+00
    ...


------------------------------------------------------------------------------- 
                    LOCALIZED MOLECULAR ORBITAL COMPOSITIONS                   
------------------------------------------------------------------------------- 

The Mulliken populations for each LMO on each atom are computed
The LMO`s will be ordered according to atom index and type
  (A) Strongly localized MO`s have populations of >=0.950 on one atom
  (B) Two center bond orbitals have populations of >=0.850 on two atoms
  (C) Other MO`s are considered to be `delocalized`

FOUND  -   2 strongly local MO`s
       -  10 two center bond MO`s
       -   0 significantly delocalized MO`s

Rather strongly localized orbitals:
MO   5:   2O  -   0.977692
MO   4:   1O  -   0.952203
Bond-like localized orbitals:
MO  15:   7H  -   0.472310  and   3C  -   0.543240
MO  14:   6H  -   0.495385  and   3C  -   0.524467
MO  13:   5H  -   0.492174  and   3C  -   0.529339
MO  12:   4H  -   0.495717  and   0C  -   0.527521
MO  11:   3C  -   0.331736  and   2O  -   0.673753
MO  10:   2O  -   0.662966  and   0C  -   0.355151
MO   9:   2O  -   0.948208  and   0C  -   0.043573
MO   8:   1O  -   0.628158  and   0C  -   0.374316
MO   7:   1O  -   0.643923  and   0C  -   0.362804
MO   6:   1O  -   0.947014  and   0C  -   0.056964
Localized MO's were stored in: methylformate_CO_Lp_ecl.proc0.loc

Localizing the core orbitals
------------------------------------------------------------------------------
                           ORCA ORBITAL LOCALIZATION
------------------------------------------------------------------------------

Input orbitals are from                  ... methylformate_CO_Lp_ecl.proc0.loc
Output orbitals are to                   ... methylformate_CO_Lp_ecl.proc0.loc
Max. number of iterations                ... 128
Localizations seeded randomly            ... off
Convergence tolerance                    ... 1.000e-06
Using relative localization threshhold   ... 1.000e-08
Treshold for strong local MOs            ... 9.500e-01
Treshold for bond MOs                    ... 8.500e-01
Operator                                 ... 0
Orbital range for localization           ... 0 to 3
Localization criterion                   ... FOSTER-BOYS (AUGMENTED HESSIAN)
Doing the dipole integrals     ... o.k.
Initial value of the localization sum :    24.495032
ITERATION   0 : L=   24.4950329452 DL=  7.54e-07 (AVERGE_DL)=    0.0003544928 
LOCALIZATION SUM CONVERGED

------------------------------------------------------
AUGMENTED HESSIAN OPTIMIZATION OF FOSTER-BOYS ORBITALS
------------------------------------------------------

Spin operator:           0
Orbital window:          0 to 3
Number of iterations:    128
Gradient tolerance:      1.000e-06
Number of pairs:         6
Davidson threshold:      2000
Diagonalization method:  LAPACK
Iter:    0   L: 24.4950329452   Grad. norm: 2.501530e-07
   *** Likely close to a maximum now. ***
       Augmented Hessian eigenvalues:  8.75e-16 -2.09e+01 -2.64e+01 -2.85e+01 ... 
Iter:    1   L: 24.4950329452   Grad. norm: 6.530194e-21
LOCALIZATION HAS CONVERGED.

Eigenvalues of the Hessian:
  0 -2.091e+01
  1 -2.642e+01
  2 -2.855e+01
  3 -7.469e+01
  4 -7.878e+01
  5 -1.596e+02


------------------------------------------------------------------------------- 
                    LOCALIZED MOLECULAR ORBITAL COMPOSITIONS                   
------------------------------------------------------------------------------- 

The Mulliken populations for each LMO on each atom are computed
The LMO`s will be ordered according to atom index and type
  (A) Strongly localized MO`s have populations of >=0.950 on one atom
  (B) Two center bond orbitals have populations of >=0.850 on two atoms
  (C) Other MO`s are considered to be `delocalized`

FOUND  -   4 strongly local MO`s
       -   0 two center bond MO`s
       -   0 significantly delocalized MO`s

Rather strongly localized orbitals:
MO   3:   3C  -   0.999797
MO   2:   2O  -   0.999721
MO   1:   1O  -   0.999768
MO   0:   0C  -   1.000340
Localized MO's were stored in: methylformate_CO_Lp_ecl.proc0.loc

Warning: internal orbitals are localized - no re-canonicalization of internal orbitals

--------------------------
CLOSED-SHELL FOCK OPERATOR
--------------------------

RI-JK section for the Fock operator:
  RHF full Fock operator         ... done
  RHF frozen core Fock operator  ... done
Time needed for Fock operator              ...            0.691 sec
Reference energy                           ...   -227.784705821

--------------
DLPNO SETTINGS (2015 fully linear scaling implementation)
--------------

TCutMKN:           1.000e-03
TCutPAO:           1.000e-03
TCutPNO:           1.000e-07
TCutPNOSingles:    3.000e-09
TCutEN:            9.700e-01
TCutPAOExt:        1.000e-01
TCutPairs:         1.000e-05
TCutPre:           1.000e-07
TCutOSV:           1.000e-06
TCutDOij:          1.000e-05
TCutDO:            5.000e-03
TCutC:             1.000e-04
TCutCPAO:          1.000e-03
TCutCMO:           1.000e-03
TScaleDOMP2PreScr: 2.000e+00
TScaleMKNMP2PreScr:1.000e+01
TScalePNOMP2PreScr:1.000e+00
PAO overlap thresh 1.000e-08
Using PNOs for Singles Fock computation
Use new domains
Use fully linear algorithm
TCutTNO:           1.000e-09
TCutMP2Pairs:      1.000e-06
TCutDOStrong:      2.000e-03
TCutMKNStrong:     1.000e-02
TCutMKNWeak:       1.000e-01
TCutDOWeak:        4.000e-03
NTCutTNO:          1

--------------------------
Calculating differential overlap integrals ... ok
--------------------------
ELECTRON PAIR PRESCREENING
--------------------------

Dipole-based pair screening          .... used

   TCutDOij = 1.000000e-05
   TCutPre  = 1.000000e-07
   .... Finished loop over pairs
Total time spent in the prescreening                  ...     0.000 sec
sum of pair energies estimated for screened out pairs ...       0.000000000000 Eh
Thresholds for map construction and integral transformation for crude MP2:
   TCutMKN                    ...     1.0e-02
   TCutDO                     ...     1.0e-02
   TCutPairs                  ...     1.0e-05
   TCutPNO_CrudeMP2           ...     1.0e-07
   TCutPNOSingles_CrudeMP2    ...     3.0e-09
--------------------------------
LOCAL RI TRANSFORMATION (IAVPAO)
--------------------------------

Orbital window:       4 to 15
Number of PAOs:      76
Basis functions:     76 (36 shells)
Aux. functions:     280 (96 shells)

Processing maps (0.0 sec)
Average map sizes:
   Aux shells -> MOs              12.0
   Aux shells -> PAOs             76.0
   MOs        -> AO shells        36.0
   PAOs       -> AO shells        36.0

Calculating integrals (0.4 sec, 1.951 MB)
Sorting integrals (0.0 sec, 1.948 MB)
Total time for the integral transformation: 0.4 sec
--------------------------------
INITIAL GUESS AND PNO GENERATION
--------------------------------

PNO truncation parameters                   .... 
    PAOOverlapThresh   =        1.000e-08

    TCutPairs          =        1.000e-05
    TCutPNO            =        1.000e-07
    TCutPNOSingles     =        3.000e-09
    TCutMP2Pairs       =        1.000e-06
    TCutMKN            =        1.000e-02
    TCutDO             =        1.000e-02

Pair selection                          .... not used
Type of local MP2 treatment                 .... semi-local MP2
Strategy for PNO selection                  .... occupation number selection
Pair density normalization                  .... MP2 norm
Spin component scaling                      .... not used

   .... Finished loop over pairs
Making pair pair interaction lists          ... done

                       ===========================
                         78 OF   78 PAIRS ARE KEPT CCSD PAIRS
                          0 OF   78 PAIRS ARE KEPT MP2 PAIRS FOR (T)
                          0 OF   78 PAIRS ARE SKIPPED
                       ===========================

Total time spent in the initial guess                 ...     0.076 sec
SL-MP2 correlation energy (all non-screened pairs)    ...      -0.610107826388 Eh

Initial PNO correlation energy                        ...      -0.609974052384 Eh
sum of pair energies prescreened and skipped MP2 pairs...       0.000000000000 Eh
sum of pair energies of crude MP2 skipped pairs only  ...       0.000000000000 Eh
sum of MP2 pair energies for pairs that were not kept ...       0.000000000000 Eh
sum of PNO error estimates for the kept pairs         ...      -0.000133774004 Eh
                                                          --------------------
sum of all corrections                                         -0.000133774004
Initial total correlation energy                               -0.610107826388
Thresholds for map construction and integral transformation for fine MP2 and CCSD(T) calculation:
   TCutMKN   ...     1.0e-03
   TCutDO    ...     5.0e-03
   TCutPairs ...     1.0e-05
   TCutCMO   ...     1.0e-03
   TCutCPAO  ...     1.0e-03

Thresholds for map construction and integral transformation for strong Triples:
   TCutMKN   ...     1.0e-02
   TCutDO    ...     1.0e-02
   TCutCMO   ...     1.0e-03
   TCutCPAO  ...     1.0e-03

Thresholds for map construction and integral transformation for weak Triples:
   TCutMKN   ...     1.0e-01
   TCutDO    ...     2.0e-02
   TCutCMO   ...     1.0e-03
   TCutCPAO  ...     1.0e-03

--------------------------------
LOCAL RI TRANSFORMATION (IAVPAO)
--------------------------------

Orbital window:       4 to 15
Number of PAOs:      76
Basis functions:     76 (36 shells)
Aux. functions:     280 (96 shells)

Processing maps (0.0 sec)
Average map sizes:
   Aux shells -> MOs              12.0
   Aux shells -> PAOs             76.0
   MOs        -> AO shells        36.0
   PAOs       -> AO shells        36.0

Calculating integrals (0.4 sec, 1.951 MB)
Sorting integrals (0.0 sec, 1.948 MB)
Total time for the integral transformation: 0.4 sec
--------------------------------
INITIAL GUESS AND PNO GENERATION
--------------------------------

PNO truncation parameters                   .... 
    ScaleTCutPNO       =        1.000e-02
    PAOOverlapThresh   =        1.000e-08

    TCutPairs          =        1.000e-05
    TCutPNO            =        1.000e-07
    TCutPNOSingles     =        3.000e-09
    TCutMP2Pairs       =        1.000e-06
    TCutMKN            =        1.000e-03
    TCutDO             =        5.000e-03

Pair selection                          .... not used
Type of local MP2 treatment                 .... full local PMP2
Strategy for PNO selection                  .... occupation number selection
Pair density normalization                  .... MP2 norm
Spin component scaling                      .... not used

PASS-1: Formation of initial guess LMP2 amplitudes
Initial amplitudes guess done. Entering LMP2 iteration loop:
   Max. no of iterations          ...  50
   Energy convergence tolerance   ...    1.0e-07
   Residual convergence tolerance ...    5.0e-07
   Fock matrix cutoff             ...    1.0e-05 Eh
   DIIS convergence acceleration parameters:
        Max # vectors in DIIS     ... 7
        Start iteration of DIIS   ... 0
        Levelshift                ... 2.000e-01
        Damping factor 1          ... 5.000e-01
        Damping factor 2          ... 1.000e+00
   L-MP2 PNO cut-off              ...   1.0e-09
   L-MP2 PNO cut-off (core)       ...   1.0e-11
                           *** Turning on DIIS ***
LMP2-Iter=   0:  ELMP2= -0.628709427404  DE=   1.8e-02 RMAX=   2.3e-02
LMP2-Iter=   1:  ELMP2= -0.637749967180  DE=   9.0e-03 RMAX=   1.0e-02
LMP2-Iter=   2:  ELMP2= -0.639529309795  DE=   1.8e-03 RMAX=   4.2e-03
LMP2-Iter=   3:  ELMP2= -0.639786704508  DE=   2.6e-04 RMAX=   1.4e-03
LMP2-Iter=   4:  ELMP2= -0.639788534072  DE=   1.8e-06 RMAX=   3.7e-04
LMP2-Iter=   5:  ELMP2= -0.639784300999  DE=   4.2e-06 RMAX=   8.0e-05
LMP2-Iter=   6:  ELMP2= -0.639783190636  DE=   1.1e-06 RMAX=   1.0e-05
LMP2-Iter=   7:  ELMP2= -0.639783070121  DE=   1.2e-07 RMAX=   1.9e-06
LMP2-Iter=   8:  ELMP2= -0.639783088171  DE=   1.8e-08 RMAX=   3.7e-07
LMP2-Iter=   9:  ELMP2= -0.639783086686  DE=   1.5e-09 RMAX=   8.6e-08 => CONVERGED
PASS-2: Formation of Pair natural orbitals
   .... Finished loop over pairs

 PNO Occupation Number Statistics: 
  | Av. % of trace(Dij) retained        ...  99.853394062440
  | sigma^2 in % of trace(Dij) retained ...   8.11e-02
  | Av. % of trace(Di) retained         ...  99.999911703628
  | sigma^2 in % of trace(Di) retained  ...   2.90e-09
 Distributions of % trace(Dij) recovered:
  |       >= 99.9  ...    57 ( 73.1 % of all pairs)
  |   [90.0, 99.0) ...     2 (  2.6 % of all pairs)
  |   [99.0, 99.9) ...    19 ( 24.4 % of all pairs)
 Distributions of % trace(Di) recovered :
  |       >= 99.9  ...    12 (100.0 % of all I-pairs )

Making pair pair interaction lists          ... done

                       ===========================
                         78 OF   78 PAIRS ARE KEPT
                       ===========================

Total time spent in the initial guess                 ...     0.758 sec
L-MP2 correlation energy (all non-screened pairs)     ...      -0.639783086686 Eh
L-MP2 PNO error correction                            ...      -0.000001096315 Eh
                                                          --------------------
Initial total L-MP2 energy (non-screened pairs)       ...      -0.639784183001 Eh

Initial PNO correlation energy                        ...      -0.639666984519 Eh
sum of pair energies estimated for screened out pairs ...       0.000000000000 Eh
sum of MP2 pair energies for pairs that were not kept ...       0.000000000000 Eh
sum of PNO error estimates for the kept pairs         ...      -0.000117198482 Eh
                                                          --------------------
sum of all corrections                                         -0.000117198482
Initial total correlation energy                               -0.639784183001
Thresholds for map construction and integral transformation for fine MP2 and CCSD(T) calculation:
   TCutMKN   ...     1.0e-03
   TCutDO    ...     5.0e-03
   TCutPairs ...     1.0e-05
   TCutCMO   ...     1.0e-03
   TCutCPAO  ...     1.0e-03

Time for aux screen maps:            0.000
Time for maps after fine MP2:            0.002
-----------------------------
LOCAL RI TRANSFORMATION (IJV)
-----------------------------

Orbital window:       4 to 15
Basis functions:     76 (36 shells)
Aux. functions:     280 (96 shells)

Processing maps (0.0 sec)
Average map sizes:
   Aux shells -> MOs(i)           12.0
   Aux shells -> MOs(j)           12.0
   MOs        -> AO shells        36.0

Calculating integrals (0.4 sec, 0.311 MB)
Sorting integrals (0.0 sec, 0.308 MB)
Total time for the integral transformation: 0.4 sec
--------------------------------
LOCAL RI TRANSFORMATION (VABPAO)
--------------------------------

Number of PAOs:      76
Basis functions:     76 (36 shells)
Aux. functions:     280 (96 shells)

Processing maps (0.0 sec)
Average map sizes:
   Aux shells -> PAOs             76.0
   PAOs       -> AO shells        36.0

Calculating integrals (0.5 sec, 21.863 MB)
Finished


-------------------------------------
Pair Pair Term precalculation with     
RI-(ij|mn) and (im|jn) transformation  
ON THE FLY                             
-------------------------------------

   IBatch   1 (of   1)              ... done (    3.813 sec)
Total EXT                           ...           3.862 sec

---------------------
RI-PNO TRANSFORMATION
---------------------

Total Number of PNOs                   ...  2152
Average number of PNOs per pair        ...    27
Maximal number of PNOs per pair        ...    35
   #pairs with  1 -  5 PNOs   :    0
   #pairs with  6 - 10 PNOs   :    0
   #pairs with 11 - 15 PNOs   :    1
   #pairs with 16 - 20 PNOs   :   10
   #pairs with 21 - 25 PNOs   :   13
   #pairs with 26 - 30 PNOs   :   24
   #pairs with 31 - 35 PNOs   :   30
   #pairs with 36 - 40 PNOs   :    0
   #pairs with 41 - 45 PNOs   :    0
   #pairs with 46 - 50 PNOs   :    0

Generation of (ij|ab)[P] integrals            ... on
Generation of (ia|bc)[P],(ja|bc)[P] integrals ... on
Storage of 3 and 4 external integrals         ... on
Generation of ALL (ka|bc)[P] integrals        ... on
Keep RI integrals in memory                   ... off

Ibatch:  1 (of  1)
Starting 2-4 index PNO integral generation ... done

Timings:
Total PNO integral transformation time     ...          1.237 sec
Size of the 3-external file                ...        14 MB
Size of the 4-external file                ...        55 MB
Size of the IKJL file                      ...         0 MB
Size of the all 3-external file            ...        85 MB
Size of the 1-external file                ...         0 MB

Making pair/pair overlap matrices          ... done (    0.107 sec)
Size of the pair overlap file              ... 25 MB
Redoing the guess amplitudes               ... done (    0.001 sec)

-------------------------
FINAL STARTUP INFORMATION
-------------------------

E(0)                                       ...   -227.784705821
E(L-MP2)                                   ...     -0.639784183
E(L-MP2) including corrections             ...     -0.639784183
Initial E(tot)                             ...   -228.424490004
<T|T>                                      ...      0.167268965
Number of pairs included                   ... 78
Total number of pairs                      ... 78

------------------------------------------------
                  RHF COUPLED CLUSTER ITERATIONS
------------------------------------------------

Number of PNO amplitudes to be optimized   ...        61476
Number of non-PNO amplitudes               ...       280800
Untruncated number of regular amplitudes   ...       280800

Iter       E(tot)           E(Corr)          Delta-E          Residual     Time
  0   -228.394923801     -0.610100781      0.029683402      0.019221756    2.14
                           *** Turning on DIIS ***
  1   -228.425569572     -0.640746552     -0.030645771      0.015335184    8.49
  2   -228.445819325     -0.660996306     -0.020249753      0.008231598    2.09
  3   -228.450234759     -0.665411740     -0.004415434      0.004728227    2.09
  4   -228.451830740     -0.667007721     -0.001595981      0.002278684    2.08
  5   -228.452444161     -0.667621142     -0.000613421      0.000809524    2.08
  6   -228.452569409     -0.667746390     -0.000125248      0.000321662    2.09
  7   -228.452591923     -0.667768904     -0.000022515      0.000135825    2.09
  8   -228.452594601     -0.667771582     -0.000002678      0.000081246    2.08
  9   -228.452593179     -0.667770159      0.000001423      0.000052086    2.09
 10   -228.452593043     -0.667770024      0.000000136      0.000030521    2.11
 11   -228.452592580     -0.667769561      0.000000462      0.000018795    1.55
 12   -228.452592322     -0.667769303      0.000000259      0.000011192    2.45
 13   -228.452592033     -0.667769014      0.000000289      0.000005674    1.84
               --- The Coupled-Cluster iterations have converged ---

----------------------
COUPLED CLUSTER ENERGY
----------------------

E(0)                                       ...   -227.784705821
E(CORR)(strong-pairs)                      ...     -0.667769014
E(CORR)(weak-pairs)                        ...     -0.000117198
E(CORR)(corrected)                         ...     -0.667886213
E(TOT)                                     ...   -228.452592033
Singles Norm <S|S>**1/2                    ...      0.074884044  
T1 diagnostic                              ...      0.015285642  

------------------
LARGEST AMPLITUDES
------------------
   8-> 16   8-> 16       0.060797
   7-> 16   7-> 16       0.058120
   8-> 16   7-> 16       0.050916
  12-> 17  12-> 17       0.039763
  12-> 22  12-> 22       0.037620
  14-> 16  14-> 16       0.036511
  13-> 24  13-> 24       0.036171
  13-> 16  13-> 16       0.035953
  14-> 24  14-> 24       0.035468
  15-> 23  15-> 23       0.032612
  15-> 16  15-> 16       0.032509
   8-> 16  -1-> -1       0.029389
   7-> 16  -1-> -1       0.028213
  11-> 17  11-> 17       0.028189
  13-> 16  13-> 24       0.027926
  13-> 24  13-> 16       0.027926


-------------------------------------------
DLPNO BASED TRIPLES CORRECTION
-------------------------------------------

Singles multiplier          ...  1.000000
TCutTNO                     ... 1.000e-09
TCutMP2Pairs                ... 1.000e-06
TCutDOStrong                ... 1.000e-02
TCutMKNStrong               ... 1.000e-02
TCutDOWeak                  ... 2.000e-02
TCutMKNWeak                 ... 1.000e-01

Fragment selection                          .... not used
Number of Triples that are to be computed   ...       352

 . . . . . . . . .
10% done  
20% done  
30% done  
40% done  
50% done  
60% done  
70% done  
80% done  
90% done               (      3.760 sec)
Triples timings:
Total time for T0               ...     3.978 sec
Total time for Iterative (T)    ...     0.000 sec
Total time of overall (T)       ...     3.978 sec

Triples List generation         ...     0.000 sec
TNO generation                  ...     0.216 sec
Pair density generation         ...     0.001 sec
Look up tables                  ...     0.000 sec
Generating 3-index integrals    ...     1.361 sec
  Make 4-ind.int. from 3-ind.int...     1.146 sec
  Projecting amplitudes (D + S) ...     0.249 sec
  Downprojecting integrals      ...     0.000 sec
  Energy contr. (sum over a,b,c)...     0.277 sec
Fitting ET(->0)                 ...     0.000 sec

Everything after 3-index        ...     2.400 sec

Timing details:
 TNO integrals                  ...     2.289 sec
   Reading 3-index integrals    ...     0.008 sec
   Sorting integrals            ...     0.715 sec
       Sorting integrals 1      ...     0.000 sec
       Sorting integrals 2      ...     0.084 sec
       Sorting integrals 3      ...     0.108 sec
       Sorting integrals 4      ...     0.009 sec
       Sorting integrals 5      ...     0.007 sec
       Sorting integrals 6      ...     0.507 sec
   Calculating local VM**-1/2   ...     0.039 sec
   Orthogonal. integrals        ...     0.067 sec
   Multipl. 3-index integrals   ...     1.460 sec
   All concerning IRIab (w/TNO) ...     0.466 sec

 Calculate W0/W1                ...     0.723 sec
 W 3-ext contribution           ...     0.395 sec
 W 3-int contribution           ...     0.105 sec
 Sorting W                      ...     0.183 sec

 V exchange contribution        ...     0.110 sec

 Timings for Triples without generation
     of 3-index integrals       ...     2.398 sec
       0 weak pairs             ...     2.398 sec
       1 weak pair              ...     0.000 sec
       2 weak pairs             ...     0.000 sec
       3 weak pairs             ...     0.000 sec
  Extra time for extrapolation  ...     0.000 sec

Number of Triples   (0, 1, 2, 3 weak pairs; overall):    352       0       0       0  (   352)
Number of Atoms     (0, 1, 2, 3 weak pairs; overall):    8.0     0.0     0.0     0.0  (     8)
Number of PAOs      (0, 1, 2, 3 weak pairs; overall):   75.7     0.0     0.0     0.0  (    76)
Number of AuxFcns   (0, 1, 2, 3 weak pairs; overall):  185.8     0.0     0.0     0.0  (   280)
Number of TNOs      (0, 1, 2, 3 weak pairs         ):   49.7     0.0     0.0     0.0
Aver. Number of NTNO, Atoms, PAOs, AuxFcns / Triples:    352    49.7     8.0    75.7   185.8

Triples Correction (T)                     ...     -0.018984465
Final correlation energy                   ...     -0.686870678
E(CCSD)                                    ...   -228.452592033
E(CCSD(T))                                 ...   -228.471576498


Maximum memory used throughout the entire calculation: 817.8 MB


------------------------------------------------------------------------------- 
                                     TIMINGS                                   
------------------------------------------------------------------------------- 


Total execution time                   ...       48.629 sec

Localization of occupied MO's          ...        0.472 sec (  1.0%)
Fock Matrix Formation                  ...        0.691 sec (  1.4%)
Global overlap, Fock, MKN matrices     ...        0.173 sec (  0.4%)
Differential overlap integrals         ...        0.038 sec (  0.1%)
Organizing maps                        ...        0.007 sec (  0.0%)
RI 3-index integral generations        ...        1.627 sec (  3.3%)
RI-PNO integral transformation         ...        5.308 sec ( 10.9%)
Initial Guess                          ...        0.841 sec (  1.7%)
DIIS Solver                            ...        0.311 sec (  0.6%)
State Vector Update                    ...        0.012 sec (  0.0%)
Sigma-vector construction              ...       35.144 sec ( 72.3%)
  <0|H|D>                              ...        0.001 sec (  0.0% of sigma)
  <D|H|D>(0-ext)                       ...        0.823 sec (  2.3% of sigma)
  <D|H|D>(2-ext Fock)                  ...        0.018 sec (  0.1% of sigma)
  <D|H|D>(2-ext)                       ...        1.251 sec (  3.6% of sigma)
  <D|H|D>(4-ext)                       ...        4.181 sec ( 11.9% of sigma)
  <D|H|D>(4-ext-corr)                  ...       17.191 sec ( 48.9% of sigma)
  CCSD doubles correction              ...        0.171 sec (  0.5% of sigma)
  <S|H|S>                              ...        0.062 sec (  0.2% of sigma)
  <S|H|D>(1-ext)                       ...        0.095 sec (  0.3% of sigma)
  <D|H|S>(1-ext)                       ...        0.009 sec (  0.0% of sigma)
  <S|H|D>(3-ext)                       ...        0.154 sec (  0.4% of sigma)
  Fock-dressing                        ...        2.568 sec (  7.3% of sigma)
  Singles amplitudes                   ...        0.090 sec (  0.3% of sigma)
  (ik|jl)-dressing                     ...        6.817 sec ( 19.4% of sigma)
  (ij|ab),(ia|jb)-dressing             ...        0.632 sec (  1.8% of sigma)
  Pair energies                        ...        0.005 sec (  0.0% of sigma)
Total Time for computing (T)           ...        4.000 sec (  8.2% of ALL)


-------------------------   --------------------
FINAL SINGLE POINT ENERGY      -228.471576498371
-------------------------   --------------------


                            ***************************************
                            *     ORCA property calculations      *
                            ***************************************

                                    ---------------------
                                    Active property flags
                                    ---------------------
   (+) Dipole Moment


------------------------------------------------------------------------------
                       ORCA ELECTRIC PROPERTIES CALCULATION
------------------------------------------------------------------------------

Dipole Moment Calculation                       ... on
Quadrupole Moment Calculation                   ... off
Polarizability Calculation                      ... off
GBWName                                         ... methylformate_CO_Lp_ecl.gbw
Electron density file                           ... methylformate_CO_Lp_ecl.scfp.tmp
The origin for moment calculation is the CENTER OF MASS  = ( 0.160440, -0.064339 -0.015595)

-------------
DIPOLE MOMENT
-------------
                                X             Y             Z
Electronic contribution:      3.83403      -1.24926      -0.60616
Nuclear contribution   :     -5.13401       2.05885       0.49902
                        -----------------------------------------
Total Dipole Moment    :     -1.29998       0.80959      -0.10714
                        -----------------------------------------
Magnitude (a.u.)       :      1.53521
Magnitude (Debye)      :      3.90220



--------------------
Rotational spectrum 
--------------------
 
Rotational constants in cm-1:     1.176607     0.159693     0.156664 
Rotational constants in MHz : 35273.793395  4787.484463  4696.680923 

 Dipole components along the rotational axes: 
x,y,z [a.u.] :    -1.298621    -0.707317    -0.412511 
x,y,z [Debye]:    -3.300832    -1.797857    -1.048519 

 

Timings for individual modules:

Sum of individual times         ...       69.918 sec (=   1.165 min)
GTO integral calculation        ...       17.914 sec (=   0.299 min)  25.6 %
SCF iterations                  ...        3.206 sec (=   0.053 min)   4.6 %
MDCI module                     ...       48.798 sec (=   0.813 min)  69.8 %
                             ****ORCA TERMINATED NORMALLY****
TOTAL RUN TIME: 0 days 0 hours 1 minutes 10 seconds 154 msec
methylformate_CO_Lp_ecl.gbw -> /home1/pantazis/klk/VDZ/Energy_barrier/methylformate_CO_Lp_ecl.gbw
methylformate_CO_Lp_ecl.ges -> /home1/pantazis/klk/VDZ/Energy_barrier/methylformate_CO_Lp_ecl.ges
methylformate_CO_Lp_ecl.job -> /home1/pantazis/klk/VDZ/Energy_barrier/methylformate_CO_Lp_ecl.job
methylformate_CO_Lp_ecl.loc -> /home1/pantazis/klk/VDZ/Energy_barrier/methylformate_CO_Lp_ecl.loc
methylformate_CO_Lp_ecl.nodes -> /home1/pantazis/klk/VDZ/Energy_barrier/methylformate_CO_Lp_ecl.nodes
methylformate_CO_Lp_ecl.prop -> /home1/pantazis/klk/VDZ/Energy_barrier/methylformate_CO_Lp_ecl.prop
methylformate_CO_Lp_ecl_property.txt -> /home1/pantazis/klk/VDZ/Energy_barrier/methylformate_CO_Lp_ecl_property.txt
methylformate_CO_Lp_ecl.xyz -> /home1/pantazis/klk/VDZ/Energy_barrier/methylformate_CO_Lp_ecl.xyz
cp: cannot stat methylformate_CO_Lp_ecl.asa.inp: No such file or directory
