! Job execution by suborca V 6.07 on ZEUS !
Job started from zeus1, running /scratch/pantazis/N_3_dimethylpiperidine_eq_ax__sGjjwV/orca/orca copied from /opt/orca on zeussn129 in /scratch/pantazis/N_3_dimethylpiperidine_eq_ax__sGjjwV
Job execution start: Sat Jun 29 11:27:17 CEST 2019
Shared library path: /scratch/pantazis/N_3_dimethylpiperidine_eq_ax__sGjjwV/orca:/opt/openmpi_1.10.2/lib:/opt/intel/mkl/lib/intel64:/opt/intel/lib/intel64:
PBS Job ID is: 158838.icqc
izeussn129
izeussn129
izeussn129
izeussn129

                                 *****************
                                 * O   R   C   A *
                                 *****************

           --- An Ab Initio, DFT and Semiempirical electronic structure package ---

                  #######################################################
                  #                        -***-                        #
                  #          Department of theory and spectroscopy      #
                  #               Directorship: Frank Neese             #
                  #        Max Planck Institute fuer Kohlenforschung    #
                  #                Kaiser Wilhelm Platz 1               #
                  #                 D-45470 Muelheim/Ruhr               #
                  #                      Germany                        #
                  #                                                     #
                  #                  All rights reserved                #
                  #                        -***-                        #
                  #######################################################


                         Program Version 4.1.x  -  STABLE  -
                                (SVN: $Rev: 14094$)
                ($Date: 2019-06-14 15:01:15 +0200 (Fri, 14 Jun 2019) $)

                         (BUILD: $Sun Jun 23 06:18:31 CEST 2019$)


 With contributions from (in alphabetic order):
   Daniel Aravena         : Magnetic Properties
   Michael Atanasov       : Ab Initio Ligand Field Theory
   Alexander A. Auer      : GIAO ZORA
   Ute Becker             : Parallelization
   Giovanni Bistoni       : ED, Open-shell LED
   Martin Brehm           : Molecular dynamics
   Dmytro Bykov           : SCF Hessian
   Vijay G. Chilkuri      : MRCI spin determinant printing
   Dipayan Datta          : RHF DLPNO-CCSD density
   Achintya Kumar Dutta   : EOM-CC, STEOM-CC
   Dmitry Ganyushin       : Spin-Orbit,Spin-Spin,Magnetic field MRCI
   Miquel Garcia          : C-PCM Hessian
   Yang Guo               : DLPNO-NEVPT2, CIM, IAO-localization
   Andreas Hansen         : Spin unrestricted coupled pair/coupled cluster methods
   Benjamin Helmich-Paris : CASSCF linear response (MC-RPA)
   Lee Huntington         : MR-EOM, pCC
   Robert Izsak           : Overlap fitted RIJCOSX, COSX-SCS-MP3, EOM
   Christian Kollmar      : KDIIS, OOCD, Brueckner-CCSD(T), CCSD density
   Simone Kossmann        : Meta GGA functionals, TD-DFT gradient, OOMP2, MP2 Hessian
   Martin Krupicka        : AUTO-CI
   Lucas Lang             : DCDCAS
   Dagmar Lenk            : GEPOL surface, SMD
   Dimitrios Liakos       : Extrapolation schemes; parallel MDCI
   Dimitrios Manganas     : ROCIS; embedding schemes
   Dimitrios Pantazis     : SARC Basis sets
   Taras Petrenko         : DFT Hessian,TD-DFT gradient, ASA, ECA, R-Raman, ABS, FL, XAS/XES, NRVS
   Peter Pinski           : DLPNO-MP2, DLPNO-MP2 Gradient
   Christoph Reimann      : Effective Core Potentials
   Marius Retegan         : Local ZFS, SOC
   Christoph Riplinger    : Optimizer, TS searches, QM/MM, DLPNO-CCSD(T), (RO)-DLPNO pert. Triples
   Tobias Risthaus        : Range-separated hybrids, TD-DFT gradient, RPA, STAB
   Michael Roemelt        : Restricted open shell CIS
   Masaaki Saitow         : Open-shell DLPNO
   Barbara Sandhoefer     : DKH picture change effects
   Avijit Sen             : IP-ROCIS
   Kantharuban Sivalingam : CASSCF convergence, NEVPT2, FIC-MRCI
   Bernardo de Souza      : ESD, SOC TD-DFT
   Georgi Stoychev        : AutoAux, RI-MP2 NMR
   Willem Van den Heuvel  : Paramagnetic NMR
   Boris Wezisla          : Elementary symmetry handling
   Frank Wennmohs         : Technical directorship


 We gratefully acknowledge several colleagues who have allowed us to
 interface, adapt or use parts of their codes:
   Stefan Grimme, W. Hujo, H. Kruse,             : VdW corrections, initial TS optimization,
                  C. Bannwarth                     DFT functionals, gCP, sTDA/sTD-DF
   Ed Valeev                                     : LibInt (2-el integral package), F12 methods
   Garnet Chan, S. Sharma, J. Yang, R. Olivares  : DMRG
   Ulf Ekstrom                                   : XCFun DFT Library
   Mihaly Kallay                                 : mrcc  (arbitrary order and MRCC methods)
   Andreas Klamt, Michael Diedenhofen            : otool_cosmo (COSMO solvation model)
   Jiri Pittner, Ondrej Demel                    : Mk-CCSD
   Frank Weinhold                                : gennbo (NPA and NBO analysis)
   Christopher J. Cramer and Donald G. Truhlar   : smd solvation model
   Lars Goerigk                                  : TD-DFT with DH, B97 family of functionals
   V. Asgeirsson, H. Jonsson                     : NEB implementation
   FAccTs GmbH                                   : IRC, NEB, NEB-TS, Multilevel


 Your calculation uses the libint2 library for the computation of 2-el integrals
 For citations please refer to: http://libint.valeyev.net

 This ORCA versions uses:
   CBLAS   interface :  Fast vector & matrix operations
   LAPACKE interface :  Fast linear algebra routines
   SCALAPACK package :  Parallel linear algebra routines




***************************************
The coordinates will be read from file: N_3_dimethylpiperidine_eq_ax.xyz
***************************************


----- Orbital basis set information -----
Your calculation utilizes the basis: cc-pVDZ 
       H, B-Ne : Obtained from the ccRepo (grant-hill.group.shef.ac.uk/ccrepo) Feb. 2017
                 T. H. Dunning, Jr., J. Chem. Phys. 90, 1007 (1989)
            He : Obtained from the ccRepo (grant-hill.group.shef.ac.uk/ccrepo) Feb. 2017
                 D. E. Woon, T. H. Dunning, Jr., J. Chem. Phys. 100, 2975 (1994)
  Li-Be, Na-Mg : Obtained from the ccRepo (grant-hill.group.shef.ac.uk/ccrepo) Feb. 2017
                 B. P. Prascher, D. E. Woon, K. A. Peterson, T. H. Dunning, Jr., A. K. Wilson, Theor. Chem. Acc. 128, 69 (2011)
         Al-Ar : Obtained from the ccRepo (grant-hill.group.shef.ac.uk/ccrepo) Feb. 2017
                 D. E. Woon, T. H. Dunning, Jr., J. Chem. Phys. 98, 1358 (1993)
            Ca : Obtained from the Peterson Research Group Website (tyr0.chem.wsu.edu/~kipeters) Feb. 2017
                 J. Koput, K. A. Peterson, J. Phys. Chem. 106, 9595 (2002)
         Sc-Zn : Obtained from the ccRepo (grant-hill.group.shef.ac.uk/ccrepo) Feb. 2017
                 N. B. Balabanov, K. A. Peterson, J. Chem. Phys. 123, 064107 (2005)
                 N. B. Balabanov, K. A. Peterson, J. Chem. Phys. 125, 074110 (2006)
         Ga-Kr : Obtained from the ccRepo (grant-hill.group.shef.ac.uk/ccrepo) Feb. 2017
                 A. K. Wilson, D. E. Woon, K. A. Peterson, T. H. Dunning, Jr., J. Chem. Phys. 110, 7667 (1999)

----- AuxC basis set information -----
Your calculation utilizes the auxiliary basis: cc-pVDZ/C 
  H-He, B, Ne, Al-Ar, Ga-Br : Obtained from the EMSL Basis Set Exchange (bse.pnl.gov) Feb. 2017
                              F. Weigend, A. Kohn, C. Hattig, J. Chem. Phys. 116, 3175 (2002)
               Li-Be, Na-Mg : Obtained from the EMSL Basis Set Exchange (bse.pnl.gov) Feb. 2017
                              C. Haettig, Phys. Chem. Chem. Phys. 7, 59 (2005)
                        C-F : Obtained from the EMSL Basis Set Exchange (bse.pnl.gov) Feb. 2017
                              C. Haettig, Phys. Chem. Chem. Phys. 7, 59 (2005)
                              F. Weigend, A. Kohn, C. Hattig, J. Chem. Phys. 116, 3175 (2002)
                         Kr : Obtained from the TURBOMOLE 7.0 basis set library
                              F. Weigend, A. Kohn, C. Hattig, J. Chem. Phys. 116, 3175 (2002)
                              S function revised in Sep. 2009

----- AuxJK basis set information -----
Your calculation utilizes the auxiliary basis: cc-pVTZ/JK 
  H, B-F, Al-Cl, Ga-Br : Obtained from the TURBOMOLE 7.0 basis set library

================================================================================
                                        WARNINGS
                       Please study these warnings very carefully!
================================================================================


WARNING: MDCI localization with Augmented Hessian Foster-Boys
  ===> : Switching off randomization!

WARNING: Post HF methods need fully converged wavefunctions
  ===> : Setting SCFConvForced true
         You can overwrite this default with %scf ConvForced false 


INFO   : the flag for use of LIBINT has been found!

================================================================================
                                       INPUT FILE
================================================================================
NAME = N_3_dimethylpiperidine_eq_ax.inp
|  1> ! RHF DLPNO-CCSD(T) cc-pVDZ RIJK cc-pVTZ/JK cc-pVDZ/C
|  2> ! KDIIS SOSCF TightSCF TightPNO
|  3> 
|  4> %pal nprocs 4 end
|  5> 
|  6> %maxcore 8000
|  7> 
|  8> %scf maxiter 300
|  9>      shift shift 0.2 erroff 0.1 end
| 10> end
| 11> 
| 12> * xyzfile 0 1 N_3_dimethylpiperidine_eq_ax.xyz 
| 13> 
| 14> 
| 15>                          ****END OF INPUT****
================================================================================

                       ****************************
                       * Single Point Calculation *
                       ****************************

---------------------------------
CARTESIAN COORDINATES (ANGSTROEM)
---------------------------------
  C      1.462010    0.894060    0.548090
  C      1.239470   -0.631820    0.479750
  C     -0.253770   -0.935710    0.700080
  N     -1.107400   -0.221550   -0.251890
  C     -0.950380    1.228320   -0.124230
  C      0.499350    1.651590   -0.378800
  C     -2.500840   -0.624940   -0.131850
  C      1.768300   -1.255080   -0.822140
  H     -0.436960   -2.010560    0.582710
  H     -1.262800    1.570640    0.887040
  H     -1.619300    1.711580   -0.845670
  H      1.784430   -1.091210    1.316380
  H      0.594640    2.733230   -0.223570
  H      0.747960    1.455530   -1.428540
  H      1.294520    1.228730    1.581860
  H      2.503530    1.137510    0.303880
  H     -2.934270   -0.387100    0.860760
  H     -3.101190   -0.117440   -0.894080
  H     -2.590330   -1.704470   -0.290940
  H     -0.528090   -0.673150    1.744880
  H      1.219520   -0.890270   -1.694800
  H      2.830890   -1.024420   -0.961550
  H      1.664350   -2.346210   -0.800550

----------------------------
CARTESIAN COORDINATES (A.U.)
----------------------------
  NO LB      ZA    FRAG     MASS         X           Y           Z
   0 C     6.0000    0    12.011    2.762799    1.689529    1.035740
   1 C     6.0000    0    12.011    2.342259   -1.193967    0.906596
   2 C     6.0000    0    12.011   -0.479556   -1.768236    1.322959
   3 N     7.0000    0    14.007   -2.092683   -0.418669   -0.476003
   4 C     6.0000    0    12.011   -1.795958    2.321188   -0.234761
   5 C     6.0000    0    12.011    0.943635    3.121053   -0.715828
   6 C     6.0000    0    12.011   -4.725903   -1.180965   -0.249160
   7 C     6.0000    0    12.011    3.341603   -2.371757   -1.553619
   8 H     1.0000    0     1.008   -0.825735   -3.799408    1.101162
   9 H     1.0000    0     1.008   -2.386346    2.968079    1.676263
  10 H     1.0000    0     1.008   -3.060034    3.234417   -1.598085
  11 H     1.0000    0     1.008    3.372084   -2.062088    2.487598
  12 H     1.0000    0     1.008    1.123707    5.165056   -0.422486
  13 H     1.0000    0     1.008    1.413440    2.750553   -2.699549
  14 H     1.0000    0     1.008    2.446288    2.321963    2.989282
  15 H     1.0000    0     1.008    4.730986    2.149582    0.574250
  16 H     1.0000    0     1.008   -5.544967   -0.731513    1.626601
  17 H     1.0000    0     1.008   -5.860400   -0.221929   -1.689566
  18 H     1.0000    0     1.008   -4.895014   -3.220982   -0.549797
  19 H     1.0000    0     1.008   -0.997945   -1.272069    3.297345
  20 H     1.0000    0     1.008    2.304559   -1.682366   -3.202708
  21 H     1.0000    0     1.008    5.349607   -1.935873   -1.817066
  22 H     1.0000    0     1.008    3.145166   -4.433694   -1.512820

--------------------------------
INTERNAL COORDINATES (ANGSTROEM)
--------------------------------
 C      0   0   0     0.000000000000     0.00000000     0.00000000
 C      1   0   0     1.543536258596     0.00000000     0.00000000
 C      2   1   0     1.539694819956   109.18396302     0.00000000
 N      3   2   1     1.464566681104   112.08685067    55.73018036
 C      4   3   2     1.463924647275   111.33033540   299.40557080
 C      5   4   3     1.531561442026   111.14600320    59.56181299
 C      4   3   2     1.455612629548   111.66763905   173.77922286
 C      2   1   3     1.537215589499   112.87410959   125.27492656
 H      3   2   1     1.096647990697   109.88522997   175.97458229
 H      5   4   3     1.112410109492   110.72759835   297.76817269
 H      5   4   3     1.096115809392   108.28831597   180.82787528
 H      2   1   3     1.099077035790   107.93916923   244.22956220
 H      6   5   4     1.096869010685   109.34391751   182.98941961
 H      6   5   4     1.096449051849   108.92580997    66.39533135
 H      1   2   3     1.099425905598   108.69855390    68.52145710
 H      1   2   3     1.097119107937   110.26574172   185.08888399
 H      7   4   3     1.108920214713   112.86384896    62.69003092
 H      7   4   3     1.094975317256   109.81652144   183.27826103
 H      7   4   3     1.094853007988   109.84711741   302.06507426
 H      3   2   1     1.111663733329   109.09870261   292.88264268
 H      8   2   1     1.093517855410   111.58963307   295.22672843
 H      8   2   1     1.096237516143   110.84565580    56.08406995
 H      8   2   1     1.096282996083   110.74703632   175.54980357

---------------------------
INTERNAL COORDINATES (A.U.)
---------------------------
 C      0   0   0     0.000000000000     0.00000000     0.00000000
 C      1   0   0     2.916860806524     0.00000000     0.00000000
 C      2   1   0     2.909601539534   109.18396302     0.00000000
 N      3   2   1     2.767629932153   112.08685067    55.73018036
 C      4   3   2     2.766416664048   111.33033540   299.40557080
 C      5   4   3     2.894231682702   111.14600320    59.56181299
 C      4   3   2     2.750709226923   111.66763905   173.77922286
 C      2   1   3     2.904916472948   112.87410959   125.27492656
 H      3   2   1     2.072364367733   109.88522997   175.97458229
 H      5   4   3     2.102150455545   110.72759835   297.76817269
 H      5   4   3     2.071358690813   108.28831597   180.82787528
 H      2   1   3     2.076954597724   107.93916923   244.22956220
 H      6   5   4     2.072782034979   109.34391751   182.98941961
 H      6   5   4     2.071988427792   108.92580997    66.39533135
 H      1   2   3     2.077613866119   108.69855390    68.52145710
 H      1   2   3     2.073254650293   110.26574172   185.08888399
 H      7   4   3     2.095555510177   112.86384896    62.69003092
 H      7   4   3     2.069203473017   109.81652144   183.27826103
 H      7   4   3     2.068972341997   109.84711741   302.06507426
 H      3   2   1     2.100740009005   109.09870261   292.88264268
 H      8   2   1     2.066449269277   111.58963307   295.22672843
 H      8   2   1     2.071588683241   110.84565580    56.08406995
 H      8   2   1     2.071674627871   110.74703632   175.54980357

---------------------
BASIS SET INFORMATION
---------------------
There are 3 groups of distinct atoms

 Group   1 Type C   : 17s4p1d contracted to 3s2p1d pattern {881/31/1}
 Group   2 Type N   : 17s4p1d contracted to 3s2p1d pattern {881/31/1}
 Group   3 Type H   : 4s1p contracted to 2s1p pattern {31/1}

Atom   0C    basis set group =>   1
Atom   1C    basis set group =>   1
Atom   2C    basis set group =>   1
Atom   3N    basis set group =>   2
Atom   4C    basis set group =>   1
Atom   5C    basis set group =>   1
Atom   6C    basis set group =>   1
Atom   7C    basis set group =>   1
Atom   8H    basis set group =>   3
Atom   9H    basis set group =>   3
Atom  10H    basis set group =>   3
Atom  11H    basis set group =>   3
Atom  12H    basis set group =>   3
Atom  13H    basis set group =>   3
Atom  14H    basis set group =>   3
Atom  15H    basis set group =>   3
Atom  16H    basis set group =>   3
Atom  17H    basis set group =>   3
Atom  18H    basis set group =>   3
Atom  19H    basis set group =>   3
Atom  20H    basis set group =>   3
Atom  21H    basis set group =>   3
Atom  22H    basis set group =>   3
-------------------------------
AUXILIARY BASIS SET INFORMATION
-------------------------------
There are 3 groups of distinct atoms

 Group   1 Type C   : 7s5p4d2f contracted to 7s5p4d2f pattern {1111111/11111/1111/11}
 Group   2 Type N   : 7s5p4d2f contracted to 7s5p4d2f pattern {1111111/11111/1111/11}
 Group   3 Type H   : 3s2p1d contracted to 3s2p1d pattern {111/11/1}

Atom   0C    basis set group =>   1
Atom   1C    basis set group =>   1
Atom   2C    basis set group =>   1
Atom   3N    basis set group =>   2
Atom   4C    basis set group =>   1
Atom   5C    basis set group =>   1
Atom   6C    basis set group =>   1
Atom   7C    basis set group =>   1
Atom   8H    basis set group =>   3
Atom   9H    basis set group =>   3
Atom  10H    basis set group =>   3
Atom  11H    basis set group =>   3
Atom  12H    basis set group =>   3
Atom  13H    basis set group =>   3
Atom  14H    basis set group =>   3
Atom  15H    basis set group =>   3
Atom  16H    basis set group =>   3
Atom  17H    basis set group =>   3
Atom  18H    basis set group =>   3
Atom  19H    basis set group =>   3
Atom  20H    basis set group =>   3
Atom  21H    basis set group =>   3
Atom  22H    basis set group =>   3
-------------------------------
AUXILIARY BASIS SET INFORMATION
-------------------------------
There are 3 groups of distinct atoms

 Group   1 Type C   : 10s7p5d2f1g contracted to 10s7p5d2f1g pattern {1111111111/1111111/11111/11/1}
 Group   2 Type N   : 10s7p5d2f1g contracted to 10s7p5d2f1g pattern {1111111111/1111111/11111/11/1}
 Group   3 Type H   : 4s3p2d1f contracted to 4s3p2d1f pattern {1111/111/11/1}

Atom   0C    basis set group =>   1
Atom   1C    basis set group =>   1
Atom   2C    basis set group =>   1
Atom   3N    basis set group =>   2
Atom   4C    basis set group =>   1
Atom   5C    basis set group =>   1
Atom   6C    basis set group =>   1
Atom   7C    basis set group =>   1
Atom   8H    basis set group =>   3
Atom   9H    basis set group =>   3
Atom  10H    basis set group =>   3
Atom  11H    basis set group =>   3
Atom  12H    basis set group =>   3
Atom  13H    basis set group =>   3
Atom  14H    basis set group =>   3
Atom  15H    basis set group =>   3
Atom  16H    basis set group =>   3
Atom  17H    basis set group =>   3
Atom  18H    basis set group =>   3
Atom  19H    basis set group =>   3
Atom  20H    basis set group =>   3
Atom  21H    basis set group =>   3
Atom  22H    basis set group =>   3

Checking for AutoStart:
The File: N_3_dimethylpiperidine_eq_ax.gbw exists
Trying to determine its content:
     ... Fine, the file contains calculation information
     ... Fine, the calculation information was read
     ... Fine, the file contains a basis set
     ... Fine, the basis set was read
     ... Fine, the file contains a geometry
     ... Fine, the geometry was read
     ... Fine, the file contains a set of orbitals
     ... Fine, the orbitals can be read
     => possible old guess file was deleted
     => GBW file was renamed to GES file
     => GES file is set as startup file
     => Guess is set to MORead
     ... now leaving AutoStart



           ************************************************************
           *        Program running with 4 parallel MPI-processes     *
           *              working on a common directory               *
           ************************************************************
------------------------------------------------------------------------------
                           ORCA GTO INTEGRAL CALCULATION
                           -- RI-GTO INTEGRALS CHOSEN --
------------------------------------------------------------------------------

                         BASIS SET STATISTICS AND STARTUP INFO

Gaussian basis set:
 # of primitive gaussian shells          ...  251
 # of primitive gaussian functions       ...  377
 # of contracted shells                  ...   93
 # of contracted basis functions         ...  187
 Highest angular momentum                ...    2
 Maximum contraction depth               ...    8
Auxiliary gaussian basis set:
 # of primitive gaussian shells          ...  350
 # of primitive gaussian functions       ... 1082
 # of contracted shells                  ...  350
 # of contracted aux-basis functions     ... 1082
 Highest angular momentum                ...    4
 Maximum contraction depth               ...    1
Ratio of auxiliary to basis functions    ...  5.79
Integral package used                  ... LIBINT
 One Electron integrals                  ... done
 Ordering auxiliary basis shells         ... done
 Integral threshhold             Thresh  ...  2.500e-11
 Primitive cut-off               TCut    ...  2.500e-12
 Pre-screening matrix                    ... done
 Shell pair data                         ... 
 Ordering of the shell pairs             ... done (   0.001 sec) 4321 of 4371 pairs
 Determination of significant pairs      ... done (   0.000 sec)
 Creation of shell pair data             ... done (   0.002 sec)
 Storage of shell pair data              ... done (   0.002 sec)
 Shell pair data done in (   0.004 sec)
 Computing two index integrals           ... done
 Cholesky decomposition of the V-matrix  ... done


Timings:
 Total evaluation time                   ...   0.491 sec (  0.008 min)
 One electron matrix time                ...   0.047 sec (  0.001 min) =  9.5%
 Schwartz matrix evaluation time         ...   0.191 sec (  0.003 min) = 39.0%
 Two index repulsion integral time       ...   0.099 sec (  0.002 min) = 20.3%
 Cholesky decomposition of V             ...   0.123 sec (  0.002 min) = 25.0%
 Three index repulsion integral time     ...   0.000 sec (  0.000 min) =  0.0%



           ************************************************************
           *        Program running with 4 parallel MPI-processes     *
           *              working on a common directory               *
           ************************************************************
-------------------------------------------------------------------------------
                                 ORCA SCF
-------------------------------------------------------------------------------

------------
SCF SETTINGS
------------
Hamiltonian:
 Ab initio Hamiltonian  Method          .... Hartree-Fock(GTOs)
 RI-approximation to the Coulomb term is turned on
   Number of auxiliary basis functions  .... 1082
   RI-JK (J+K treated both via RI)      .... on


General Settings:
 Integral files         IntName         .... N_3_dimethylpiperidine_eq_ax
 Hartree-Fock type      HFTyp           .... RHF
 Total Charge           Charge          ....    0
 Multiplicity           Mult            ....    1
 Number of Electrons    NEL             ....   64
 Basis Dimension        Dim             ....  187
 Nuclear Repulsion      ENuc            ....    417.6574435540 Eh

Convergence Acceleration:
 DIIS                   CNVDIIS         .... off
 Newton-Raphson         CNVNR           .... off
 SOSCF                  CNVSOSCF        .... on
   Start iteration      SOSCFMaxIt      ....   150
   Startup grad/error   SOSCFStart      ....  0.003300
 Level Shifting         CNVShift        .... on
   Level shift para.    LevelShift      ....    0.2000
   Turn off err/grad.   ShiftErr        ....    0.1000
 Zerner damping         CNVZerner       .... off
 Static damping         CNVDamp         .... off
 Fernandez-Rico         CNVRico         .... off

SCF Procedure:
 Maximum # iterations   MaxIter         ....   300
 SCF integral mode      SCFMode         .... Direct
   Integral package                     .... LIBINT
 Reset frequency        DirectResetFreq ....    20
 Integral Threshold     Thresh          ....  2.500e-11 Eh
 Primitive CutOff       TCut            ....  2.500e-12 Eh

Convergence Tolerance:
 Convergence Check Mode ConvCheckMode   .... Total+1el-Energy
 Convergence forced     ConvForced      .... 1
 Energy Change          TolE            ....  1.000e-08 Eh
 1-El. energy change                    ....  1.000e-05 Eh
 Orbital Gradient       TolG            ....  1.000e-05
 Orbital Rotation angle TolX            ....  1.000e-05


Diagonalization of the overlap matrix:
Smallest eigenvalue                        ... 2.900e-03
Time for diagonalization                   ...    0.008 sec
Threshold for overlap eigenvalues          ... 1.000e-08
Number of eigenvalues below threshold      ... 0
Time for construction of square roots      ...    0.007 sec
Total time needed                          ...    0.016 sec

---------------------
INITIAL GUESS: MOREAD
---------------------
Guess MOs are being read from file: N_3_dimethylpiperidine_eq_ax.ges
Input Geometry matches current geometry (good)
Atom 0: N(Shells)= 6 and 10 - projection required
Input basis set needs projection
NBasis(read)= 450
NBasis(calc)= 187
Basis set overlap was calculated
Using GuessMode=FMatrix for the initial guess
C*T matrix was formed
Effective Fockian was calculated
Effective Fockian was diagonalized
Initial density was built
                      ------------------
                      INITIAL GUESS DONE (   0.1 sec)
                      ------------------
--------------
SCF ITERATIONS
--------------
ITER       Energy         Delta-E        Max-DP      RMS-DP      [F,P]   Gradient Norm
                             ****Turning on KDIIS(Cayley)****
  0   -328.2743574922   0.000000000000 0.00248792  0.00005341  0.0037733   0.005593477
  1   -328.2744978989  -0.000140406736 0.00470032  0.00010323  0.0034321   0.005082402
                      *** Initiating the SOSCF procedure ***
                           *** Shutting down KDIIS ***
                      *** Re-Reading the Fockian *** 
                      *** Removing any level shift *** 
ITER      Energy       Delta-E        Grad      Rot      Max-DP    RMS-DP
  2   -328.27473763  -0.0002397292  0.002748  0.002748  0.007259  0.000166
  3   -328.27501904  -0.0002814075  0.001650  0.000519  0.009915  0.000231
  4   -328.27517426  -0.0001552288  0.000162  0.000246  0.000832  0.000030
  5   -328.27517832  -0.0000040568  0.000052  0.000058  0.000343  0.000007
  6   -328.27517869  -0.0000003737  0.000017  0.000020  0.000071  0.000002
  7   -328.27517872  -0.0000000297  0.000006  0.000014  0.000022  0.000001
                  ***Gradient check signals convergence***
              ***Rediagonalizing the Fockian in SOSCF/NRSCF***

               *****************************************************
               *                     SUCCESS                       *
               *           SCF CONVERGED AFTER   8 CYCLES          *
               *****************************************************


----------------
TOTAL SCF ENERGY
----------------

Total Energy       :         -328.27517873 Eh           -8932.82175 eV

Components:
Nuclear Repulsion  :          417.65744355 Eh           11365.03683 eV
Electronic Energy  :         -745.93262228 Eh          -20297.85858 eV
One Electron Energy:        -1271.68414544 Eh          -34604.28485 eV
Two Electron Energy:          525.75152316 Eh           14306.42627 eV

Virial components:
Potential Energy   :         -656.07340746 Eh          -17852.66503 eV
Kinetic Energy     :          327.79822873 Eh            8919.84328 eV
Virial Ratio       :            2.00145501


---------------
SCF CONVERGENCE
---------------

  Last Energy change         ...   -1.6724e-09  Tolerance :   1.0000e-08
  Last MAX-Density change    ...    1.0343e-05  Tolerance :   1.0000e-07
  Last RMS-Density change    ...    2.0038e-07  Tolerance :   5.0000e-09
  Last Orbital Gradient      ...    1.6566e-06  Tolerance :   1.0000e-05
  Last Orbital Rotation      ...    5.2000e-06  Tolerance :   1.0000e-05

             **** THE GBW FILE WAS UPDATED (N_3_dimethylpiperidine_eq_ax.gbw) ****
             **** DENSITY FILE WAS UPDATED (N_3_dimethylpiperidine_eq_ax.scfp.tmp) ****
             **** ENERGY FILE WAS UPDATED (N_3_dimethylpiperidine_eq_ax.en.tmp) ****
----------------
ORBITAL ENERGIES
----------------

  NO   OCC          E(Eh)            E(eV) 
   0   2.0000     -15.541327      -422.9010 
   1   2.0000     -11.246948      -306.0450 
   2   2.0000     -11.245834      -306.0147 
   3   2.0000     -11.245647      -306.0096 
   4   2.0000     -11.225139      -305.4516 
   5   2.0000     -11.220292      -305.3197 
   6   2.0000     -11.219600      -305.3008 
   7   2.0000     -11.211620      -305.0837 
   8   2.0000      -1.226193       -33.3664 
   9   2.0000      -1.077818       -29.3289 
  10   2.0000      -1.022736       -27.8301 
  11   2.0000      -0.932540       -25.3757 
  12   2.0000      -0.922025       -25.0896 
  13   2.0000      -0.835117       -22.7247 
  14   2.0000      -0.817332       -22.2407 
  15   2.0000      -0.725509       -19.7421 
  16   2.0000      -0.655694       -17.8423 
  17   2.0000      -0.627862       -17.0850 
  18   2.0000      -0.616128       -16.7657 
  19   2.0000      -0.605836       -16.4856 
  20   2.0000      -0.577366       -15.7109 
  21   2.0000      -0.561724       -15.2853 
  22   2.0000      -0.544215       -14.8088 
  23   2.0000      -0.536976       -14.6119 
  24   2.0000      -0.519364       -14.1326 
  25   2.0000      -0.500752       -13.6262 
  26   2.0000      -0.490096       -13.3362 
  27   2.0000      -0.474547       -12.9131 
  28   2.0000      -0.452286       -12.3073 
  29   2.0000      -0.433728       -11.8023 
  30   2.0000      -0.432054       -11.7568 
  31   2.0000      -0.346227        -9.4213 
  32   0.0000       0.176230         4.7955 
  33   0.0000       0.201953         5.4954 
  34   0.0000       0.207464         5.6454 
  35   0.0000       0.213721         5.8156 
  36   0.0000       0.238179         6.4812 
  37   0.0000       0.248800         6.7702 
  38   0.0000       0.251819         6.8524 
  39   0.0000       0.270526         7.3614 
  40   0.0000       0.272748         7.4218 
  41   0.0000       0.277085         7.5399 
  42   0.0000       0.280928         7.6444 
  43   0.0000       0.292263         7.9529 
  44   0.0000       0.308884         8.4052 
  45   0.0000       0.317010         8.6263 
  46   0.0000       0.332061         9.0358 
  47   0.0000       0.345955         9.4139 
  48   0.0000       0.374136        10.1807 
  49   0.0000       0.403671        10.9845 
  50   0.0000       0.413046        11.2396 
  51   0.0000       0.428592        11.6626 
  52   0.0000       0.443777        12.0758 
  53   0.0000       0.446120        12.1395 
  54   0.0000       0.461975        12.5710 
  55   0.0000       0.587843        15.9960 
  56   0.0000       0.603809        16.4305 
  57   0.0000       0.607202        16.5228 
  58   0.0000       0.625260        17.0142 
  59   0.0000       0.640596        17.4315 
  60   0.0000       0.663516        18.0552 
  61   0.0000       0.667928        18.1752 
  62   0.0000       0.708102        19.2684 
  63   0.0000       0.746398        20.3105 
  64   0.0000       0.771096        20.9826 
  65   0.0000       0.782689        21.2980 
  66   0.0000       0.809016        22.0144 
  67   0.0000       0.842067        22.9138 
  68   0.0000       0.843389        22.9498 
  69   0.0000       0.853445        23.2234 
  70   0.0000       0.864542        23.5254 
  71   0.0000       0.872374        23.7385 
  72   0.0000       0.877667        23.8825 
  73   0.0000       0.881134        23.9769 
  74   0.0000       0.890585        24.2341 
  75   0.0000       0.893234        24.3061 
  76   0.0000       0.899177        24.4679 
  77   0.0000       0.904554        24.6142 
  78   0.0000       0.911227        24.7957 
  79   0.0000       0.916578        24.9414 
  80   0.0000       0.929145        25.2833 
  81   0.0000       0.932436        25.3729 
  82   0.0000       0.937255        25.5040 
  83   0.0000       0.947401        25.7801 
  84   0.0000       0.953207        25.9381 
  85   0.0000       0.962224        26.1834 
  86   0.0000       0.982459        26.7341 
  87   0.0000       0.995362        27.0852 
  88   0.0000       1.017414        27.6852 
  89   0.0000       1.034422        28.1480 
  90   0.0000       1.073420        29.2092 
  91   0.0000       1.092457        29.7273 
  92   0.0000       1.111278        30.2394 
  93   0.0000       1.162184        31.6246 
  94   0.0000       1.184484        32.2315 
  95   0.0000       1.246761        33.9261 
  96   0.0000       1.298971        35.3468 
  97   0.0000       1.331381        36.2287 
  98   0.0000       1.367576        37.2136 
  99   0.0000       1.379791        37.5460 
 100   0.0000       1.408829        38.3362 
 101   0.0000       1.457774        39.6681 
 102   0.0000       1.483357        40.3642 
 103   0.0000       1.532125        41.6912 
 104   0.0000       1.552246        42.2388 
 105   0.0000       1.577674        42.9307 
 106   0.0000       1.583702        43.0947 
 107   0.0000       1.616212        43.9794 
 108   0.0000       1.661717        45.2176 
 109   0.0000       1.677444        45.6456 
 110   0.0000       1.683008        45.7970 
 111   0.0000       1.691748        46.0348 
 112   0.0000       1.699706        46.2514 
 113   0.0000       1.710790        46.5530 
 114   0.0000       1.772089        48.2210 
 115   0.0000       1.782999        48.5179 
 116   0.0000       1.803207        49.0678 
 117   0.0000       1.819609        49.5141 
 118   0.0000       1.832198        49.8566 
 119   0.0000       1.864969        50.7484 
 120   0.0000       1.884573        51.2818 
 121   0.0000       1.904568        51.8259 
 122   0.0000       1.914609        52.0992 
 123   0.0000       1.921775        52.2942 
 124   0.0000       1.932210        52.5781 
 125   0.0000       1.940402        52.8010 
 126   0.0000       1.948286        53.0156 
 127   0.0000       1.961231        53.3678 
 128   0.0000       1.965062        53.4721 
 129   0.0000       1.969915        53.6041 
 130   0.0000       1.988698        54.1152 
 131   0.0000       1.994361        54.2693 
 132   0.0000       2.010851        54.7180 
 133   0.0000       2.018231        54.9188 
 134   0.0000       2.025401        55.1140 
 135   0.0000       2.044511        55.6340 
 136   0.0000       2.054393        55.9029 
 137   0.0000       2.064049        56.1656 
 138   0.0000       2.085140        56.7395 
 139   0.0000       2.094547        56.9955 
 140   0.0000       2.111456        57.4557 
 141   0.0000       2.133876        58.0657 
 142   0.0000       2.138088        58.1803 
 143   0.0000       2.153209        58.5918 
 144   0.0000       2.188595        59.5547 
 145   0.0000       2.225014        60.5457 
 146   0.0000       2.240861        60.9769 
 147   0.0000       2.280383        62.0524 
 148   0.0000       2.297007        62.5047 
 149   0.0000       2.301327        62.6223 
 150   0.0000       2.321935        63.1831 
 151   0.0000       2.341477        63.7148 
 152   0.0000       2.367423        64.4208 
 153   0.0000       2.374275        64.6073 
 154   0.0000       2.401180        65.3394 
 155   0.0000       2.419641        65.8418 
 156   0.0000       2.423289        65.9410 
 157   0.0000       2.441328        66.4319 
 158   0.0000       2.478643        67.4473 
 159   0.0000       2.483336        67.5750 
 160   0.0000       2.534553        68.9687 
 161   0.0000       2.561975        69.7149 
 162   0.0000       2.578472        70.1638 
 163   0.0000       2.603710        70.8505 
 164   0.0000       2.617403        71.2232 
 165   0.0000       2.651933        72.1628 
 166   0.0000       2.698797        73.4380 
 167   0.0000       2.727633        74.2227 
 168   0.0000       2.730079        74.2892 
 169   0.0000       2.771378        75.4130 
 170   0.0000       2.784207        75.7621 
 171   0.0000       2.791875        75.9708 
 172   0.0000       2.808348        76.4190 
 173   0.0000       2.812951        76.5443 
 174   0.0000       2.827462        76.9392 
 175   0.0000       2.866979        78.0145 
 176   0.0000       2.883599        78.4667 
 177   0.0000       2.908347        79.1402 
 178   0.0000       2.929907        79.7268 
 179   0.0000       2.958902        80.5158 
 180   0.0000       2.982058        81.1459 
 181   0.0000       3.018920        82.1490 
 182   0.0000       3.090106        84.0861 
 183   0.0000       3.122682        84.9725 
 184   0.0000       3.141500        85.4846 
 185   0.0000       3.143536        85.5400 
 186   0.0000       3.217542        87.5538 

                    ********************************
                    * MULLIKEN POPULATION ANALYSIS *
                    ********************************

-----------------------
MULLIKEN ATOMIC CHARGES
-----------------------
   0 C :   -0.014094
   1 C :   -0.183886
   2 C :    0.166758
   3 N :   -0.510027
   4 C :    0.114742
   5 C :   -0.019066
   6 C :    0.115516
   7 C :    0.014728
   8 H :    0.022730
   9 H :   -0.000312
  10 H :    0.025796
  11 H :    0.011102
  12 H :    0.023270
  13 H :    0.033462
  14 H :    0.020476
  15 H :    0.023017
  16 H :    0.001299
  17 H :    0.031137
  18 H :    0.031651
  19 H :    0.003447
  20 H :    0.040333
  21 H :    0.023507
  22 H :    0.024415
Sum of atomic charges:   -0.0000000

--------------------------------
MULLIKEN REDUCED ORBITAL CHARGES
--------------------------------
  0 C s       :     3.056677  s :     3.056677
      pz      :     0.972245  p :     2.875894
      px      :     0.967010
      py      :     0.936639
      dz2     :     0.020511  d :     0.081523
      dxz     :     0.009998
      dyz     :     0.014584
      dx2y2   :     0.022720
      dxy     :     0.013710
  1 C s       :     3.153938  s :     3.153938
      pz      :     1.000388  p :     2.926794
      px      :     0.954237
      py      :     0.972169
      dz2     :     0.021513  d :     0.103154
      dxz     :     0.019103
      dyz     :     0.019386
      dx2y2   :     0.026903
      dxy     :     0.016249
  2 C s       :     3.001805  s :     3.001805
      pz      :     0.877833  p :     2.724934
      px      :     0.907250
      py      :     0.939851
      dz2     :     0.031704  d :     0.106503
      dxz     :     0.021354
      dyz     :     0.011616
      dx2y2   :     0.024932
      dxy     :     0.016898
  3 N s       :     3.556886  s :     3.556886
      pz      :     1.611838  p :     3.905322
      px      :     1.154065
      py      :     1.139418
      dz2     :     0.006941  d :     0.047819
      dxz     :     0.008570
      dyz     :     0.007766
      dx2y2   :     0.015838
      dxy     :     0.008704
  4 C s       :     3.022862  s :     3.022862
      pz      :     0.966267  p :     2.754014
      px      :     0.990499
      py      :     0.797249
      dz2     :     0.019273  d :     0.108381
      dxz     :     0.015687
      dyz     :     0.022862
      dx2y2   :     0.030296
      dxy     :     0.020264
  5 C s       :     3.049992  s :     3.049992
      pz      :     0.994875  p :     2.887550
      px      :     0.932640
      py      :     0.960036
      dz2     :     0.022139  d :     0.081523
      dxz     :     0.016808
      dyz     :     0.007413
      dx2y2   :     0.023465
      dxy     :     0.011698
  6 C s       :     3.008955  s :     3.008955
      pz      :     0.981371  p :     2.789065
      px      :     0.818780
      py      :     0.988915
      dz2     :     0.015478  d :     0.086464
      dxz     :     0.026088
      dyz     :     0.005747
      dx2y2   :     0.024900
      dxy     :     0.014251
  7 C s       :     3.016736  s :     3.016736
      pz      :     0.971014  p :     2.908282
      px      :     0.968230
      py      :     0.969038
      dz2     :     0.017499  d :     0.060255
      dxz     :     0.012212
      dyz     :     0.009545
      dx2y2   :     0.017127
      dxy     :     0.003871
  8 H s       :     0.949124  s :     0.949124
      pz      :     0.004344  p :     0.028146
      px      :     0.003735
      py      :     0.020067
  9 H s       :     0.973344  s :     0.973344
      pz      :     0.017962  p :     0.026968
      px      :     0.004959
      py      :     0.004047
 10 H s       :     0.945913  s :     0.945913
      pz      :     0.012077  p :     0.028290
      px      :     0.010174
      py      :     0.006040
 11 H s       :     0.961144  s :     0.961144
      pz      :     0.013332  p :     0.027754
      px      :     0.007952
      py      :     0.006470
 12 H s       :     0.947319  s :     0.947319
      pz      :     0.005030  p :     0.029411
      px      :     0.004203
      py      :     0.020177
 13 H s       :     0.937422  s :     0.937422
      pz      :     0.019336  p :     0.029116
      px      :     0.004528
      py      :     0.005252
 14 H s       :     0.950758  s :     0.950758
      pz      :     0.018572  p :     0.028766
      px      :     0.004845
      py      :     0.005349
 15 H s       :     0.947750  s :     0.947750
      pz      :     0.005527  p :     0.029233
      px      :     0.018968
      py      :     0.004738
 16 H s       :     0.969852  s :     0.969852
      pz      :     0.017810  p :     0.028849
      px      :     0.005530
      py      :     0.005509
 17 H s       :     0.939348  s :     0.939348
      pz      :     0.013150  p :     0.029515
      px      :     0.008070
      py      :     0.008295
 18 H s       :     0.938826  s :     0.938826
      pz      :     0.005871  p :     0.029523
      px      :     0.003072
      py      :     0.020580
 19 H s       :     0.969547  s :     0.969547
      pz      :     0.018197  p :     0.027006
      px      :     0.003995
      py      :     0.004813
 20 H s       :     0.928923  s :     0.928923
      pz      :     0.014465  p :     0.030745
      px      :     0.009453
      py      :     0.006826
 21 H s       :     0.946295  s :     0.946295
      pz      :     0.004826  p :     0.030198
      px      :     0.019677
      py      :     0.005695
 22 H s       :     0.945315  s :     0.945315
      pz      :     0.004486  p :     0.030269
      px      :     0.005369
      py      :     0.020414


                     *******************************
                     * LOEWDIN POPULATION ANALYSIS *
                     *******************************

----------------------
LOEWDIN ATOMIC CHARGES
----------------------
   0 C :   -0.027170
   1 C :   -0.042594
   2 C :   -0.001452
   3 N :   -0.038435
   4 C :   -0.007170
   5 C :   -0.032962
   6 C :   -0.019387
   7 C :   -0.044864
   8 H :    0.015422
   9 H :   -0.004214
  10 H :    0.016919
  11 H :    0.019515
  12 H :    0.020969
  13 H :    0.019531
  14 H :    0.016944
  15 H :    0.017713
  16 H :   -0.001109
  17 H :    0.018046
  18 H :    0.018220
  19 H :   -0.002584
  20 H :    0.020547
  21 H :    0.018425
  22 H :    0.019692

-------------------------------
LOEWDIN REDUCED ORBITAL CHARGES
-------------------------------
  0 C s       :     2.792949  s :     2.792949
      pz      :     1.020396  p :     3.029636
      px      :     1.014667
      py      :     0.994572
      dz2     :     0.052459  d :     0.204585
      dxz     :     0.023432
      dyz     :     0.036410
      dx2y2   :     0.058110
      dxy     :     0.034175
  1 C s       :     2.793106  s :     2.793106
      pz      :     1.012836  p :     3.008392
      px      :     0.997042
      py      :     0.998514
      dz2     :     0.048262  d :     0.241096
      dxz     :     0.046493
      dyz     :     0.045800
      dx2y2   :     0.062007
      dxy     :     0.038534
  2 C s       :     2.798664  s :     2.798664
      pz      :     0.968696  p :     2.938408
      px      :     0.970540
      py      :     0.999171
      dz2     :     0.084852  d :     0.264380
      dxz     :     0.049769
      dyz     :     0.026332
      dx2y2   :     0.063788
      dxy     :     0.039639
  3 N s       :     3.077780  s :     3.077780
      pz      :     1.558965  p :     3.860229
      px      :     1.154610
      py      :     1.146654
      dz2     :     0.013505  d :     0.100425
      dxz     :     0.016345
      dyz     :     0.014719
      dx2y2   :     0.034104
      dxy     :     0.021752
  4 C s       :     2.798309  s :     2.798309
      pz      :     1.033392  p :     2.943374
      px      :     1.017861
      py      :     0.892121
      dz2     :     0.045774  d :     0.265488
      dxz     :     0.039629
      dyz     :     0.061222
      dx2y2   :     0.069118
      dxy     :     0.049744
  5 C s       :     2.790682  s :     2.790682
      pz      :     1.027736  p :     3.039245
      px      :     0.995355
      py      :     1.016154
      dz2     :     0.056903  d :     0.203034
      dxz     :     0.039158
      dyz     :     0.017125
      dx2y2   :     0.060419
      dxy     :     0.029429
  6 C s       :     2.802770  s :     2.802770
      pz      :     1.046671  p :     2.992470
      px      :     0.904975
      py      :     1.040824
      dz2     :     0.039311  d :     0.224146
      dxz     :     0.072080
      dyz     :     0.015245
      dx2y2   :     0.062189
      dxy     :     0.035322
  7 C s       :     2.795993  s :     2.795993
      pz      :     1.022250  p :     3.087417
      px      :     1.033078
      py      :     1.032088
      dz2     :     0.044289  d :     0.161454
      dxz     :     0.033014
      dyz     :     0.024642
      dx2y2   :     0.048992
      dxy     :     0.010517
  8 H s       :     0.908063  s :     0.908063
      pz      :     0.013711  p :     0.076515
      px      :     0.016009
      py      :     0.046794
  9 H s       :     0.929042  s :     0.929042
      pz      :     0.041749  p :     0.075172
      px      :     0.017779
      py      :     0.015643
 10 H s       :     0.906727  s :     0.906727
      pz      :     0.029738  p :     0.076354
      px      :     0.028010
      py      :     0.018606
 11 H s       :     0.901927  s :     0.901927
      pz      :     0.033216  p :     0.078559
      px      :     0.023691
      py      :     0.021651
 12 H s       :     0.900639  s :     0.900639
      pz      :     0.016495  p :     0.078391
      px      :     0.016419
      py      :     0.045478
 13 H s       :     0.901111  s :     0.901111
      pz      :     0.044788  p :     0.079358
      px      :     0.017719
      py      :     0.016851
 14 H s       :     0.904861  s :     0.904861
      pz      :     0.042889  p :     0.078195
      px      :     0.016200
      py      :     0.019106
 15 H s       :     0.903660  s :     0.903660
      pz      :     0.017096  p :     0.078628
      px      :     0.043742
      py      :     0.017789
 16 H s       :     0.925976  s :     0.925976
      pz      :     0.041475  p :     0.075134
      px      :     0.017778
      py      :     0.015880
 17 H s       :     0.905908  s :     0.905908
      pz      :     0.031721  p :     0.076046
      px      :     0.022302
      py      :     0.022023
 18 H s       :     0.905697  s :     0.905697
      pz      :     0.016149  p :     0.076083
      px      :     0.012152
      py      :     0.047782
 19 H s       :     0.927104  s :     0.927104
      pz      :     0.044086  p :     0.075481
      px      :     0.016141
      py      :     0.015254
 20 H s       :     0.898835  s :     0.898835
      pz      :     0.036547  p :     0.080618
      px      :     0.024591
      py      :     0.019479
 21 H s       :     0.903557  s :     0.903557
      pz      :     0.016616  p :     0.078018
      px      :     0.044700
      py      :     0.016702
 22 H s       :     0.902384  s :     0.902384
      pz      :     0.015962  p :     0.077925
      px      :     0.015650
      py      :     0.046313


                      *****************************
                      * MAYER POPULATION ANALYSIS *
                      *****************************

  NA   - Mulliken gross atomic population
  ZA   - Total nuclear charge
  QA   - Mulliken gross atomic charge
  VA   - Mayer's total valence
  BVA  - Mayer's bonded valence
  FA   - Mayer's free valence

  ATOM       NA         ZA         QA         VA         BVA        FA
  0 C      6.0141     6.0000    -0.0141     3.9748     3.9748    -0.0000
  1 C      6.1839     6.0000    -0.1839     4.0695     4.0695    -0.0000
  2 C      5.8332     6.0000     0.1668     3.8964     3.8964     0.0000
  3 N      7.5100     7.0000    -0.5100     2.9970     2.9970    -0.0000
  4 C      5.8853     6.0000     0.1147     3.9535     3.9535    -0.0000
  5 C      6.0191     6.0000    -0.0191     4.0010     4.0010    -0.0000
  6 C      5.8845     6.0000     0.1155     3.9447     3.9447     0.0000
  7 C      5.9853     6.0000     0.0147     3.9236     3.9236    -0.0000
  8 H      0.9773     1.0000     0.0227     0.9763     0.9763    -0.0000
  9 H      1.0003     1.0000    -0.0003     0.9678     0.9678    -0.0000
 10 H      0.9742     1.0000     0.0258     0.9736     0.9736     0.0000
 11 H      0.9889     1.0000     0.0111     0.9668     0.9668     0.0000
 12 H      0.9767     1.0000     0.0233     0.9696     0.9696     0.0000
 13 H      0.9665     1.0000     0.0335     0.9696     0.9696     0.0000
 14 H      0.9795     1.0000     0.0205     0.9682     0.9682    -0.0000
 15 H      0.9770     1.0000     0.0230     0.9731     0.9731    -0.0000
 16 H      0.9987     1.0000     0.0013     0.9748     0.9748     0.0000
 17 H      0.9689     1.0000     0.0311     0.9810     0.9810     0.0000
 18 H      0.9683     1.0000     0.0317     0.9811     0.9811    -0.0000
 19 H      0.9966     1.0000     0.0034     0.9704     0.9704     0.0000
 20 H      0.9597     1.0000     0.0403     0.9920     0.9920    -0.0000
 21 H      0.9765     1.0000     0.0235     0.9759     0.9759    -0.0000
 22 H      0.9756     1.0000     0.0244     0.9772     0.9772    -0.0000

  Mayer bond orders larger than 0.1
B(  0-C ,  1-C ) :   1.0405 B(  0-C ,  5-C ) :   1.0413 B(  0-C , 14-H ) :   0.9647 
B(  0-C , 15-H ) :   0.9715 B(  1-C ,  2-C ) :   1.0382 B(  1-C ,  7-C ) :   1.0310 
B(  1-C , 11-H ) :   0.9612 B(  2-C ,  3-N ) :   0.9771 B(  2-C ,  8-H ) :   0.9708 
B(  2-C , 19-H ) :   0.9571 B(  3-N ,  4-C ) :   0.9845 B(  3-N ,  6-C ) :   1.0146 
B(  4-C ,  5-C ) :   1.0561 B(  4-C ,  9-H ) :   0.9538 B(  4-C , 10-H ) :   0.9737 
B(  5-C , 12-H ) :   0.9696 B(  5-C , 13-H ) :   0.9622 B(  6-C , 16-H ) :   0.9700 
B(  6-C , 17-H ) :   0.9876 B(  6-C , 18-H ) :   0.9874 B(  7-C , 20-H ) :   0.9764 
B(  7-C , 21-H ) :   0.9811 B(  7-C , 22-H ) :   0.9815 

-------
TIMINGS
-------

Total SCF time: 0 days 0 hours 0 min 10 sec 

Total time                  ....      10.140 sec
Sum of individual times     ....       9.943 sec  ( 98.1%)

Fock matrix formation       ....       9.829 sec  ( 96.9%)
Diagonalization             ....       0.012 sec  (  0.1%)
Density matrix formation    ....       0.003 sec  (  0.0%)
Population analysis         ....       0.009 sec  (  0.1%)
Initial guess               ....       0.069 sec  (  0.7%)
Orbital Transformation      ....       0.000 sec  (  0.0%)
Orbital Orthonormalization  ....       0.000 sec  (  0.0%)
DIIS solution               ....       0.000 sec  (  0.0%)
SOSCF solution              ....       0.021 sec  (  0.2%)


           ************************************************************
           *        Program running with 4 parallel MPI-processes     *
           *              working on a common directory               *
           ************************************************************


------------------------------------------------------------------------------- 
                              ORCA-MATRIX DRIVEN CI                            
------------------------------------------------------------------------------- 


Wavefunction type
-----------------
Correlation treatment                      ...      CCSD     
Single excitations                         ... ON
Orbital optimization                       ... OFF
Calculation of Z vector                    ... OFF
Calculation of Brueckner orbitals          ... OFF
Perturbative triple excitations            ... ON
Calculation of F12 correction              ... OFF
Frozen core treatment                      ... chemical core (16 el)
Reference Wavefunction                     ... RHF
  Internal Orbitals:     8 ...   31 ( 24 MO's/ 48 electrons)
  Virtual  Orbitals:    32 ...  186 (155 MO's              )
Number of AO's                             ...    187
Number of electrons                        ...     64
Number of correlated electrons             ...     48

Algorithmic settings
--------------------
Integral transformation                    ... All integrals via the RI transformation
K(C) Formation                             ... RI-DLPNO
   PNO-Integral Storage                    ... ON DISK
   PNO occupation number cut-off           ... 1.000e-07
   Singles PNO occupation number cut-off   ... 3.000e-09
   PNO Mulliken prescreening cut-off       ... 1.000e-03
   Domain cut-off (Mulliken population)    ... 1.000e-03
   PNO Normalization                       ...    1
Maximum number of iterations               ...        50
Convergence tolerance (max. residuum)      ... 1.000e-05
Level shift for amplitude update           ... 2.000e-01
Maximum number of DIIS vectors             ...         7
DIIS turned on at iteration                ...         0
Damping before turning on DIIS             ...     0.500
Damping after turning on DIIS              ...     0.000
Pair specific amplitude update             ... OFF
Natural orbital iterations                 ... OFF
Perturbative natural orbital generation    ... OFF
Printlevel                                 ... 2

Singles Fock matrix elements calculated using PNOs.

Memory handling:
----------------
Maximum memory for working arrays          ...   8000 MB
Data storage in matrix containers          ... UNCOMPRESSED
Data type for integral storage             ... DOUBLE
In-Core Storage of quantities:
   Amplitudes+Sigma Vector      ... NO
   J+K operators                ... NO
   DIIS vectors                 ... NO
   3-external integrals         ... NO
   4-external integrals         ... NO

Localization treatment:
-----------------------
Localization option                        ...    6
Localization threshhold                    ... -1.0e+00
Using relative localization threshhold     ... 1.0e-08
Neglect threshold for strong pairs         ... 1.000e-05 Eh
Prescreening threshold for very weak pairs ... 1.000e-07 Eh

Initializing the integral package          ... done
Localizing the valence orbitals
------------------------------------------------------------------------------
                           ORCA ORBITAL LOCALIZATION
------------------------------------------------------------------------------

Input orbitals are from                  ... N_3_dimethylpiperidine_eq_ax.proc0.gbw
Output orbitals are to                   ... N_3_dimethylpiperidine_eq_ax.proc0.loc
Max. number of iterations                ... 128
Localizations seeded randomly            ... off
Convergence tolerance                    ... 1.000e-06
Using relative localization threshhold   ... 1.000e-08
Treshold for strong local MOs            ... 9.500e-01
Treshold for bond MOs                    ... 8.500e-01
Operator                                 ... 0
Orbital range for localization           ... 8 to 31
Localization criterion                   ... FOSTER-BOYS (AUGMENTED HESSIAN)
Doing the dipole integrals     ... o.k.
Initial value of the localization sum :   357.185056
ITERATION   0 : L=  372.2339417430 DL=  1.50e+01 (AVERGE_DL)=    0.2335057801 
ITERATION   1 : L=  373.1066970243 DL=  8.73e-01 (AVERGE_DL)=    0.0562330580 
ITERATION   2 : L=  373.1126342565 DL=  5.94e-03 (AVERGE_DL)=    0.0046380719 
ITERATION   3 : L=  373.1126779952 DL=  4.37e-05 (AVERGE_DL)=    0.0003980873 
ITERATION   4 : L=  373.1126782011 DL=  2.06e-07 (AVERGE_DL)=    0.0000273187 
LOCALIZATION SUM CONVERGED

------------------------------------------------------
AUGMENTED HESSIAN OPTIMIZATION OF FOSTER-BOYS ORBITALS
------------------------------------------------------

Spin operator:           0
Orbital window:          8 to 31
Number of iterations:    128
Gradient tolerance:      1.000e-06
Number of pairs:         276
Davidson threshold:      2000
Diagonalization method:  LAPACK
Iter:    0   L: 373.1126782011   Grad. norm: 1.458020e-03
   *** Likely close to a maximum now. ***
       Augmented Hessian eigenvalues:  1.39e-08 -6.27e+00 -6.40e+00 -9.12e+00 ... 
Iter:    1   L: 373.1126782081   Grad. norm: 1.107997e-09
LOCALIZATION HAS CONVERGED.

Eigenvalues of the Hessian:
  0 -6.270e+00
  1 -6.403e+00
  2 -9.122e+00
  3 -1.263e+01
  4 -1.632e+01
  5 -1.648e+01
  6 -1.733e+01
  7 -1.780e+01
  8 -1.789e+01
  9 -1.805e+01
    ...


------------------------------------------------------------------------------- 
                    LOCALIZED MOLECULAR ORBITAL COMPOSITIONS                   
------------------------------------------------------------------------------- 

The Mulliken populations for each LMO on each atom are computed
The LMO`s will be ordered according to atom index and type
  (A) Strongly localized MO`s have populations of >=0.950 on one atom
  (B) Two center bond orbitals have populations of >=0.850 on two atoms
  (C) Other MO`s are considered to be `delocalized`

FOUND  -   1 strongly local MO`s
       -  23 two center bond MO`s
       -   0 significantly delocalized MO`s

Rather strongly localized orbitals:
MO   8:   3N  -   0.970388
Bond-like localized orbitals:
MO  31:  22H  -   0.504950  and   7C  -   0.506191
MO  30:  21H  -   0.506069  and   7C  -   0.505630
MO  29:  20H  -   0.491135  and   7C  -   0.520181
MO  28:  19H  -   0.518023  and   2C  -   0.499364
MO  27:  18H  -   0.499043  and   6C  -   0.516264
MO  26:  17H  -   0.499343  and   6C  -   0.516121
MO  25:  16H  -   0.517332  and   6C  -   0.502975
MO  24:  15H  -   0.506537  and   0C  -   0.504950
MO  23:  14H  -   0.510199  and   0C  -   0.501242
MO  22:  13H  -   0.502485  and   5C  -   0.507655
MO  21:  12H  -   0.507729  and   5C  -   0.501167
MO  20:  11H  -   0.514293  and   1C  -   0.495722
MO  19:  10H  -   0.504174  and   4C  -   0.507958
MO  18:   9H  -   0.521069  and   4C  -   0.497188
MO  17:   8H  -   0.505012  and   2C  -   0.506189
MO  16:   7C  -   0.497790  and   1C  -   0.548484
MO  15:   6C  -   0.420965  and   3N  -   0.615018
MO  14:   5C  -   0.504084  and   4C  -   0.541536
MO  13:   5C  -   0.523332  and   0C  -   0.521211
MO  12:   4C  -   0.422824  and   3N  -   0.613674
MO  11:   3N  -   0.612391  and   2C  -   0.423629
MO  10:   2C  -   0.533886  and   1C  -   0.520066
MO   9:   1C  -   0.538338  and   0C  -   0.516206
Localized MO's were stored in: N_3_dimethylpiperidine_eq_ax.proc0.loc

Localizing the core orbitals
------------------------------------------------------------------------------
                           ORCA ORBITAL LOCALIZATION
------------------------------------------------------------------------------

Input orbitals are from                  ... N_3_dimethylpiperidine_eq_ax.proc0.loc
Output orbitals are to                   ... N_3_dimethylpiperidine_eq_ax.proc0.loc
Max. number of iterations                ... 128
Localizations seeded randomly            ... off
Convergence tolerance                    ... 1.000e-06
Using relative localization threshhold   ... 1.000e-08
Treshold for strong local MOs            ... 9.500e-01
Treshold for bond MOs                    ... 8.500e-01
Operator                                 ... 0
Orbital range for localization           ... 0 to 7
Localization criterion                   ... FOSTER-BOYS (AUGMENTED HESSIAN)
Doing the dipole integrals     ... o.k.
Initial value of the localization sum :    91.989921
ITERATION   0 : L=   91.9899369627 DL=  1.62e-05 (AVERGE_DL)=    0.0007607291 
ITERATION   1 : L=   91.9899369627 DL=  0.00e+00 (AVERGE_DL)=    0.0000000000 
LOCALIZATION SUM CONVERGED

------------------------------------------------------
AUGMENTED HESSIAN OPTIMIZATION OF FOSTER-BOYS ORBITALS
------------------------------------------------------

Spin operator:           0
Orbital window:          0 to 7
Number of iterations:    128
Gradient tolerance:      1.000e-06
Number of pairs:         28
Davidson threshold:      2000
Diagonalization method:  LAPACK
Iter:    0   L: 91.9899369627   Grad. norm: 5.869645e-06
   *** Likely close to a maximum now. ***
       Augmented Hessian eigenvalues:  3.91e-13 -3.03e+01 -3.06e+01 -3.06e+01 ... 
Iter:    1   L: 91.9899369627   Grad. norm: 8.423640e-19
LOCALIZATION HAS CONVERGED.

Eigenvalues of the Hessian:
  0 -3.026e+01
  1 -3.061e+01
  2 -3.064e+01
  3 -3.351e+01
  4 -3.371e+01
  5 -3.375e+01
  6 -3.386e+01
  7 -3.403e+01
  8 -8.339e+01
  9 -8.340e+01
    ...


------------------------------------------------------------------------------- 
                    LOCALIZED MOLECULAR ORBITAL COMPOSITIONS                   
------------------------------------------------------------------------------- 

The Mulliken populations for each LMO on each atom are computed
The LMO`s will be ordered according to atom index and type
  (A) Strongly localized MO`s have populations of >=0.950 on one atom
  (B) Two center bond orbitals have populations of >=0.850 on two atoms
  (C) Other MO`s are considered to be `delocalized`

FOUND  -   8 strongly local MO`s
       -   0 two center bond MO`s
       -   0 significantly delocalized MO`s

Rather strongly localized orbitals:
MO   7:   7C  -   0.999605
MO   6:   6C  -   0.999774
MO   5:   5C  -   0.999137
MO   4:   4C  -   0.999442
MO   3:   3N  -   0.999435
MO   2:   2C  -   0.999447
MO   1:   1C  -   0.998856
MO   0:   0C  -   0.999261
Localized MO's were stored in: N_3_dimethylpiperidine_eq_ax.proc0.loc

Warning: internal orbitals are localized - no re-canonicalization of internal orbitals

--------------------------
CLOSED-SHELL FOCK OPERATOR
--------------------------

RI-JK section for the Fock operator:
  RHF full Fock operator         ... done
  RHF frozen core Fock operator  ... done
Time needed for Fock operator              ...            2.222 sec
Reference energy                           ...   -328.275178726

--------------
DLPNO SETTINGS (2015 fully linear scaling implementation)
--------------

TCutMKN:           1.000e-03
TCutPAO:           1.000e-03
TCutPNO:           1.000e-07
TCutPNOSingles:    3.000e-09
TCutEN:            9.700e-01
TCutPAOExt:        1.000e-01
TCutPairs:         1.000e-05
TCutPre:           1.000e-07
TCutOSV:           1.000e-06
TCutDOij:          1.000e-05
TCutDO:            5.000e-03
TCutC:             1.000e-04
TCutCPAO:          1.000e-03
TCutCMO:           1.000e-03
TScaleDOMP2PreScr: 2.000e+00
TScaleMKNMP2PreScr:1.000e+01
TScalePNOMP2PreScr:1.000e+00
PAO overlap thresh 1.000e-08
Using PNOs for Singles Fock computation
Use new domains
Use fully linear algorithm
TCutTNO:           1.000e-09
TCutMP2Pairs:      1.000e-06
TCutDOStrong:      2.000e-03
TCutMKNStrong:     1.000e-02
TCutMKNWeak:       1.000e-01
TCutDOWeak:        4.000e-03
NTCutTNO:          1

--------------------------
Calculating differential overlap integrals ... ok
--------------------------
ELECTRON PAIR PRESCREENING
--------------------------

Dipole-based pair screening          .... used

   TCutDOij = 1.000000e-05
   TCutPre  = 1.000000e-07
   .... Finished loop over pairs
Total time spent in the prescreening                  ...     0.000 sec
sum of pair energies estimated for screened out pairs ...       0.000000000000 Eh
Thresholds for map construction and integral transformation for crude MP2:
   TCutMKN                    ...     1.0e-02
   TCutDO                     ...     1.0e-02
   TCutPairs                  ...     1.0e-05
   TCutPNO_CrudeMP2           ...     1.0e-07
   TCutPNOSingles_CrudeMP2    ...     3.0e-09
--------------------------------
LOCAL RI TRANSFORMATION (IAVPAO)
--------------------------------

Orbital window:       8 to 31
Number of PAOs:     187
Basis functions:    187 (93 shells)
Aux. functions:     658 (234 shells)

Processing maps (0.0 sec)
Average map sizes:
   Aux shells -> MOs              24.0
   Aux shells -> PAOs            187.0
   MOs        -> AO shells        88.9
   PAOs       -> AO shells        92.8

Calculating integrals (0.5 sec, 22.538 MB)
Sorting integrals (0.0 sec, 22.531 MB)
Total time for the integral transformation: 0.6 sec
--------------------------------
INITIAL GUESS AND PNO GENERATION
--------------------------------

PNO truncation parameters                   .... 
    PAOOverlapThresh   =        1.000e-08

    TCutPairs          =        1.000e-05
    TCutPNO            =        1.000e-07
    TCutPNOSingles     =        3.000e-09
    TCutMP2Pairs       =        1.000e-06
    TCutMKN            =        1.000e-02
    TCutDO             =        1.000e-02

Pair selection                          .... not used
Type of local MP2 treatment                 .... semi-local MP2
Strategy for PNO selection                  .... occupation number selection
Pair density normalization                  .... MP2 norm
Spin component scaling                      .... not used

   .... Finished loop over pairs
Making pair pair interaction lists          ... done

                       ===========================
                        300 OF  300 PAIRS ARE KEPT CCSD PAIRS
                          0 OF  300 PAIRS ARE KEPT MP2 PAIRS FOR (T)
                          0 OF  300 PAIRS ARE SKIPPED
                       ===========================

Total time spent in the initial guess                 ...     1.273 sec
SL-MP2 correlation energy (all non-screened pairs)    ...      -1.133702410338 Eh

Initial PNO correlation energy                        ...      -1.133044806146 Eh
sum of pair energies prescreened and skipped MP2 pairs...       0.000000000000 Eh
sum of pair energies of crude MP2 skipped pairs only  ...       0.000000000000 Eh
sum of MP2 pair energies for pairs that were not kept ...       0.000000000000 Eh
sum of PNO error estimates for the kept pairs         ...      -0.000657604191 Eh
                                                          --------------------
sum of all corrections                                         -0.000657604191
Initial total correlation energy                               -1.133702410338
Thresholds for map construction and integral transformation for fine MP2 and CCSD(T) calculation:
   TCutMKN   ...     1.0e-03
   TCutDO    ...     5.0e-03
   TCutPairs ...     1.0e-05
   TCutCMO   ...     1.0e-03
   TCutCPAO  ...     1.0e-03

Thresholds for map construction and integral transformation for strong Triples:
   TCutMKN   ...     1.0e-02
   TCutDO    ...     1.0e-02
   TCutCMO   ...     1.0e-03
   TCutCPAO  ...     1.0e-03

Thresholds for map construction and integral transformation for weak Triples:
   TCutMKN   ...     1.0e-01
   TCutDO    ...     2.0e-02
   TCutCMO   ...     1.0e-03
   TCutCPAO  ...     1.0e-03

--------------------------------
LOCAL RI TRANSFORMATION (IAVPAO)
--------------------------------

Orbital window:       8 to 31
Number of PAOs:     187
Basis functions:    187 (93 shells)
Aux. functions:     658 (234 shells)

Processing maps (0.0 sec)
Average map sizes:
   Aux shells -> MOs              24.0
   Aux shells -> PAOs            187.0
   MOs        -> AO shells        88.9
   PAOs       -> AO shells        92.8

Calculating integrals (0.5 sec, 22.538 MB)
Sorting integrals (0.0 sec, 22.531 MB)
Total time for the integral transformation: 0.6 sec
--------------------------------
INITIAL GUESS AND PNO GENERATION
--------------------------------

PNO truncation parameters                   .... 
    ScaleTCutPNO       =        1.000e-02
    PAOOverlapThresh   =        1.000e-08

    TCutPairs          =        1.000e-05
    TCutPNO            =        1.000e-07
    TCutPNOSingles     =        3.000e-09
    TCutMP2Pairs       =        1.000e-06
    TCutMKN            =        1.000e-03
    TCutDO             =        5.000e-03

Pair selection                          .... not used
Type of local MP2 treatment                 .... full local PMP2
Strategy for PNO selection                  .... occupation number selection
Pair density normalization                  .... MP2 norm
Spin component scaling                      .... not used

PASS-1: Formation of initial guess LMP2 amplitudes
Initial amplitudes guess done. Entering LMP2 iteration loop:
   Max. no of iterations          ...  50
   Energy convergence tolerance   ...    1.0e-07
   Residual convergence tolerance ...    5.0e-07
   Fock matrix cutoff             ...    1.0e-05 Eh
   DIIS convergence acceleration parameters:
        Max # vectors in DIIS     ... 7
        Start iteration of DIIS   ... 0
        Levelshift                ... 2.000e-01
        Damping factor 1          ... 5.000e-01
        Damping factor 2          ... 1.000e+00
   L-MP2 PNO cut-off              ...   1.0e-09
   L-MP2 PNO cut-off (core)       ...   1.0e-11
                           *** Turning on DIIS ***
LMP2-Iter=   0:  ELMP2= -1.158217947074  DE=   2.4e-02 RMAX=   4.2e-03
LMP2-Iter=   1:  ELMP2= -1.170109563499  DE=   1.2e-02 RMAX=   1.9e-03
LMP2-Iter=   2:  ELMP2= -1.171886025881  DE=   1.8e-03 RMAX=   3.2e-04
LMP2-Iter=   3:  ELMP2= -1.172021207660  DE=   1.4e-04 RMAX=   1.1e-04
LMP2-Iter=   4:  ELMP2= -1.172024453699  DE=   3.2e-06 RMAX=   2.8e-05
LMP2-Iter=   5:  ELMP2= -1.172022988896  DE=   1.5e-06 RMAX=   9.7e-06
LMP2-Iter=   6:  ELMP2= -1.172022893748  DE=   9.5e-08 RMAX=   1.9e-06
LMP2-Iter=   7:  ELMP2= -1.172022902926  DE=   9.2e-09 RMAX=   5.3e-07
LMP2-Iter=   8:  ELMP2= -1.172022908323  DE=   5.4e-09 RMAX=   6.2e-08 => CONVERGED
PASS-2: Formation of Pair natural orbitals
   .... Finished loop over pairs

 PNO Occupation Number Statistics: 
  | Av. % of trace(Dij) retained        ...  99.484654857773
  | sigma^2 in % of trace(Dij) retained ...   4.58e-01
  | Av. % of trace(Di) retained         ...  99.999847515555
  | sigma^2 in % of trace(Di) retained  ...   2.74e-09
 Distributions of % trace(Dij) recovered:
  |       >= 99.9  ...   123 ( 41.0 % of all pairs)
  |   [90.0, 99.0) ...    60 ( 20.0 % of all pairs)
  |   [99.0, 99.9) ...   117 ( 39.0 % of all pairs)
 Distributions of % trace(Di) recovered :
  |       >= 99.9  ...    24 (100.0 % of all I-pairs )

Making pair pair interaction lists          ... done

                       ===========================
                        300 OF  300 PAIRS ARE KEPT
                       ===========================

Total time spent in the initial guess                 ...    10.650 sec
L-MP2 correlation energy (all non-screened pairs)     ...      -1.172022908323 Eh
L-MP2 PNO error correction                            ...      -0.000011913249 Eh
                                                          --------------------
Initial total L-MP2 energy (non-screened pairs)       ...      -1.172034821572 Eh

Initial PNO correlation energy                        ...      -1.171442954264 Eh
sum of pair energies estimated for screened out pairs ...       0.000000000000 Eh
sum of MP2 pair energies for pairs that were not kept ...       0.000000000000 Eh
sum of PNO error estimates for the kept pairs         ...      -0.000591867308 Eh
                                                          --------------------
sum of all corrections                                         -0.000591867308
Initial total correlation energy                               -1.172034821572
Thresholds for map construction and integral transformation for fine MP2 and CCSD(T) calculation:
   TCutMKN   ...     1.0e-03
   TCutDO    ...     5.0e-03
   TCutPairs ...     1.0e-05
   TCutCMO   ...     1.0e-03
   TCutCPAO  ...     1.0e-03

Time for aux screen maps:            0.005
Time for maps after fine MP2:            0.016
-----------------------------
LOCAL RI TRANSFORMATION (IJV)
-----------------------------

Orbital window:       8 to 31
Basis functions:    187 (93 shells)
Aux. functions:     658 (234 shells)

Processing maps (0.0 sec)
Average map sizes:
   Aux shells -> MOs(i)           24.0
   Aux shells -> MOs(j)           24.0
   MOs        -> AO shells        88.9

Calculating integrals (0.5 sec, 2.899 MB)
Sorting integrals (0.0 sec, 2.892 MB)
Total time for the integral transformation: 0.5 sec
--------------------------------
LOCAL RI TRANSFORMATION (VABPAO)
--------------------------------

Number of PAOs:     187
Basis functions:    187 (93 shells)
Aux. functions:     658 (234 shells)

Processing maps (0.0 sec)
Average map sizes:
   Aux shells -> PAOs            187.0
   PAOs       -> AO shells        92.8

Calculating integrals (0.9 sec, 311.894 MB)
Finished


-------------------------------------
Pair Pair Term precalculation with     
RI-(ij|mn) and (im|jn) transformation  
ON THE FLY                             
-------------------------------------

   IBatch   1 (of   2)              ... done (   34.742 sec)
   IBatch   2 (of   2)              ... done (    6.180 sec)
Total EXT                           ...          40.923 sec

---------------------
RI-PNO TRANSFORMATION
---------------------

Total Number of PNOs                   ...  8105
Average number of PNOs per pair        ...    27
Maximal number of PNOs per pair        ...    44
   #pairs with  1 -  5 PNOs   :    0
   #pairs with  6 - 10 PNOs   :   28
   #pairs with 11 - 15 PNOs   :   28
   #pairs with 16 - 20 PNOs   :   22
   #pairs with 21 - 25 PNOs   :   50
   #pairs with 26 - 30 PNOs   :   43
   #pairs with 31 - 35 PNOs   :   48
   #pairs with 36 - 40 PNOs   :   68
   #pairs with 41 - 45 PNOs   :   13
   #pairs with 46 - 50 PNOs   :    0

Generation of (ij|ab)[P] integrals            ... on
Generation of (ia|bc)[P],(ja|bc)[P] integrals ... on
Storage of 3 and 4 external integrals         ... on
Generation of ALL (ka|bc)[P] integrals        ... on
Keep RI integrals in memory                   ... off

Ibatch:  1 (of  1)
Starting 2-4 index PNO integral generation ... done

Timings:
Total PNO integral transformation time     ...         11.287 sec
Size of the 3-external file                ...        66 MB
Size of the 4-external file                ...       297 MB
Size of the IKJL file                      ...         0 MB
Size of the all 3-external file            ...       792 MB
Size of the 1-external file                ...         4 MB

Making pair/pair overlap matrices          ... done (    2.541 sec)
Size of the pair overlap file              ... 328 MB
Redoing the guess amplitudes               ... done (    0.002 sec)

-------------------------
FINAL STARTUP INFORMATION
-------------------------

E(0)                                       ...   -328.275178726
E(L-MP2)                                   ...     -1.172034822
E(L-MP2) including corrections             ...     -1.172034822
Initial E(tot)                             ...   -329.447213548
<T|T>                                      ...      0.363558967
Number of pairs included                   ... 300
Total number of pairs                      ... 300

------------------------------------------------
                  RHF COUPLED CLUSTER ITERATIONS
------------------------------------------------

Number of PNO amplitudes to be optimized   ...       251189
Number of non-PNO amplitudes               ...      7207500
Untruncated number of regular amplitudes   ...      7207500

Iter       E(tot)           E(Corr)          Delta-E          Residual     Time
  0   -329.409163161     -1.133392567      0.038642255      0.020123029    5.88
                           *** Turning on DIIS ***
  1   -329.495727657     -1.219957064     -0.086564497      0.007527834    5.88
  2   -329.535976365     -1.260205771     -0.040248708      0.002389609    5.88
  3   -329.541202456     -1.265431862     -0.005226091      0.000835105    7.80
  4   -329.542305108     -1.266534514     -0.001102652      0.000616450    5.91
  5   -329.542490962     -1.266720369     -0.000185855      0.000250060    5.91
  6   -329.542536055     -1.266765461     -0.000045092      0.000153581   17.53
  7   -329.542544239     -1.266773646     -0.000008184      0.000064289    5.98
  8   -329.542546748     -1.266776155     -0.000002509      0.000023087    5.98
  9   -329.542547085     -1.266776491     -0.000000337      0.000005499    5.98
               --- The Coupled-Cluster iterations have converged ---

----------------------
COUPLED CLUSTER ENERGY
----------------------

E(0)                                       ...   -328.275178726
E(CORR)(strong-pairs)                      ...     -1.266776491
E(CORR)(weak-pairs)                        ...     -0.000591867
E(CORR)(corrected)                         ...     -1.267368359
E(TOT)                                     ...   -329.542547085
Singles Norm <S|S>**1/2                    ...      0.055480485  
T1 diagnostic                              ...      0.008007918  

------------------
LARGEST AMPLITUDES
------------------
  31-> 41  31-> 41       0.042857
  30-> 41  30-> 41       0.041940
  29-> 41  29-> 41       0.041543
  27-> 40  27-> 40       0.041233
  23-> 41  23-> 41       0.041042
  26-> 40  26-> 40       0.040947
  20-> 40  20-> 40       0.040870
  18-> 40  18-> 40       0.040436
  19-> 41  19-> 41       0.039859
  22-> 41  22-> 41       0.039470
  28-> 32  28-> 32       0.039133
  24-> 41  24-> 41       0.039085
  18-> 32  18-> 32       0.038931
  21-> 41  21-> 41       0.038577
  28-> 40  28-> 40       0.038100
  23-> 32  23-> 32       0.037893


-------------------------------------------
DLPNO BASED TRIPLES CORRECTION
-------------------------------------------

Singles multiplier          ...  1.000000
TCutTNO                     ... 1.000e-09
TCutMP2Pairs                ... 1.000e-06
TCutDOStrong                ... 1.000e-02
TCutMKNStrong               ... 1.000e-02
TCutDOWeak                  ... 2.000e-02
TCutMKNWeak                 ... 1.000e-01

Fragment selection                          .... not used
Number of Triples that are to be computed   ...      2576

 . . . . . . . . .
10% done  
20% done  
30% done  
40% done  
50% done  
60% done  
70% done  
80% done  
90% done               (    100.433 sec)
Triples timings:
Total time for T0               ...   108.928 sec
Total time for Iterative (T)    ...     0.000 sec
Total time of overall (T)       ...   108.929 sec

Triples List generation         ...     0.000 sec
TNO generation                  ...     8.489 sec
Pair density generation         ...     0.003 sec
Look up tables                  ...     0.000 sec
Generating 3-index integrals    ...    56.394 sec
  Make 4-ind.int. from 3-ind.int...    14.336 sec
  Projecting amplitudes (D + S) ...    12.801 sec
  Downprojecting integrals      ...     0.004 sec
  Energy contr. (sum over a,b,c)...     4.865 sec
Fitting ET(->0)                 ...     0.000 sec

Everything after 3-index        ...    44.039 sec

Timing details:
 TNO integrals                  ...    68.812 sec
   Reading 3-index integrals    ...     0.061 sec
   Sorting integrals            ...    10.627 sec
       Sorting integrals 1      ...     0.003 sec
       Sorting integrals 2      ...     4.897 sec
       Sorting integrals 3      ...     0.519 sec
       Sorting integrals 4      ...     0.066 sec
       Sorting integrals 5      ...     0.174 sec
       Sorting integrals 6      ...     4.968 sec
   Calculating local VM**-1/2   ...     0.576 sec
   Orthogonal. integrals        ...     0.968 sec
   Multipl. 3-index integrals   ...    56.580 sec
   All concerning IRIab (w/TNO) ...     7.197 sec

 Calculate W0/W1                ...    12.014 sec
 W 3-ext contribution           ...     6.463 sec
 W 3-int contribution           ...     2.427 sec
 Sorting W                      ...     2.878 sec

 V exchange contribution        ...     1.929 sec

 Timings for Triples without generation
     of 3-index integrals       ...    44.031 sec
       0 weak pairs             ...    44.031 sec
       1 weak pair              ...     0.000 sec
       2 weak pairs             ...     0.000 sec
       3 weak pairs             ...     0.000 sec
  Extra time for extrapolation  ...     0.000 sec

Number of Triples   (0, 1, 2, 3 weak pairs; overall):   2576       0       0       0  (  2576)
Number of Atoms     (0, 1, 2, 3 weak pairs; overall):   21.4     0.0     0.0     0.0  (    23)
Number of PAOs      (0, 1, 2, 3 weak pairs; overall):  177.5     0.0     0.0     0.0  (   187)
Number of AuxFcns   (0, 1, 2, 3 weak pairs; overall):  266.1     0.0     0.0     0.0  (   658)
Number of TNOs      (0, 1, 2, 3 weak pairs         ):   65.2     0.0     0.0     0.0
Aver. Number of NTNO, Atoms, PAOs, AuxFcns / Triples:   2576    65.2    21.4   177.5   266.1

Triples Correction (T)                     ...     -0.039054893
Final correlation energy                   ...     -1.306423251
E(CCSD)                                    ...   -329.542547085
E(CCSD(T))                                 ...   -329.581601977


Maximum memory used throughout the entire calculation: 7980.7 MB


------------------------------------------------------------------------------- 
                                     TIMINGS                                   
------------------------------------------------------------------------------- 


Total execution time                   ...      278.672 sec

Localization of occupied MO's          ...        0.463 sec (  0.2%)
Fock Matrix Formation                  ...        2.222 sec (  0.8%)
Global overlap, Fock, MKN matrices     ...        0.139 sec (  0.0%)
Differential overlap integrals         ...        0.185 sec (  0.1%)
Organizing maps                        ...        0.049 sec (  0.0%)
RI 3-index integral generations        ...        2.567 sec (  0.9%)
RI-PNO integral transformation         ...       58.171 sec ( 20.9%)
Initial Guess                          ...       11.946 sec (  4.3%)
DIIS Solver                            ...       12.504 sec (  4.5%)
State Vector Update                    ...        0.020 sec (  0.0%)
Sigma-vector construction              ...       60.910 sec ( 21.9%)
  <D|H|D>(0-ext)                       ...        4.926 sec (  8.1% of sigma)
  <D|H|D>(2-ext Fock)                  ...        0.018 sec (  0.0% of sigma)
  <D|H|D>(2-ext)                       ...       11.399 sec ( 18.7% of sigma)
  <D|H|D>(4-ext)                       ...        3.468 sec (  5.7% of sigma)
  <D|H|D>(4-ext-corr)                  ...       19.475 sec ( 32.0% of sigma)
  CCSD doubles correction              ...        0.345 sec (  0.6% of sigma)
  <S|H|S>                              ...        0.537 sec (  0.9% of sigma)
  <S|H|D>(1-ext)                       ...        0.582 sec (  1.0% of sigma)
  <D|H|S>(1-ext)                       ...        0.019 sec (  0.0% of sigma)
  <S|H|D>(3-ext)                       ...        0.260 sec (  0.4% of sigma)
  Fock-dressing                        ...       12.941 sec ( 21.2% of sigma)
  Singles amplitudes                   ...        0.397 sec (  0.7% of sigma)
  (ik|jl)-dressing                     ...        3.613 sec (  5.9% of sigma)
  (ij|ab),(ia|jb)-dressing             ...        2.809 sec (  4.6% of sigma)
  Pair energies                        ...        0.007 sec (  0.0% of sigma)
Total Time for computing (T)           ...      109.039 sec ( 39.1% of ALL)


-------------------------   --------------------
FINAL SINGLE POINT ENERGY      -329.581601977462
-------------------------   --------------------


                            ***************************************
                            *     ORCA property calculations      *
                            ***************************************

                                    ---------------------
                                    Active property flags
                                    ---------------------
   (+) Dipole Moment


------------------------------------------------------------------------------
                       ORCA ELECTRIC PROPERTIES CALCULATION
------------------------------------------------------------------------------

Dipole Moment Calculation                       ... on
Quadrupole Moment Calculation                   ... off
Polarizability Calculation                      ... off
GBWName                                         ... N_3_dimethylpiperidine_eq_ax.gbw
Electron density file                           ... N_3_dimethylpiperidine_eq_ax.scfp.tmp
The origin for moment calculation is the CENTER OF MASS  = (-0.002663,  0.006786 -0.002262)

-------------
DIPOLE MOMENT
-------------
                                X             Y             Z
Electronic contribution:     -0.23494       0.50472       0.04996
Nuclear contribution   :      0.17032      -0.43418       0.14476
                        -----------------------------------------
Total Dipole Moment    :     -0.06462       0.07054       0.19472
                        -----------------------------------------
Magnitude (a.u.)       :      0.21695
Magnitude (Debye)      :      0.55143



--------------------
Rotational spectrum 
--------------------
 
Rotational constants in cm-1:     0.096261     0.059389     0.044687 
Rotational constants in MHz :  2885.841657  1780.433624  1339.669292 

 Dipole components along the rotational axes: 
x,y,z [a.u.] :     0.062429     0.069859     0.195673 
x,y,z [Debye]:     0.158682     0.177567     0.497361 

 

Timings for individual modules:

Sum of individual times         ...      289.702 sec (=   4.828 min)
GTO integral calculation        ...        0.583 sec (=   0.010 min)   0.2 %
SCF iterations                  ...       10.238 sec (=   0.171 min)   3.5 %
MDCI module                     ...      278.881 sec (=   4.648 min)  96.3 %
                             ****ORCA TERMINATED NORMALLY****
TOTAL RUN TIME: 0 days 0 hours 4 minutes 49 seconds 956 msec
N_3_dimethylpiperidine_eq_ax.gbw -> /home1/pantazis/klk/VDZ/Nitrogen_compounds/N_3_dimethylpiperidine_eq_ax.gbw
N_3_dimethylpiperidine_eq_ax.ges -> /home1/pantazis/klk/VDZ/Nitrogen_compounds/N_3_dimethylpiperidine_eq_ax.ges
N_3_dimethylpiperidine_eq_ax.job -> /home1/pantazis/klk/VDZ/Nitrogen_compounds/N_3_dimethylpiperidine_eq_ax.job
N_3_dimethylpiperidine_eq_ax.loc -> /home1/pantazis/klk/VDZ/Nitrogen_compounds/N_3_dimethylpiperidine_eq_ax.loc
N_3_dimethylpiperidine_eq_ax.nodes -> /home1/pantazis/klk/VDZ/Nitrogen_compounds/N_3_dimethylpiperidine_eq_ax.nodes
N_3_dimethylpiperidine_eq_ax.prop -> /home1/pantazis/klk/VDZ/Nitrogen_compounds/N_3_dimethylpiperidine_eq_ax.prop
N_3_dimethylpiperidine_eq_ax_property.txt -> /home1/pantazis/klk/VDZ/Nitrogen_compounds/N_3_dimethylpiperidine_eq_ax_property.txt
N_3_dimethylpiperidine_eq_ax.xyz -> /home1/pantazis/klk/VDZ/Nitrogen_compounds/N_3_dimethylpiperidine_eq_ax.xyz
cp: cannot stat N_3_dimethylpiperidine_eq_ax.asa.inp: No such file or directory
