! Job execution by suborca V 6.07 on ZEUS !
Job started from zeus1, running /scratch/pantazis/N_4_dimethylpiperidine_eq_ax__rKfcM4/orca/orca copied from /opt/orca on zeussn125 in /scratch/pantazis/N_4_dimethylpiperidine_eq_ax__rKfcM4
Job execution start: Sat Jun 29 11:27:30 CEST 2019
Shared library path: /scratch/pantazis/N_4_dimethylpiperidine_eq_ax__rKfcM4/orca:/opt/openmpi_1.10.2/lib:/opt/intel/mkl/lib/intel64:/opt/intel/lib/intel64:
PBS Job ID is: 158840.icqc
izeussn125
izeussn125
izeussn125
izeussn125

                                 *****************
                                 * O   R   C   A *
                                 *****************

           --- An Ab Initio, DFT and Semiempirical electronic structure package ---

                  #######################################################
                  #                        -***-                        #
                  #          Department of theory and spectroscopy      #
                  #               Directorship: Frank Neese             #
                  #        Max Planck Institute fuer Kohlenforschung    #
                  #                Kaiser Wilhelm Platz 1               #
                  #                 D-45470 Muelheim/Ruhr               #
                  #                      Germany                        #
                  #                                                     #
                  #                  All rights reserved                #
                  #                        -***-                        #
                  #######################################################


                         Program Version 4.1.x  -  STABLE  -
                                (SVN: $Rev: 14094$)
                ($Date: 2019-06-14 15:01:15 +0200 (Fri, 14 Jun 2019) $)

                         (BUILD: $Sun Jun 23 06:18:31 CEST 2019$)


 With contributions from (in alphabetic order):
   Daniel Aravena         : Magnetic Properties
   Michael Atanasov       : Ab Initio Ligand Field Theory
   Alexander A. Auer      : GIAO ZORA
   Ute Becker             : Parallelization
   Giovanni Bistoni       : ED, Open-shell LED
   Martin Brehm           : Molecular dynamics
   Dmytro Bykov           : SCF Hessian
   Vijay G. Chilkuri      : MRCI spin determinant printing
   Dipayan Datta          : RHF DLPNO-CCSD density
   Achintya Kumar Dutta   : EOM-CC, STEOM-CC
   Dmitry Ganyushin       : Spin-Orbit,Spin-Spin,Magnetic field MRCI
   Miquel Garcia          : C-PCM Hessian
   Yang Guo               : DLPNO-NEVPT2, CIM, IAO-localization
   Andreas Hansen         : Spin unrestricted coupled pair/coupled cluster methods
   Benjamin Helmich-Paris : CASSCF linear response (MC-RPA)
   Lee Huntington         : MR-EOM, pCC
   Robert Izsak           : Overlap fitted RIJCOSX, COSX-SCS-MP3, EOM
   Christian Kollmar      : KDIIS, OOCD, Brueckner-CCSD(T), CCSD density
   Simone Kossmann        : Meta GGA functionals, TD-DFT gradient, OOMP2, MP2 Hessian
   Martin Krupicka        : AUTO-CI
   Lucas Lang             : DCDCAS
   Dagmar Lenk            : GEPOL surface, SMD
   Dimitrios Liakos       : Extrapolation schemes; parallel MDCI
   Dimitrios Manganas     : ROCIS; embedding schemes
   Dimitrios Pantazis     : SARC Basis sets
   Taras Petrenko         : DFT Hessian,TD-DFT gradient, ASA, ECA, R-Raman, ABS, FL, XAS/XES, NRVS
   Peter Pinski           : DLPNO-MP2, DLPNO-MP2 Gradient
   Christoph Reimann      : Effective Core Potentials
   Marius Retegan         : Local ZFS, SOC
   Christoph Riplinger    : Optimizer, TS searches, QM/MM, DLPNO-CCSD(T), (RO)-DLPNO pert. Triples
   Tobias Risthaus        : Range-separated hybrids, TD-DFT gradient, RPA, STAB
   Michael Roemelt        : Restricted open shell CIS
   Masaaki Saitow         : Open-shell DLPNO
   Barbara Sandhoefer     : DKH picture change effects
   Avijit Sen             : IP-ROCIS
   Kantharuban Sivalingam : CASSCF convergence, NEVPT2, FIC-MRCI
   Bernardo de Souza      : ESD, SOC TD-DFT
   Georgi Stoychev        : AutoAux, RI-MP2 NMR
   Willem Van den Heuvel  : Paramagnetic NMR
   Boris Wezisla          : Elementary symmetry handling
   Frank Wennmohs         : Technical directorship


 We gratefully acknowledge several colleagues who have allowed us to
 interface, adapt or use parts of their codes:
   Stefan Grimme, W. Hujo, H. Kruse,             : VdW corrections, initial TS optimization,
                  C. Bannwarth                     DFT functionals, gCP, sTDA/sTD-DF
   Ed Valeev                                     : LibInt (2-el integral package), F12 methods
   Garnet Chan, S. Sharma, J. Yang, R. Olivares  : DMRG
   Ulf Ekstrom                                   : XCFun DFT Library
   Mihaly Kallay                                 : mrcc  (arbitrary order and MRCC methods)
   Andreas Klamt, Michael Diedenhofen            : otool_cosmo (COSMO solvation model)
   Jiri Pittner, Ondrej Demel                    : Mk-CCSD
   Frank Weinhold                                : gennbo (NPA and NBO analysis)
   Christopher J. Cramer and Donald G. Truhlar   : smd solvation model
   Lars Goerigk                                  : TD-DFT with DH, B97 family of functionals
   V. Asgeirsson, H. Jonsson                     : NEB implementation
   FAccTs GmbH                                   : IRC, NEB, NEB-TS, Multilevel


 Your calculation uses the libint2 library for the computation of 2-el integrals
 For citations please refer to: http://libint.valeyev.net

 This ORCA versions uses:
   CBLAS   interface :  Fast vector & matrix operations
   LAPACKE interface :  Fast linear algebra routines
   SCALAPACK package :  Parallel linear algebra routines




***************************************
The coordinates will be read from file: N_4_dimethylpiperidine_eq_ax.xyz
***************************************


----- Orbital basis set information -----
Your calculation utilizes the basis: cc-pVDZ 
       H, B-Ne : Obtained from the ccRepo (grant-hill.group.shef.ac.uk/ccrepo) Feb. 2017
                 T. H. Dunning, Jr., J. Chem. Phys. 90, 1007 (1989)
            He : Obtained from the ccRepo (grant-hill.group.shef.ac.uk/ccrepo) Feb. 2017
                 D. E. Woon, T. H. Dunning, Jr., J. Chem. Phys. 100, 2975 (1994)
  Li-Be, Na-Mg : Obtained from the ccRepo (grant-hill.group.shef.ac.uk/ccrepo) Feb. 2017
                 B. P. Prascher, D. E. Woon, K. A. Peterson, T. H. Dunning, Jr., A. K. Wilson, Theor. Chem. Acc. 128, 69 (2011)
         Al-Ar : Obtained from the ccRepo (grant-hill.group.shef.ac.uk/ccrepo) Feb. 2017
                 D. E. Woon, T. H. Dunning, Jr., J. Chem. Phys. 98, 1358 (1993)
            Ca : Obtained from the Peterson Research Group Website (tyr0.chem.wsu.edu/~kipeters) Feb. 2017
                 J. Koput, K. A. Peterson, J. Phys. Chem. 106, 9595 (2002)
         Sc-Zn : Obtained from the ccRepo (grant-hill.group.shef.ac.uk/ccrepo) Feb. 2017
                 N. B. Balabanov, K. A. Peterson, J. Chem. Phys. 123, 064107 (2005)
                 N. B. Balabanov, K. A. Peterson, J. Chem. Phys. 125, 074110 (2006)
         Ga-Kr : Obtained from the ccRepo (grant-hill.group.shef.ac.uk/ccrepo) Feb. 2017
                 A. K. Wilson, D. E. Woon, K. A. Peterson, T. H. Dunning, Jr., J. Chem. Phys. 110, 7667 (1999)

----- AuxC basis set information -----
Your calculation utilizes the auxiliary basis: cc-pVDZ/C 
  H-He, B, Ne, Al-Ar, Ga-Br : Obtained from the EMSL Basis Set Exchange (bse.pnl.gov) Feb. 2017
                              F. Weigend, A. Kohn, C. Hattig, J. Chem. Phys. 116, 3175 (2002)
               Li-Be, Na-Mg : Obtained from the EMSL Basis Set Exchange (bse.pnl.gov) Feb. 2017
                              C. Haettig, Phys. Chem. Chem. Phys. 7, 59 (2005)
                        C-F : Obtained from the EMSL Basis Set Exchange (bse.pnl.gov) Feb. 2017
                              C. Haettig, Phys. Chem. Chem. Phys. 7, 59 (2005)
                              F. Weigend, A. Kohn, C. Hattig, J. Chem. Phys. 116, 3175 (2002)
                         Kr : Obtained from the TURBOMOLE 7.0 basis set library
                              F. Weigend, A. Kohn, C. Hattig, J. Chem. Phys. 116, 3175 (2002)
                              S function revised in Sep. 2009

----- AuxJK basis set information -----
Your calculation utilizes the auxiliary basis: cc-pVTZ/JK 
  H, B-F, Al-Cl, Ga-Br : Obtained from the TURBOMOLE 7.0 basis set library

================================================================================
                                        WARNINGS
                       Please study these warnings very carefully!
================================================================================


WARNING: MDCI localization with Augmented Hessian Foster-Boys
  ===> : Switching off randomization!

WARNING: Post HF methods need fully converged wavefunctions
  ===> : Setting SCFConvForced true
         You can overwrite this default with %scf ConvForced false 


INFO   : the flag for use of LIBINT has been found!

================================================================================
                                       INPUT FILE
================================================================================
NAME = N_4_dimethylpiperidine_eq_ax.inp
|  1> ! RHF DLPNO-CCSD(T) cc-pVDZ RIJK cc-pVTZ/JK cc-pVDZ/C
|  2> ! KDIIS SOSCF TightSCF TightPNO
|  3> 
|  4> %pal nprocs 4 end
|  5> 
|  6> %maxcore 8000
|  7> 
|  8> %scf maxiter 300
|  9>      shift shift 0.2 erroff 0.1 end
| 10> end
| 11> 
| 12> * xyzfile 0 1 N_4_dimethylpiperidine_eq_ax.xyz 
| 13> 
| 14> 
| 15>                          ****END OF INPUT****
================================================================================

                       ****************************
                       * Single Point Calculation *
                       ****************************

---------------------------------
CARTESIAN COORDINATES (ANGSTROEM)
---------------------------------
  C     -1.600730    0.000010   -0.379420
  C     -0.739760    1.255440   -0.637680
  C      0.605370    1.209240    0.095500
  N      1.354350    0.000000   -0.251670
  C      0.605350   -1.209230    0.095460
  C     -0.739780   -1.255380   -0.637720
  C      2.683380   -0.000030    0.341730
  C     -2.247010   -0.000040    1.016860
  H      1.209460    2.078660   -0.188920
  H      0.448780   -1.277030    1.192600
  H      1.209430   -2.078660   -0.188970
  H     -0.538260    1.336400   -1.713160
  H     -1.285640   -2.159980   -0.340500
  H     -0.538270   -1.336310   -1.713200
  H     -2.419510    0.000040   -1.112040
  H      2.661410   -0.000040    1.450460
  H      3.236100   -0.886540    0.013890
  H      3.236150    0.886470    0.013920
  H      0.448810    1.277010    1.192650
  H     -1.285610    2.160030   -0.340420
  H     -1.505760   -0.000060    1.822560
  H     -2.879220    0.885270    1.152250
  H     -2.879220   -0.885350    1.152190

----------------------------
CARTESIAN COORDINATES (A.U.)
----------------------------
  NO LB      ZA    FRAG     MASS         X           Y           Z
   0 C     6.0000    0    12.011   -3.024941    0.000019   -0.717000
   1 C     6.0000    0    12.011   -1.397944    2.372438   -1.205041
   2 C     6.0000    0    12.011    1.143984    2.285132    0.180469
   3 N     7.0000    0    14.007    2.559351    0.000000   -0.475587
   4 C     6.0000    0    12.011    1.143946   -2.285114    0.180393
   5 C     6.0000    0    12.011   -1.397982   -2.372324   -1.205116
   6 C     6.0000    0    12.011    5.070853   -0.000057    0.645776
   7 C     6.0000    0    12.011   -4.246234   -0.000076    1.921587
   8 H     1.0000    0     1.008    2.285548    3.928098   -0.357007
   9 H     1.0000    0     1.008    0.848071   -2.413237    2.253687
  10 H     1.0000    0     1.008    2.285491   -3.928098   -0.357102
  11 H     1.0000    0     1.008   -1.017164    2.525430   -3.237403
  12 H     1.0000    0     1.008   -2.429508   -4.081771   -0.643452
  13 H     1.0000    0     1.008   -1.017183   -2.525260   -3.237479
  14 H     1.0000    0     1.008   -4.572211    0.000076   -2.101451
  15 H     1.0000    0     1.008    5.029336   -0.000076    2.740972
  16 H     1.0000    0     1.008    6.115343   -1.675318    0.026248
  17 H     1.0000    0     1.008    6.115437    1.675186    0.026305
  18 H     1.0000    0     1.008    0.848128    2.413199    2.253782
  19 H     1.0000    0     1.008   -2.429451    4.081865   -0.643301
  20 H     1.0000    0     1.008   -2.845474   -0.000113    3.444139
  21 H     1.0000    0     1.008   -5.440937    1.672918    2.177437
  22 H     1.0000    0     1.008   -5.440937   -1.673069    2.177324

--------------------------------
INTERNAL COORDINATES (ANGSTROEM)
--------------------------------
 C      0   0   0     0.000000000000     0.00000000     0.00000000
 C      1   0   0     1.544044058115     0.00000000     0.00000000
 C      2   1   0     1.532665021882   112.63485401     0.00000000
 N      3   2   1     1.464158265660   111.12595495    55.68684102
 C      4   3   2     1.464150753782   111.35827055   300.57712110
 C      5   4   3     1.532663515518   111.12596181    59.42284422
 C      4   3   2     1.455487650858   111.74307530   174.83200398
 C      1   2   3     1.538595359183   112.70817160    75.44010281
 H      3   2   1     1.096225615875   109.60990035   175.17801340
 H      5   4   3     1.110327512268   110.90613641   296.33544590
 H      5   4   3     1.096230630935   108.15636104   179.77908248
 H      2   1   3     1.097184579731   109.04769079   119.94917691
 H      6   5   4     1.097544544882   109.37594716   181.23517900
 H      6   5   4     1.097184203040   108.05556789    64.83328096
 H      1   2   3     1.098695933232   107.69746902   193.20914743
 H      7   4   3     1.108947651560   112.92514033    62.76613323
 H      7   4   3     1.094933077453   109.80894912   183.38633173
 H      7   4   3     1.094941239976   109.80998229   302.14629722
 H      3   2   1     1.110334151956   110.31002004   292.25723915
 H      2   1   3     1.097542162379   110.33543570   237.46042950
 H      8   1   2     1.094807769839   112.54825516   298.18924183
 H      8   1   2     1.096263532322   110.74992549    58.46652583
 H      8   1   2     1.096256123860   110.75024489   177.91075052

---------------------------
INTERNAL COORDINATES (A.U.)
---------------------------
 C      0   0   0     0.000000000000     0.00000000     0.00000000
 C      1   0   0     2.917820408546     0.00000000     0.00000000
 C      2   1   0     2.896317146397   112.63485401     0.00000000
 N      3   2   1     2.766858138814   111.12595495    55.68684102
 C      4   3   2     2.766843943422   111.35827055   300.57712110
 C      5   4   3     2.896314299782   111.12596181    59.42284422
 C      4   3   2     2.750473051426   111.74307530   174.83200398
 C      1   2   3     2.907523859778   112.70817160    75.44010281
 H      3   2   1     2.071566194992   109.60990035   175.17801340
 H      5   4   3     2.098214917145   110.90613641   296.33544590
 H      5   4   3     2.071575672083   108.15636104   179.77908248
 H      2   1   3     2.073378374054   109.04769079   119.94917691
 H      6   5   4     2.074058609606   109.37594716   181.23517900
 H      6   5   4     2.073377662210   108.05556789    64.83328096
 H      1   2   3     2.076234418261   107.69746902   193.20914743
 H      7   4   3     2.095607358303   112.92514033    62.76613323
 H      7   4   3     2.069123651357   109.80894912   183.38633173
 H      7   4   3     2.069139076291   109.80998229   302.14629722
 H      3   2   1     2.098227464337   110.31002004   292.25723915
 H      2   1   3     2.074054107328   110.33543570   237.46042950
 H      8   1   2     2.068886854285   112.54825516   298.18924183
 H      8   1   2     2.071637846694   110.74992549    58.46652583
 H      8   1   2     2.071623846729   110.75024489   177.91075052

---------------------
BASIS SET INFORMATION
---------------------
There are 3 groups of distinct atoms

 Group   1 Type C   : 17s4p1d contracted to 3s2p1d pattern {881/31/1}
 Group   2 Type N   : 17s4p1d contracted to 3s2p1d pattern {881/31/1}
 Group   3 Type H   : 4s1p contracted to 2s1p pattern {31/1}

Atom   0C    basis set group =>   1
Atom   1C    basis set group =>   1
Atom   2C    basis set group =>   1
Atom   3N    basis set group =>   2
Atom   4C    basis set group =>   1
Atom   5C    basis set group =>   1
Atom   6C    basis set group =>   1
Atom   7C    basis set group =>   1
Atom   8H    basis set group =>   3
Atom   9H    basis set group =>   3
Atom  10H    basis set group =>   3
Atom  11H    basis set group =>   3
Atom  12H    basis set group =>   3
Atom  13H    basis set group =>   3
Atom  14H    basis set group =>   3
Atom  15H    basis set group =>   3
Atom  16H    basis set group =>   3
Atom  17H    basis set group =>   3
Atom  18H    basis set group =>   3
Atom  19H    basis set group =>   3
Atom  20H    basis set group =>   3
Atom  21H    basis set group =>   3
Atom  22H    basis set group =>   3
-------------------------------
AUXILIARY BASIS SET INFORMATION
-------------------------------
There are 3 groups of distinct atoms

 Group   1 Type C   : 7s5p4d2f contracted to 7s5p4d2f pattern {1111111/11111/1111/11}
 Group   2 Type N   : 7s5p4d2f contracted to 7s5p4d2f pattern {1111111/11111/1111/11}
 Group   3 Type H   : 3s2p1d contracted to 3s2p1d pattern {111/11/1}

Atom   0C    basis set group =>   1
Atom   1C    basis set group =>   1
Atom   2C    basis set group =>   1
Atom   3N    basis set group =>   2
Atom   4C    basis set group =>   1
Atom   5C    basis set group =>   1
Atom   6C    basis set group =>   1
Atom   7C    basis set group =>   1
Atom   8H    basis set group =>   3
Atom   9H    basis set group =>   3
Atom  10H    basis set group =>   3
Atom  11H    basis set group =>   3
Atom  12H    basis set group =>   3
Atom  13H    basis set group =>   3
Atom  14H    basis set group =>   3
Atom  15H    basis set group =>   3
Atom  16H    basis set group =>   3
Atom  17H    basis set group =>   3
Atom  18H    basis set group =>   3
Atom  19H    basis set group =>   3
Atom  20H    basis set group =>   3
Atom  21H    basis set group =>   3
Atom  22H    basis set group =>   3
-------------------------------
AUXILIARY BASIS SET INFORMATION
-------------------------------
There are 3 groups of distinct atoms

 Group   1 Type C   : 10s7p5d2f1g contracted to 10s7p5d2f1g pattern {1111111111/1111111/11111/11/1}
 Group   2 Type N   : 10s7p5d2f1g contracted to 10s7p5d2f1g pattern {1111111111/1111111/11111/11/1}
 Group   3 Type H   : 4s3p2d1f contracted to 4s3p2d1f pattern {1111/111/11/1}

Atom   0C    basis set group =>   1
Atom   1C    basis set group =>   1
Atom   2C    basis set group =>   1
Atom   3N    basis set group =>   2
Atom   4C    basis set group =>   1
Atom   5C    basis set group =>   1
Atom   6C    basis set group =>   1
Atom   7C    basis set group =>   1
Atom   8H    basis set group =>   3
Atom   9H    basis set group =>   3
Atom  10H    basis set group =>   3
Atom  11H    basis set group =>   3
Atom  12H    basis set group =>   3
Atom  13H    basis set group =>   3
Atom  14H    basis set group =>   3
Atom  15H    basis set group =>   3
Atom  16H    basis set group =>   3
Atom  17H    basis set group =>   3
Atom  18H    basis set group =>   3
Atom  19H    basis set group =>   3
Atom  20H    basis set group =>   3
Atom  21H    basis set group =>   3
Atom  22H    basis set group =>   3

Checking for AutoStart:
The File: N_4_dimethylpiperidine_eq_ax.gbw exists
Trying to determine its content:
     ... Fine, the file contains calculation information
     ... Fine, the calculation information was read
     ... Fine, the file contains a basis set
     ... Fine, the basis set was read
     ... Fine, the file contains a geometry
     ... Fine, the geometry was read
     ... Fine, the file contains a set of orbitals
     ... Fine, the orbitals can be read
     => possible old guess file was deleted
     => GBW file was renamed to GES file
     => GES file is set as startup file
     => Guess is set to MORead
     ... now leaving AutoStart



           ************************************************************
           *        Program running with 4 parallel MPI-processes     *
           *              working on a common directory               *
           ************************************************************
------------------------------------------------------------------------------
                           ORCA GTO INTEGRAL CALCULATION
                           -- RI-GTO INTEGRALS CHOSEN --
------------------------------------------------------------------------------

                         BASIS SET STATISTICS AND STARTUP INFO

Gaussian basis set:
 # of primitive gaussian shells          ...  251
 # of primitive gaussian functions       ...  377
 # of contracted shells                  ...   93
 # of contracted basis functions         ...  187
 Highest angular momentum                ...    2
 Maximum contraction depth               ...    8
Auxiliary gaussian basis set:
 # of primitive gaussian shells          ...  350
 # of primitive gaussian functions       ... 1082
 # of contracted shells                  ...  350
 # of contracted aux-basis functions     ... 1082
 Highest angular momentum                ...    4
 Maximum contraction depth               ...    1
Ratio of auxiliary to basis functions    ...  5.79
Integral package used                  ... LIBINT
 One Electron integrals                  ... done
 Ordering auxiliary basis shells         ... done
 Integral threshhold             Thresh  ...  2.500e-11
 Primitive cut-off               TCut    ...  2.500e-12
 Pre-screening matrix                    ... done
 Shell pair data                         ... 
 Ordering of the shell pairs             ... done (   0.001 sec) 4298 of 4371 pairs
 Determination of significant pairs      ... done (   0.000 sec)
 Creation of shell pair data             ... done (   0.002 sec)
 Storage of shell pair data              ... done (   0.002 sec)
 Shell pair data done in (   0.004 sec)
 Computing two index integrals           ... done
 Cholesky decomposition of the V-matrix  ... done


Timings:
 Total evaluation time                   ...   0.459 sec (  0.008 min)
 One electron matrix time                ...   0.046 sec (  0.001 min) = 10.1%
 Schwartz matrix evaluation time         ...   0.190 sec (  0.003 min) = 41.5%
 Two index repulsion integral time       ...   0.089 sec (  0.001 min) = 19.3%
 Cholesky decomposition of V             ...   0.104 sec (  0.002 min) = 22.6%
 Three index repulsion integral time     ...   0.000 sec (  0.000 min) =  0.0%



           ************************************************************
           *        Program running with 4 parallel MPI-processes     *
           *              working on a common directory               *
           ************************************************************
-------------------------------------------------------------------------------
                                 ORCA SCF
-------------------------------------------------------------------------------

------------
SCF SETTINGS
------------
Hamiltonian:
 Ab initio Hamiltonian  Method          .... Hartree-Fock(GTOs)
 RI-approximation to the Coulomb term is turned on
   Number of auxiliary basis functions  .... 1082
   RI-JK (J+K treated both via RI)      .... on


General Settings:
 Integral files         IntName         .... N_4_dimethylpiperidine_eq_ax
 Hartree-Fock type      HFTyp           .... RHF
 Total Charge           Charge          ....    0
 Multiplicity           Mult            ....    1
 Number of Electrons    NEL             ....   64
 Basis Dimension        Dim             ....  187
 Nuclear Repulsion      ENuc            ....    416.1890714833 Eh

Convergence Acceleration:
 DIIS                   CNVDIIS         .... off
 Newton-Raphson         CNVNR           .... off
 SOSCF                  CNVSOSCF        .... on
   Start iteration      SOSCFMaxIt      ....   150
   Startup grad/error   SOSCFStart      ....  0.003300
 Level Shifting         CNVShift        .... on
   Level shift para.    LevelShift      ....    0.2000
   Turn off err/grad.   ShiftErr        ....    0.1000
 Zerner damping         CNVZerner       .... off
 Static damping         CNVDamp         .... off
 Fernandez-Rico         CNVRico         .... off

SCF Procedure:
 Maximum # iterations   MaxIter         ....   300
 SCF integral mode      SCFMode         .... Direct
   Integral package                     .... LIBINT
 Reset frequency        DirectResetFreq ....    20
 Integral Threshold     Thresh          ....  2.500e-11 Eh
 Primitive CutOff       TCut            ....  2.500e-12 Eh

Convergence Tolerance:
 Convergence Check Mode ConvCheckMode   .... Total+1el-Energy
 Convergence forced     ConvForced      .... 1
 Energy Change          TolE            ....  1.000e-08 Eh
 1-El. energy change                    ....  1.000e-05 Eh
 Orbital Gradient       TolG            ....  1.000e-05
 Orbital Rotation angle TolX            ....  1.000e-05


Diagonalization of the overlap matrix:
Smallest eigenvalue                        ... 3.047e-03
Time for diagonalization                   ...    0.008 sec
Threshold for overlap eigenvalues          ... 1.000e-08
Number of eigenvalues below threshold      ... 0
Time for construction of square roots      ...    0.006 sec
Total time needed                          ...    0.014 sec

---------------------
INITIAL GUESS: MOREAD
---------------------
Guess MOs are being read from file: N_4_dimethylpiperidine_eq_ax.ges
Input Geometry matches current geometry (good)
Atom 0: N(Shells)= 6 and 10 - projection required
Input basis set needs projection
NBasis(read)= 450
NBasis(calc)= 187
Basis set overlap was calculated
Using GuessMode=FMatrix for the initial guess
C*T matrix was formed
Effective Fockian was calculated
Effective Fockian was diagonalized
Initial density was built
                      ------------------
                      INITIAL GUESS DONE (   0.1 sec)
                      ------------------
--------------
SCF ITERATIONS
--------------
ITER       Energy         Delta-E        Max-DP      RMS-DP      [F,P]   Gradient Norm
                             ****Turning on KDIIS(Cayley)****
  0   -328.2730504435   0.000000000000 0.00242760  0.00005553  0.0043101   0.005594490
  1   -328.2731912986  -0.000140855134 0.00456370  0.00010698  0.0039051   0.005082693
                      *** Initiating the SOSCF procedure ***
                           *** Shutting down KDIIS ***
                      *** Re-Reading the Fockian *** 
                      *** Removing any level shift *** 
ITER      Energy       Delta-E        Grad      Rot      Max-DP    RMS-DP
  2   -328.27343143  -0.0002401334  0.003127  0.003127  0.006985  0.000172
  3   -328.27371382  -0.0002823901  0.001874  0.000684  0.009488  0.000240
  4   -328.27386955  -0.0001557274  0.000214  0.000279  0.000789  0.000030
  5   -328.27387374  -0.0000041953  0.000065  0.000075  0.000347  0.000008
  6   -328.27387417  -0.0000004270  0.000024  0.000024  0.000068  0.000002
  7   -328.27387420  -0.0000000310  0.000006  0.000015  0.000025  0.000001
                 **** Energy Check signals convergence ****
              ***Rediagonalizing the Fockian in SOSCF/NRSCF***

               *****************************************************
               *                     SUCCESS                       *
               *           SCF CONVERGED AFTER   8 CYCLES          *
               *****************************************************


----------------
TOTAL SCF ENERGY
----------------

Total Energy       :         -328.27387420 Eh           -8932.78625 eV

Components:
Nuclear Repulsion  :          416.18907148 Eh           11325.08039 eV
Electronic Energy  :         -744.46294569 Eh          -20257.86664 eV
One Electron Energy:        -1268.71956975 Eh          -34523.61464 eV
Two Electron Energy:          524.25662407 Eh           14265.74800 eV

Virial components:
Potential Energy   :         -656.07490941 Eh          -17852.70590 eV
Kinetic Energy     :          327.80103521 Eh            8919.91965 eV
Virial Ratio       :            2.00144246


---------------
SCF CONVERGENCE
---------------

  Last Energy change         ...   -1.8305e-09  Tolerance :   1.0000e-08
  Last MAX-Density change    ...    1.0725e-05  Tolerance :   1.0000e-07
  Last RMS-Density change    ...    2.1261e-07  Tolerance :   5.0000e-09
  Last Orbital Gradient      ...    1.7740e-06  Tolerance :   1.0000e-05
  Last Orbital Rotation      ...    5.6014e-06  Tolerance :   1.0000e-05

             **** THE GBW FILE WAS UPDATED (N_4_dimethylpiperidine_eq_ax.gbw) ****
             **** DENSITY FILE WAS UPDATED (N_4_dimethylpiperidine_eq_ax.scfp.tmp) ****
             **** ENERGY FILE WAS UPDATED (N_4_dimethylpiperidine_eq_ax.en.tmp) ****
----------------
ORBITAL ENERGIES
----------------

  NO   OCC          E(Eh)            E(eV) 
   0   2.0000     -15.540037      -422.8659 
   1   2.0000     -11.246158      -306.0235 
   2   2.0000     -11.246143      -306.0231 
   3   2.0000     -11.245100      -305.9947 
   4   2.0000     -11.226697      -305.4939 
   5   2.0000     -11.218832      -305.2799 
   6   2.0000     -11.218799      -305.2790 
   7   2.0000     -11.217158      -305.2344 
   8   2.0000      -1.224992       -33.3337 
   9   2.0000      -1.082446       -29.4549 
  10   2.0000      -1.008997       -27.4562 
  11   2.0000      -0.961969       -26.1765 
  12   2.0000      -0.899998       -24.4902 
  13   2.0000      -0.844519       -22.9805 
  14   2.0000      -0.813800       -22.1446 
  15   2.0000      -0.723685       -19.6925 
  16   2.0000      -0.658269       -17.9124 
  17   2.0000      -0.621232       -16.9046 
  18   2.0000      -0.620267       -16.8783 
  19   2.0000      -0.599386       -16.3101 
  20   2.0000      -0.594720       -16.1832 
  21   2.0000      -0.563161       -15.3244 
  22   2.0000      -0.535492       -14.5715 
  23   2.0000      -0.529888       -14.4190 
  24   2.0000      -0.524578       -14.2745 
  25   2.0000      -0.504851       -13.7377 
  26   2.0000      -0.490990       -13.3605 
  27   2.0000      -0.480198       -13.0669 
  28   2.0000      -0.450414       -12.2564 
  29   2.0000      -0.433623       -11.7995 
  30   2.0000      -0.431154       -11.7323 
  31   2.0000      -0.345612        -9.4046 
  32   0.0000       0.175994         4.7890 
  33   0.0000       0.194432         5.2908 
  34   0.0000       0.209782         5.7085 
  35   0.0000       0.217255         5.9118 
  36   0.0000       0.242820         6.6075 
  37   0.0000       0.243486         6.6256 
  38   0.0000       0.257134         6.9970 
  39   0.0000       0.265528         7.2254 
  40   0.0000       0.267485         7.2786 
  41   0.0000       0.278227         7.5709 
  42   0.0000       0.278605         7.5812 
  43   0.0000       0.298109         8.1119 
  44   0.0000       0.311383         8.4732 
  45   0.0000       0.324404         8.8275 
  46   0.0000       0.330657         8.9976 
  47   0.0000       0.343311         9.3420 
  48   0.0000       0.373600        10.1662 
  49   0.0000       0.387072        10.5328 
  50   0.0000       0.415440        11.3047 
  51   0.0000       0.441029        12.0010 
  52   0.0000       0.443716        12.0741 
  53   0.0000       0.454347        12.3634 
  54   0.0000       0.458689        12.4816 
  55   0.0000       0.580744        15.8028 
  56   0.0000       0.598335        16.2815 
  57   0.0000       0.610469        16.6117 
  58   0.0000       0.631456        17.1828 
  59   0.0000       0.640266        17.4225 
  60   0.0000       0.664717        18.0879 
  61   0.0000       0.686909        18.6917 
  62   0.0000       0.701141        19.0790 
  63   0.0000       0.760496        20.6942 
  64   0.0000       0.762600        20.7514 
  65   0.0000       0.795601        21.6494 
  66   0.0000       0.813463        22.1355 
  67   0.0000       0.819372        22.2962 
  68   0.0000       0.828735        22.5510 
  69   0.0000       0.855768        23.2866 
  70   0.0000       0.863393        23.4941 
  71   0.0000       0.863670        23.5017 
  72   0.0000       0.880428        23.9577 
  73   0.0000       0.884836        24.0776 
  74   0.0000       0.885336        24.0912 
  75   0.0000       0.895652        24.3719 
  76   0.0000       0.896913        24.4062 
  77   0.0000       0.900515        24.5043 
  78   0.0000       0.906141        24.6574 
  79   0.0000       0.922282        25.0966 
  80   0.0000       0.929225        25.2855 
  81   0.0000       0.937036        25.4981 
  82   0.0000       0.945787        25.7362 
  83   0.0000       0.951371        25.8881 
  84   0.0000       0.956054        26.0156 
  85   0.0000       0.977059        26.5871 
  86   0.0000       0.982331        26.7306 
  87   0.0000       0.992342        27.0030 
  88   0.0000       1.013105        27.5680 
  89   0.0000       1.023757        27.8579 
  90   0.0000       1.073556        29.2129 
  91   0.0000       1.095383        29.8069 
  92   0.0000       1.112199        30.2645 
  93   0.0000       1.153118        31.3779 
  94   0.0000       1.186187        32.2778 
  95   0.0000       1.256880        34.2015 
  96   0.0000       1.289198        35.0809 
  97   0.0000       1.335814        36.3494 
  98   0.0000       1.363436        37.1010 
  99   0.0000       1.364090        37.1188 
 100   0.0000       1.397185        38.0193 
 101   0.0000       1.454243        39.5720 
 102   0.0000       1.511253        41.1233 
 103   0.0000       1.526994        41.5516 
 104   0.0000       1.545947        42.0674 
 105   0.0000       1.575941        42.8835 
 106   0.0000       1.577168        42.9169 
 107   0.0000       1.611718        43.8571 
 108   0.0000       1.622637        44.1542 
 109   0.0000       1.667772        45.3824 
 110   0.0000       1.686570        45.8939 
 111   0.0000       1.694530        46.1105 
 112   0.0000       1.698102        46.2077 
 113   0.0000       1.737863        47.2897 
 114   0.0000       1.753317        47.7102 
 115   0.0000       1.776310        48.3359 
 116   0.0000       1.798945        48.9518 
 117   0.0000       1.842670        50.1416 
 118   0.0000       1.851350        50.3778 
 119   0.0000       1.869549        50.8730 
 120   0.0000       1.891650        51.4744 
 121   0.0000       1.898245        51.6539 
 122   0.0000       1.908913        51.9442 
 123   0.0000       1.913541        52.0701 
 124   0.0000       1.925021        52.3825 
 125   0.0000       1.933731        52.6195 
 126   0.0000       1.941575        52.8329 
 127   0.0000       1.948877        53.0316 
 128   0.0000       1.955807        53.2202 
 129   0.0000       1.981927        53.9310 
 130   0.0000       1.985075        54.0166 
 131   0.0000       1.990084        54.1529 
 132   0.0000       2.003482        54.5175 
 133   0.0000       2.014879        54.8277 
 134   0.0000       2.038886        55.4809 
 135   0.0000       2.053755        55.8855 
 136   0.0000       2.058025        56.0017 
 137   0.0000       2.058941        56.0266 
 138   0.0000       2.083279        56.6889 
 139   0.0000       2.093707        56.9727 
 140   0.0000       2.132541        58.0294 
 141   0.0000       2.143380        58.3243 
 142   0.0000       2.160261        58.7837 
 143   0.0000       2.183718        59.4220 
 144   0.0000       2.183858        59.4258 
 145   0.0000       2.210041        60.1383 
 146   0.0000       2.236438        60.8566 
 147   0.0000       2.307046        62.7779 
 148   0.0000       2.308443        62.8159 
 149   0.0000       2.310181        62.8632 
 150   0.0000       2.320103        63.1332 
 151   0.0000       2.320791        63.1519 
 152   0.0000       2.350199        63.9522 
 153   0.0000       2.368162        64.4410 
 154   0.0000       2.379604        64.7523 
 155   0.0000       2.382690        64.8363 
 156   0.0000       2.390731        65.0551 
 157   0.0000       2.438240        66.3479 
 158   0.0000       2.447743        66.6065 
 159   0.0000       2.528420        68.8018 
 160   0.0000       2.544714        69.2452 
 161   0.0000       2.549082        69.3641 
 162   0.0000       2.578665        70.1691 
 163   0.0000       2.607395        70.9508 
 164   0.0000       2.640573        71.8537 
 165   0.0000       2.658964        72.3541 
 166   0.0000       2.689000        73.1714 
 167   0.0000       2.728843        74.2556 
 168   0.0000       2.730658        74.3050 
 169   0.0000       2.770227        75.3817 
 170   0.0000       2.773826        75.4797 
 171   0.0000       2.793782        76.0227 
 172   0.0000       2.803594        76.2897 
 173   0.0000       2.821455        76.7757 
 174   0.0000       2.843261        77.3691 
 175   0.0000       2.850285        77.5602 
 176   0.0000       2.870923        78.1218 
 177   0.0000       2.891756        78.6887 
 178   0.0000       2.925793        79.6149 
 179   0.0000       2.956058        80.4384 
 180   0.0000       2.989108        81.3378 
 181   0.0000       3.031717        82.4972 
 182   0.0000       3.069131        83.5153 
 183   0.0000       3.140877        85.4676 
 184   0.0000       3.141289        85.4788 
 185   0.0000       3.161558        86.0304 
 186   0.0000       3.208041        87.2952 

                    ********************************
                    * MULLIKEN POPULATION ANALYSIS *
                    ********************************

-----------------------
MULLIKEN ATOMIC CHARGES
-----------------------
   0 C :   -0.218812
   1 C :    0.025921
   2 C :    0.116729
   3 N :   -0.512867
   4 C :    0.116728
   5 C :    0.025930
   6 C :    0.116061
   7 C :    0.010447
   8 H :    0.026768
   9 H :    0.002540
  10 H :    0.026768
  11 H :    0.030507
  12 H :    0.019018
  13 H :    0.030504
  14 H :    0.013720
  15 H :    0.000679
  16 H :    0.031027
  17 H :    0.031028
  18 H :    0.002543
  19 H :    0.019020
  20 H :    0.029507
  21 H :    0.028116
  22 H :    0.028118
Sum of atomic charges:    0.0000000

--------------------------------
MULLIKEN REDUCED ORBITAL CHARGES
--------------------------------
  0 C s       :     3.168791  s :     3.168791
      pz      :     0.993891  p :     2.945626
      px      :     0.978613
      py      :     0.973122
      dz2     :     0.022357  d :     0.104395
      dxz     :     0.026055
      dyz     :     0.013337
      dx2y2   :     0.017336
      dxy     :     0.025310
  1 C s       :     3.032832  s :     3.032832
      pz      :     0.981783  p :     2.861713
      px      :     0.931142
      py      :     0.948787
      dz2     :     0.021385  d :     0.079535
      dxz     :     0.014890
      dyz     :     0.006526
      dx2y2   :     0.016143
      dxy     :     0.020591
  2 C s       :     3.018072  s :     3.018072
      pz      :     0.961508  p :     2.756779
      px      :     0.934781
      py      :     0.860491
      dz2     :     0.028960  d :     0.108420
      dxz     :     0.017281
      dyz     :     0.013835
      dx2y2   :     0.018853
      dxy     :     0.029491
  3 N s       :     3.557007  s :     3.557007
      pz      :     1.702240  p :     3.907925
      px      :     1.104956
      py      :     1.100729
      dz2     :     0.004136  d :     0.047935
      dxz     :     0.010368
      dyz     :     0.007893
      dx2y2   :     0.011541
      dxy     :     0.013998
  4 C s       :     3.018069  s :     3.018069
      pz      :     0.961512  p :     2.756782
      px      :     0.934778
      py      :     0.860492
      dz2     :     0.028960  d :     0.108421
      dxz     :     0.017282
      dyz     :     0.013835
      dx2y2   :     0.018853
      dxy     :     0.029491
  5 C s       :     3.032821  s :     3.032821
      pz      :     0.981785  p :     2.861712
      px      :     0.931142
      py      :     0.948785
      dz2     :     0.021386  d :     0.079537
      dxz     :     0.014890
      dyz     :     0.006526
      dx2y2   :     0.016144
      dxy     :     0.020592
  6 C s       :     3.008122  s :     3.008122
      pz      :     0.943333  p :     2.789462
      px      :     0.841567
      py      :     1.004562
      dz2     :     0.026647  d :     0.086356
      dxz     :     0.018807
      dyz     :     0.004262
      dx2y2   :     0.017405
      dxy     :     0.019234
  7 C s       :     3.017801  s :     3.017801
      pz      :     0.955157  p :     2.911155
      px      :     0.970163
      py      :     0.985836
      dz2     :     0.017608  d :     0.060597
      dxz     :     0.018269
      dyz     :     0.004763
      dx2y2   :     0.004104
      dxy     :     0.015853
  8 H s       :     0.945009  s :     0.945009
      pz      :     0.005949  p :     0.028222
      px      :     0.008535
      py      :     0.013738
  9 H s       :     0.970297  s :     0.970297
      pz      :     0.020221  p :     0.027163
      px      :     0.003691
      py      :     0.003252
 10 H s       :     0.945009  s :     0.945009
      pz      :     0.005949  p :     0.028222
      px      :     0.008535
      py      :     0.013738
 11 H s       :     0.940539  s :     0.940539
      pz      :     0.020026  p :     0.028954
      px      :     0.004594
      py      :     0.004333
 12 H s       :     0.951667  s :     0.951667
      pz      :     0.005884  p :     0.029315
      px      :     0.008216
      py      :     0.015215
 13 H s       :     0.940542  s :     0.940542
      pz      :     0.020026  p :     0.028954
      px      :     0.004595
      py      :     0.004333
 14 H s       :     0.958614  s :     0.958614
      pz      :     0.011102  p :     0.027666
      px      :     0.012948
      py      :     0.003616
 15 H s       :     0.970482  s :     0.970482
      pz      :     0.020869  p :     0.028839
      px      :     0.002937
      py      :     0.005033
 16 H s       :     0.939457  s :     0.939457
      pz      :     0.006519  p :     0.029516
      px      :     0.007482
      py      :     0.015515
 17 H s       :     0.939456  s :     0.939456
      pz      :     0.006518  p :     0.029516
      px      :     0.007483
      py      :     0.015515
 18 H s       :     0.970294  s :     0.970294
      pz      :     0.020221  p :     0.027163
      px      :     0.003690
      py      :     0.003252
 19 H s       :     0.951665  s :     0.951665
      pz      :     0.005885  p :     0.029315
      px      :     0.008216
      py      :     0.015215
 20 H s       :     0.939953  s :     0.939953
      pz      :     0.013030  p :     0.030540
      px      :     0.012070
      py      :     0.005441
 21 H s       :     0.941647  s :     0.941647
      pz      :     0.004691  p :     0.030237
      px      :     0.010312
      py      :     0.015233
 22 H s       :     0.941645  s :     0.941645
      pz      :     0.004691  p :     0.030237
      px      :     0.010312
      py      :     0.015234


                     *******************************
                     * LOEWDIN POPULATION ANALYSIS *
                     *******************************

----------------------
LOEWDIN ATOMIC CHARGES
----------------------
   0 C :   -0.042771
   1 C :   -0.025992
   2 C :   -0.008119
   3 N :   -0.039277
   4 C :   -0.008121
   5 C :   -0.025996
   6 C :   -0.019929
   7 C :   -0.047614
   8 H :    0.017714
   9 H :   -0.004021
  10 H :    0.017715
  11 H :    0.021223
  12 H :    0.018520
  13 H :    0.021223
  14 H :    0.019140
  15 H :   -0.001640
  16 H :    0.018063
  17 H :    0.018064
  18 H :   -0.004019
  19 H :    0.018519
  20 H :    0.015929
  21 H :    0.020695
  22 H :    0.020695

-------------------------------
LOEWDIN REDUCED ORBITAL CHARGES
-------------------------------
  0 C s       :     2.793408  s :     2.793408
      pz      :     1.007500  p :     3.006615
      px      :     1.000180
      py      :     0.998934
      dz2     :     0.049634  d :     0.242748
      dxz     :     0.064391
      dyz     :     0.029625
      dx2y2   :     0.041300
      dxy     :     0.057798
  1 C s       :     2.792550  s :     2.792550
      pz      :     1.027059  p :     3.031684
      px      :     0.999287
      py      :     1.005338
      dz2     :     0.056016  d :     0.201758
      dxz     :     0.035267
      dyz     :     0.016809
      dx2y2   :     0.040086
      dxy     :     0.053581
  2 C s       :     2.796671  s :     2.796671
      pz      :     1.022359  p :     2.946064
      px      :     0.987853
      py      :     0.935851
      dz2     :     0.072749  d :     0.265384
      dxz     :     0.041405
      dyz     :     0.035282
      dx2y2   :     0.045064
      dxy     :     0.070884
  3 N s       :     3.078861  s :     3.078861
      pz      :     1.633268  p :     3.859884
      px      :     1.112798
      py      :     1.113818
      dz2     :     0.009046  d :     0.100531
      dxz     :     0.018271
      dyz     :     0.013803
      dx2y2   :     0.027663
      dxy     :     0.031749
  4 C s       :     2.796669  s :     2.796669
      pz      :     1.022363  p :     2.946065
      px      :     0.987849
      py      :     0.935853
      dz2     :     0.072748  d :     0.265388
      dxz     :     0.041406
      dyz     :     0.035283
      dx2y2   :     0.045065
      dxy     :     0.070885
  5 C s       :     2.792543  s :     2.792543
      pz      :     1.027056  p :     3.031686
      px      :     0.999288
      py      :     1.005342
      dz2     :     0.056018  d :     0.201767
      dxz     :     0.035268
      dyz     :     0.016809
      dx2y2   :     0.040088
      dxy     :     0.053583
  6 C s       :     2.802815  s :     2.802815
      pz      :     1.022438  p :     2.993078
      px      :     0.915841
      py      :     1.054800
      dz2     :     0.073079  d :     0.224036
      dxz     :     0.046427
      dyz     :     0.011471
      dx2y2   :     0.039117
      dxy     :     0.053942
  7 C s       :     2.797088  s :     2.797088
      pz      :     1.014920  p :     3.088697
      px      :     1.032163
      py      :     1.041614
      dz2     :     0.043704  d :     0.161829
      dxz     :     0.048057
      dyz     :     0.013540
      dx2y2   :     0.011088
      dxy     :     0.045441
  8 H s       :     0.905888  s :     0.905888
      pz      :     0.017572  p :     0.076398
      px      :     0.024706
      py      :     0.034121
  9 H s       :     0.928067  s :     0.928067
      pz      :     0.047222  p :     0.075953
      px      :     0.015793
      py      :     0.012938
 10 H s       :     0.905888  s :     0.905888
      pz      :     0.017572  p :     0.076397
      px      :     0.024705
      py      :     0.034121
 11 H s       :     0.899771  s :     0.899771
      pz      :     0.046160  p :     0.079006
      px      :     0.016972
      py      :     0.015874
 12 H s       :     0.903038  s :     0.903038
      pz      :     0.017758  p :     0.078442
      px      :     0.023621
      py      :     0.037063
 13 H s       :     0.899772  s :     0.899772
      pz      :     0.046160  p :     0.079005
      px      :     0.016972
      py      :     0.015874
 14 H s       :     0.902067  s :     0.902067
      pz      :     0.029319  p :     0.078792
      px      :     0.032714
      py      :     0.016759
 15 H s       :     0.926518  s :     0.926518
      pz      :     0.048492  p :     0.075122
      px      :     0.011787
      py      :     0.014843
 16 H s       :     0.905886  s :     0.905886
      pz      :     0.017593  p :     0.076052
      px      :     0.021441
      py      :     0.037018
 17 H s       :     0.905886  s :     0.905886
      pz      :     0.017592  p :     0.076050
      px      :     0.021442
      py      :     0.037016
 18 H s       :     0.928067  s :     0.928067
      pz      :     0.047222  p :     0.075952
      px      :     0.015793
      py      :     0.012937
 19 H s       :     0.903038  s :     0.903038
      pz      :     0.017758  p :     0.078443
      px      :     0.023621
      py      :     0.037064
 20 H s       :     0.904239  s :     0.904239
      pz      :     0.033361  p :     0.079832
      px      :     0.030668
      py      :     0.015803
 21 H s       :     0.901221  s :     0.901221
      pz      :     0.016410  p :     0.078084
      px      :     0.025947
      py      :     0.035728
 22 H s       :     0.901220  s :     0.901220
      pz      :     0.016409  p :     0.078086
      px      :     0.025947
      py      :     0.035729


                      *****************************
                      * MAYER POPULATION ANALYSIS *
                      *****************************

  NA   - Mulliken gross atomic population
  ZA   - Total nuclear charge
  QA   - Mulliken gross atomic charge
  VA   - Mayer's total valence
  BVA  - Mayer's bonded valence
  FA   - Mayer's free valence

  ATOM       NA         ZA         QA         VA         BVA        FA
  0 C      6.2188     6.0000    -0.2188     4.0815     4.0815    -0.0000
  1 C      5.9741     6.0000     0.0259     3.9690     3.9690     0.0000
  2 C      5.8833     6.0000     0.1167     3.9450     3.9450     0.0000
  3 N      7.5129     7.0000    -0.5129     2.9959     2.9959    -0.0000
  4 C      5.8833     6.0000     0.1167     3.9450     3.9450    -0.0000
  5 C      5.9741     6.0000     0.0259     3.9690     3.9690    -0.0000
  6 C      5.8839     6.0000     0.1161     3.9436     3.9436    -0.0000
  7 C      5.9896     6.0000     0.0104     3.9262     3.9262    -0.0000
  8 H      0.9732     1.0000     0.0268     0.9728     0.9728    -0.0000
  9 H      0.9975     1.0000     0.0025     0.9674     0.9674     0.0000
 10 H      0.9732     1.0000     0.0268     0.9728     0.9728    -0.0000
 11 H      0.9695     1.0000     0.0305     0.9728     0.9728     0.0000
 12 H      0.9810     1.0000     0.0190     0.9733     0.9733    -0.0000
 13 H      0.9695     1.0000     0.0305     0.9728     0.9728     0.0000
 14 H      0.9863     1.0000     0.0137     0.9651     0.9651     0.0000
 15 H      0.9993     1.0000     0.0007     0.9751     0.9751     0.0000
 16 H      0.9690     1.0000     0.0310     0.9810     0.9810     0.0000
 17 H      0.9690     1.0000     0.0310     0.9810     0.9810    -0.0000
 18 H      0.9975     1.0000     0.0025     0.9674     0.9674    -0.0000
 19 H      0.9810     1.0000     0.0190     0.9733     0.9733     0.0000
 20 H      0.9705     1.0000     0.0295     0.9799     0.9799    -0.0000
 21 H      0.9719     1.0000     0.0281     0.9768     0.9768    -0.0000
 22 H      0.9719     1.0000     0.0281     0.9768     0.9768     0.0000

  Mayer bond orders larger than 0.1
B(  0-C ,  1-C ) :   1.0376 B(  0-C ,  5-C ) :   1.0376 B(  0-C ,  7-C ) :   1.0338 
B(  0-C , 14-H ) :   0.9646 B(  1-C ,  2-C ) :   1.0523 B(  1-C , 11-H ) :   0.9606 
B(  1-C , 19-H ) :   0.9671 B(  2-C ,  3-N ) :   0.9824 B(  2-C ,  8-H ) :   0.9735 
B(  2-C , 18-H ) :   0.9546 B(  3-N ,  4-C ) :   0.9824 B(  3-N ,  6-C ) :   1.0136 
B(  4-C ,  5-C ) :   1.0523 B(  4-C ,  9-H ) :   0.9546 B(  4-C , 10-H ) :   0.9735 
B(  5-C , 12-H ) :   0.9671 B(  5-C , 13-H ) :   0.9606 B(  6-C , 15-H ) :   0.9698 
B(  6-C , 16-H ) :   0.9876 B(  6-C , 17-H ) :   0.9876 B(  7-C , 20-H ) :   0.9777 
B(  7-C , 21-H ) :   0.9811 B(  7-C , 22-H ) :   0.9811 

-------
TIMINGS
-------

Total SCF time: 0 days 0 hours 0 min 9 sec 

Total time                  ....       9.931 sec
Sum of individual times     ....       9.734 sec  ( 98.0%)

Fock matrix formation       ....       9.619 sec  ( 96.9%)
Diagonalization             ....       0.013 sec  (  0.1%)
Density matrix formation    ....       0.003 sec  (  0.0%)
Population analysis         ....       0.008 sec  (  0.1%)
Initial guess               ....       0.071 sec  (  0.7%)
Orbital Transformation      ....       0.000 sec  (  0.0%)
Orbital Orthonormalization  ....       0.000 sec  (  0.0%)
DIIS solution               ....       0.000 sec  (  0.0%)
SOSCF solution              ....       0.021 sec  (  0.2%)


           ************************************************************
           *        Program running with 4 parallel MPI-processes     *
           *              working on a common directory               *
           ************************************************************


------------------------------------------------------------------------------- 
                              ORCA-MATRIX DRIVEN CI                            
------------------------------------------------------------------------------- 


Wavefunction type
-----------------
Correlation treatment                      ...      CCSD     
Single excitations                         ... ON
Orbital optimization                       ... OFF
Calculation of Z vector                    ... OFF
Calculation of Brueckner orbitals          ... OFF
Perturbative triple excitations            ... ON
Calculation of F12 correction              ... OFF
Frozen core treatment                      ... chemical core (16 el)
Reference Wavefunction                     ... RHF
  Internal Orbitals:     8 ...   31 ( 24 MO's/ 48 electrons)
  Virtual  Orbitals:    32 ...  186 (155 MO's              )
Number of AO's                             ...    187
Number of electrons                        ...     64
Number of correlated electrons             ...     48

Algorithmic settings
--------------------
Integral transformation                    ... All integrals via the RI transformation
K(C) Formation                             ... RI-DLPNO
   PNO-Integral Storage                    ... ON DISK
   PNO occupation number cut-off           ... 1.000e-07
   Singles PNO occupation number cut-off   ... 3.000e-09
   PNO Mulliken prescreening cut-off       ... 1.000e-03
   Domain cut-off (Mulliken population)    ... 1.000e-03
   PNO Normalization                       ...    1
Maximum number of iterations               ...        50
Convergence tolerance (max. residuum)      ... 1.000e-05
Level shift for amplitude update           ... 2.000e-01
Maximum number of DIIS vectors             ...         7
DIIS turned on at iteration                ...         0
Damping before turning on DIIS             ...     0.500
Damping after turning on DIIS              ...     0.000
Pair specific amplitude update             ... OFF
Natural orbital iterations                 ... OFF
Perturbative natural orbital generation    ... OFF
Printlevel                                 ... 2

Singles Fock matrix elements calculated using PNOs.

Memory handling:
----------------
Maximum memory for working arrays          ...   8000 MB
Data storage in matrix containers          ... UNCOMPRESSED
Data type for integral storage             ... DOUBLE
In-Core Storage of quantities:
   Amplitudes+Sigma Vector      ... NO
   J+K operators                ... NO
   DIIS vectors                 ... NO
   3-external integrals         ... NO
   4-external integrals         ... NO

Localization treatment:
-----------------------
Localization option                        ...    6
Localization threshhold                    ... -1.0e+00
Using relative localization threshhold     ... 1.0e-08
Neglect threshold for strong pairs         ... 1.000e-05 Eh
Prescreening threshold for very weak pairs ... 1.000e-07 Eh

Initializing the integral package          ... done
Localizing the valence orbitals
------------------------------------------------------------------------------
                           ORCA ORBITAL LOCALIZATION
------------------------------------------------------------------------------

Input orbitals are from                  ... N_4_dimethylpiperidine_eq_ax.proc0.gbw
Output orbitals are to                   ... N_4_dimethylpiperidine_eq_ax.proc0.loc
Max. number of iterations                ... 128
Localizations seeded randomly            ... off
Convergence tolerance                    ... 1.000e-06
Using relative localization threshhold   ... 1.000e-08
Treshold for strong local MOs            ... 9.500e-01
Treshold for bond MOs                    ... 8.500e-01
Operator                                 ... 0
Orbital range for localization           ... 8 to 31
Localization criterion                   ... FOSTER-BOYS (AUGMENTED HESSIAN)
Doing the dipole integrals     ... o.k.
Initial value of the localization sum :   361.663715
ITERATION   0 : L=  379.4107668545 DL=  1.77e+01 (AVERGE_DL)=    0.2535762455 
ITERATION   1 : L=  383.0184631880 DL=  3.61e+00 (AVERGE_DL)=    0.1143300640 
ITERATION   2 : L=  383.1023321800 DL=  8.39e-02 (AVERGE_DL)=    0.0174319580 
ITERATION   3 : L=  383.1025873191 DL=  2.55e-04 (AVERGE_DL)=    0.0009614661 
ITERATION   4 : L=  383.1025887887 DL=  1.47e-06 (AVERGE_DL)=    0.0000729720 
ITERATION   5 : L=  383.1025888013 DL=  1.26e-08 (AVERGE_DL)=    0.0000067514 
LOCALIZATION SUM CONVERGED

------------------------------------------------------
AUGMENTED HESSIAN OPTIMIZATION OF FOSTER-BOYS ORBITALS
------------------------------------------------------

Spin operator:           0
Orbital window:          8 to 31
Number of iterations:    128
Gradient tolerance:      1.000e-06
Number of pairs:         276
Davidson threshold:      2000
Diagonalization method:  LAPACK
Iter:    0   L: 383.1025888013   Grad. norm: 1.693658e-03
   *** Likely close to a maximum now. ***
       Augmented Hessian eigenvalues:  1.37e-08 -6.28e+00 -6.41e+00 -9.12e+00 ... 
Iter:    1   L: 383.1025888082   Grad. norm: 3.007745e-10
LOCALIZATION HAS CONVERGED.

Eigenvalues of the Hessian:
  0 -6.282e+00
  1 -6.408e+00
  2 -9.119e+00
  3 -1.266e+01
  4 -1.634e+01
  5 -1.650e+01
  6 -1.736e+01
  7 -1.780e+01
  8 -1.797e+01
  9 -1.798e+01
    ...


------------------------------------------------------------------------------- 
                    LOCALIZED MOLECULAR ORBITAL COMPOSITIONS                   
------------------------------------------------------------------------------- 

The Mulliken populations for each LMO on each atom are computed
The LMO`s will be ordered according to atom index and type
  (A) Strongly localized MO`s have populations of >=0.950 on one atom
  (B) Two center bond orbitals have populations of >=0.850 on two atoms
  (C) Other MO`s are considered to be `delocalized`

FOUND  -   1 strongly local MO`s
       -  23 two center bond MO`s
       -   0 significantly delocalized MO`s

Rather strongly localized orbitals:
MO   8:   3N  -   0.971871
Bond-like localized orbitals:
MO  31:  22H  -   0.503078  and   7C  -   0.508234
MO  30:  21H  -   0.503079  and   7C  -   0.508234
MO  29:  20H  -   0.501634  and   7C  -   0.510600
MO  28:  19H  -   0.508974  and   1C  -   0.499704
MO  27:  18H  -   0.519723  and   2C  -   0.498463
MO  26:  17H  -   0.499404  and   6C  -   0.516000
MO  25:  16H  -   0.499404  and   6C  -   0.515999
MO  24:  15H  -   0.517585  and   6C  -   0.502532
MO  23:  14H  -   0.513224  and   0C  -   0.499525
MO  22:  13H  -   0.502898  and   5C  -   0.505224
MO  21:  12H  -   0.508975  and   5C  -   0.499703
MO  20:  11H  -   0.502896  and   1C  -   0.505225
MO  19:  10H  -   0.503918  and   4C  -   0.507837
MO  18:   9H  -   0.519725  and   4C  -   0.498462
MO  17:   8H  -   0.503918  and   2C  -   0.507836
MO  16:   7C  -   0.505156  and   0C  -   0.541560
MO  15:   6C  -   0.422007  and   3N  -   0.614142
MO  14:   5C  -   0.501807  and   4C  -   0.541645
MO  13:   5C  -   0.517085  and   0C  -   0.537521
MO  12:   4C  -   0.424126  and   3N  -   0.612692
MO  11:   3N  -   0.612693  and   2C  -   0.424125
MO  10:   2C  -   0.541645  and   1C  -   0.501807
MO   9:   1C  -   0.517086  and   0C  -   0.537522
Localized MO's were stored in: N_4_dimethylpiperidine_eq_ax.proc0.loc

Localizing the core orbitals
------------------------------------------------------------------------------
                           ORCA ORBITAL LOCALIZATION
------------------------------------------------------------------------------

Input orbitals are from                  ... N_4_dimethylpiperidine_eq_ax.proc0.loc
Output orbitals are to                   ... N_4_dimethylpiperidine_eq_ax.proc0.loc
Max. number of iterations                ... 128
Localizations seeded randomly            ... off
Convergence tolerance                    ... 1.000e-06
Using relative localization threshhold   ... 1.000e-08
Treshold for strong local MOs            ... 9.500e-01
Treshold for bond MOs                    ... 8.500e-01
Operator                                 ... 0
Orbital range for localization           ... 0 to 7
Localization criterion                   ... FOSTER-BOYS (AUGMENTED HESSIAN)
Doing the dipole integrals     ... o.k.
Initial value of the localization sum :    95.488851
ITERATION   0 : L=   95.4888656735 DL=  1.44e-05 (AVERGE_DL)=    0.0007162547 
ITERATION   1 : L=   95.4888656735 DL=  0.00e+00 (AVERGE_DL)=    0.0000000000 
LOCALIZATION SUM CONVERGED

------------------------------------------------------
AUGMENTED HESSIAN OPTIMIZATION OF FOSTER-BOYS ORBITALS
------------------------------------------------------

Spin operator:           0
Orbital window:          0 to 7
Number of iterations:    128
Gradient tolerance:      1.000e-06
Number of pairs:         28
Davidson threshold:      2000
Diagonalization method:  LAPACK
Iter:    0   L: 95.4888656735   Grad. norm: 4.150295e-06
   *** Likely close to a maximum now. ***
       Augmented Hessian eigenvalues:  2.12e-13 -3.03e+01 -3.06e+01 -3.06e+01 ... 
Iter:    1   L: 95.4888656735   Grad. norm: 5.524379e-14
LOCALIZATION HAS CONVERGED.

Eigenvalues of the Hessian:
  0 -3.026e+01
  1 -3.062e+01
  2 -3.062e+01
  3 -3.356e+01
  4 -3.356e+01
  5 -3.382e+01
  6 -3.405e+01
  7 -3.405e+01
  8 -8.343e+01
  9 -8.343e+01
    ...


------------------------------------------------------------------------------- 
                    LOCALIZED MOLECULAR ORBITAL COMPOSITIONS                   
------------------------------------------------------------------------------- 

The Mulliken populations for each LMO on each atom are computed
The LMO`s will be ordered according to atom index and type
  (A) Strongly localized MO`s have populations of >=0.950 on one atom
  (B) Two center bond orbitals have populations of >=0.850 on two atoms
  (C) Other MO`s are considered to be `delocalized`

FOUND  -   8 strongly local MO`s
       -   0 two center bond MO`s
       -   0 significantly delocalized MO`s

Rather strongly localized orbitals:
MO   7:   7C  -   0.999609
MO   6:   6C  -   0.999775
MO   5:   5C  -   0.999174
MO   4:   4C  -   0.999427
MO   3:   3N  -   0.999442
MO   2:   2C  -   0.999427
MO   1:   1C  -   0.999174
MO   0:   0C  -   0.998945
Localized MO's were stored in: N_4_dimethylpiperidine_eq_ax.proc0.loc

Warning: internal orbitals are localized - no re-canonicalization of internal orbitals

--------------------------
CLOSED-SHELL FOCK OPERATOR
--------------------------

RI-JK section for the Fock operator:
  RHF full Fock operator         ... done
  RHF frozen core Fock operator  ... done
Time needed for Fock operator              ...            2.087 sec
Reference energy                           ...   -328.273874205

--------------
DLPNO SETTINGS (2015 fully linear scaling implementation)
--------------

TCutMKN:           1.000e-03
TCutPAO:           1.000e-03
TCutPNO:           1.000e-07
TCutPNOSingles:    3.000e-09
TCutEN:            9.700e-01
TCutPAOExt:        1.000e-01
TCutPairs:         1.000e-05
TCutPre:           1.000e-07
TCutOSV:           1.000e-06
TCutDOij:          1.000e-05
TCutDO:            5.000e-03
TCutC:             1.000e-04
TCutCPAO:          1.000e-03
TCutCMO:           1.000e-03
TScaleDOMP2PreScr: 2.000e+00
TScaleMKNMP2PreScr:1.000e+01
TScalePNOMP2PreScr:1.000e+00
PAO overlap thresh 1.000e-08
Using PNOs for Singles Fock computation
Use new domains
Use fully linear algorithm
TCutTNO:           1.000e-09
TCutMP2Pairs:      1.000e-06
TCutDOStrong:      2.000e-03
TCutMKNStrong:     1.000e-02
TCutMKNWeak:       1.000e-01
TCutDOWeak:        4.000e-03
NTCutTNO:          1

--------------------------
Calculating differential overlap integrals ... ok
--------------------------
ELECTRON PAIR PRESCREENING
--------------------------

Dipole-based pair screening          .... used

   TCutDOij = 1.000000e-05
   TCutPre  = 1.000000e-07
   .... Finished loop over pairs
Total time spent in the prescreening                  ...     0.000 sec
sum of pair energies estimated for screened out pairs ...       0.000000000000 Eh
Thresholds for map construction and integral transformation for crude MP2:
   TCutMKN                    ...     1.0e-02
   TCutDO                     ...     1.0e-02
   TCutPairs                  ...     1.0e-05
   TCutPNO_CrudeMP2           ...     1.0e-07
   TCutPNOSingles_CrudeMP2    ...     3.0e-09
--------------------------------
LOCAL RI TRANSFORMATION (IAVPAO)
--------------------------------

Orbital window:       8 to 31
Number of PAOs:     187
Basis functions:    187 (93 shells)
Aux. functions:     658 (234 shells)

Processing maps (0.0 sec)
Average map sizes:
   Aux shells -> MOs              24.0
   Aux shells -> PAOs            187.0
   MOs        -> AO shells        88.8
   PAOs       -> AO shells        92.7

Calculating integrals (0.5 sec, 22.538 MB)
Sorting integrals (0.0 sec, 22.531 MB)
Total time for the integral transformation: 0.6 sec
--------------------------------
INITIAL GUESS AND PNO GENERATION
--------------------------------

PNO truncation parameters                   .... 
    PAOOverlapThresh   =        1.000e-08

    TCutPairs          =        1.000e-05
    TCutPNO            =        1.000e-07
    TCutPNOSingles     =        3.000e-09
    TCutMP2Pairs       =        1.000e-06
    TCutMKN            =        1.000e-02
    TCutDO             =        1.000e-02

Pair selection                          .... not used
Type of local MP2 treatment                 .... semi-local MP2
Strategy for PNO selection                  .... occupation number selection
Pair density normalization                  .... MP2 norm
Spin component scaling                      .... not used

   .... Finished loop over pairs
Making pair pair interaction lists          ... done

                       ===========================
                        290 OF  300 PAIRS ARE KEPT CCSD PAIRS
                         10 OF  300 PAIRS ARE KEPT MP2 PAIRS FOR (T)
                          0 OF  300 PAIRS ARE SKIPPED
                       ===========================

Total time spent in the initial guess                 ...     1.269 sec
SL-MP2 correlation energy (all non-screened pairs)    ...      -1.133365152321 Eh

Initial PNO correlation energy                        ...      -1.132650527630 Eh
sum of pair energies prescreened and skipped MP2 pairs...       0.000000000000 Eh
sum of pair energies of crude MP2 skipped pairs only  ...       0.000000000000 Eh
sum of MP2 pair energies for pairs that were not kept ...      -0.000067145379 Eh
sum of PNO error estimates for the kept pairs         ...      -0.000647479313 Eh
                                                          --------------------
sum of all corrections                                         -0.000714624691
Initial total correlation energy                               -1.133365152321
Thresholds for map construction and integral transformation for fine MP2 and CCSD(T) calculation:
   TCutMKN   ...     1.0e-03
   TCutDO    ...     5.0e-03
   TCutPairs ...     1.0e-05
   TCutCMO   ...     1.0e-03
   TCutCPAO  ...     1.0e-03

Thresholds for map construction and integral transformation for strong Triples:
   TCutMKN   ...     1.0e-02
   TCutDO    ...     1.0e-02
   TCutCMO   ...     1.0e-03
   TCutCPAO  ...     1.0e-03

Thresholds for map construction and integral transformation for weak Triples:
   TCutMKN   ...     1.0e-01
   TCutDO    ...     2.0e-02
   TCutCMO   ...     1.0e-03
   TCutCPAO  ...     1.0e-03

--------------------------------
LOCAL RI TRANSFORMATION (IAVPAO)
--------------------------------

Orbital window:       8 to 31
Number of PAOs:     187
Basis functions:    187 (93 shells)
Aux. functions:     658 (234 shells)

Processing maps (0.0 sec)
Average map sizes:
   Aux shells -> MOs              24.0
   Aux shells -> PAOs            187.0
   MOs        -> AO shells        88.8
   PAOs       -> AO shells        92.7

Calculating integrals (0.5 sec, 22.538 MB)
Sorting integrals (0.0 sec, 22.531 MB)
Total time for the integral transformation: 0.6 sec
--------------------------------
INITIAL GUESS AND PNO GENERATION
--------------------------------

PNO truncation parameters                   .... 
    ScaleTCutPNO       =        1.000e-02
    PAOOverlapThresh   =        1.000e-08

    TCutPairs          =        1.000e-05
    TCutPNO            =        1.000e-07
    TCutPNOSingles     =        3.000e-09
    TCutMP2Pairs       =        1.000e-06
    TCutMKN            =        1.000e-03
    TCutDO             =        5.000e-03

Pair selection                          .... not used
Type of local MP2 treatment                 .... full local PMP2
Strategy for PNO selection                  .... occupation number selection
Pair density normalization                  .... MP2 norm
Spin component scaling                      .... not used

PASS-1: Formation of initial guess LMP2 amplitudes
Initial amplitudes guess done. Entering LMP2 iteration loop:
   Max. no of iterations          ...  50
   Energy convergence tolerance   ...    1.0e-07
   Residual convergence tolerance ...    5.0e-07
   Fock matrix cutoff             ...    1.0e-05 Eh
   DIIS convergence acceleration parameters:
        Max # vectors in DIIS     ... 7
        Start iteration of DIIS   ... 0
        Levelshift                ... 2.000e-01
        Damping factor 1          ... 5.000e-01
        Damping factor 2          ... 1.000e+00
   L-MP2 PNO cut-off              ...   1.0e-09
   L-MP2 PNO cut-off (core)       ...   1.0e-11
                           *** Turning on DIIS ***
LMP2-Iter=   0:  ELMP2= -1.157903526403  DE=   2.4e-02 RMAX=   4.3e-03
LMP2-Iter=   1:  ELMP2= -1.169790305380  DE=   1.2e-02 RMAX=   1.9e-03
LMP2-Iter=   2:  ELMP2= -1.171564997896  DE=   1.8e-03 RMAX=   3.2e-04
LMP2-Iter=   3:  ELMP2= -1.171699820971  DE=   1.3e-04 RMAX=   1.1e-04
LMP2-Iter=   4:  ELMP2= -1.171703064890  DE=   3.2e-06 RMAX=   2.7e-05
LMP2-Iter=   5:  ELMP2= -1.171701617369  DE=   1.4e-06 RMAX=   9.2e-06
LMP2-Iter=   6:  ELMP2= -1.171701521104  DE=   9.6e-08 RMAX=   1.8e-06
LMP2-Iter=   7:  ELMP2= -1.171701529243  DE=   8.1e-09 RMAX=   5.0e-07
LMP2-Iter=   8:  ELMP2= -1.171701534481  DE=   5.2e-09 RMAX=   6.3e-08 => CONVERGED
PASS-2: Formation of Pair natural orbitals
   .... Finished loop over pairs

 PNO Occupation Number Statistics: 
  | Av. % of trace(Dij) retained        ...  99.496234668012
  | sigma^2 in % of trace(Dij) retained ...   4.23e-01
  | Av. % of trace(Di) retained         ...  99.999848047816
  | sigma^2 in % of trace(Di) retained  ...   2.77e-09
 Distributions of % trace(Dij) recovered:
  |       >= 99.9  ...   122 ( 40.7 % of all pairs)
  |   [90.0, 99.0) ...    57 ( 19.0 % of all pairs)
  |   [99.0, 99.9) ...   121 ( 40.3 % of all pairs)
 Distributions of % trace(Di) recovered :
  |       >= 99.9  ...    24 (100.0 % of all I-pairs )

Making pair pair interaction lists          ... done

                       ===========================
                        290 OF  300 PAIRS ARE KEPT
                       ===========================

Total time spent in the initial guess                 ...    10.542 sec
L-MP2 correlation energy (all non-screened pairs)     ...      -1.171701534481 Eh
L-MP2 PNO error correction                            ...      -0.000011781761 Eh
                                                          --------------------
Initial total L-MP2 energy (non-screened pairs)       ...      -1.171713316242 Eh

Initial PNO correlation energy                        ...      -1.171091035097 Eh
sum of pair energies estimated for screened out pairs ...       0.000000000000 Eh
sum of MP2 pair energies for pairs that were not kept ...      -0.000078321552 Eh
sum of PNO error estimates for the kept pairs         ...      -0.000586150581 Eh
                                                          --------------------
sum of all corrections                                         -0.000664472133
Initial total correlation energy                               -1.171755507230
Thresholds for map construction and integral transformation for fine MP2 and CCSD(T) calculation:
   TCutMKN   ...     1.0e-03
   TCutDO    ...     5.0e-03
   TCutPairs ...     1.0e-05
   TCutCMO   ...     1.0e-03
   TCutCPAO  ...     1.0e-03

Time for aux screen maps:            0.005
Time for maps after fine MP2:            0.016
-----------------------------
LOCAL RI TRANSFORMATION (IJV)
-----------------------------

Orbital window:       8 to 31
Basis functions:    187 (93 shells)
Aux. functions:     658 (234 shells)

Processing maps (0.0 sec)
Average map sizes:
   Aux shells -> MOs(i)           24.0
   Aux shells -> MOs(j)           24.0
   MOs        -> AO shells        88.8

Calculating integrals (0.5 sec, 2.899 MB)
Sorting integrals (0.0 sec, 2.892 MB)
Total time for the integral transformation: 0.5 sec
--------------------------------
LOCAL RI TRANSFORMATION (VABPAO)
--------------------------------

Number of PAOs:     187
Basis functions:    187 (93 shells)
Aux. functions:     658 (234 shells)

Processing maps (0.0 sec)
Average map sizes:
   Aux shells -> PAOs            187.0
   PAOs       -> AO shells        92.7

Calculating integrals (0.9 sec, 311.894 MB)
Finished


-------------------------------------
Pair Pair Term precalculation with     
RI-(ij|mn) and (im|jn) transformation  
ON THE FLY                             
-------------------------------------

   IBatch   1 (of   2)              ... done (   33.709 sec)
   IBatch   2 (of   2)              ... done (    8.187 sec)
Total EXT                           ...          41.896 sec

---------------------
RI-PNO TRANSFORMATION
---------------------

Total Number of PNOs                   ...  8028
Average number of PNOs per pair        ...    27
Maximal number of PNOs per pair        ...    45
   #pairs with  1 -  5 PNOs   :    0
   #pairs with  6 - 10 PNOs   :   16
   #pairs with 11 - 15 PNOs   :   30
   #pairs with 16 - 20 PNOs   :   21
   #pairs with 21 - 25 PNOs   :   53
   #pairs with 26 - 30 PNOs   :   41
   #pairs with 31 - 35 PNOs   :   47
   #pairs with 36 - 40 PNOs   :   69
   #pairs with 41 - 45 PNOs   :   13
   #pairs with 46 - 50 PNOs   :    0

Generation of (ij|ab)[P] integrals            ... on
Generation of (ia|bc)[P],(ja|bc)[P] integrals ... on
Storage of 3 and 4 external integrals         ... on
Generation of ALL (ka|bc)[P] integrals        ... on
Keep RI integrals in memory                   ... off

Ibatch:  1 (of  1)
Starting 2-4 index PNO integral generation ... done

Timings:
Total PNO integral transformation time     ...         11.238 sec
Size of the 3-external file                ...        65 MB
Size of the 4-external file                ...       297 MB
Size of the IKJL file                      ...         0 MB
Size of the all 3-external file            ...       790 MB
Size of the 1-external file                ...         4 MB

Making pair/pair overlap matrices          ... done (    2.387 sec)
Size of the pair overlap file              ... 323 MB
Redoing the guess amplitudes               ... done (    0.002 sec)

-------------------------
FINAL STARTUP INFORMATION
-------------------------

E(0)                                       ...   -328.273874205
E(L-MP2)                                   ...     -1.171713316
E(L-MP2) including corrections             ...     -1.171755507
Initial E(tot)                             ...   -329.445629712
<T|T>                                      ...      0.363405164
Number of pairs included                   ... 290
Total number of pairs                      ... 300

------------------------------------------------
                  RHF COUPLED CLUSTER ITERATIONS
------------------------------------------------

Number of PNO amplitudes to be optimized   ...       250304
Number of non-PNO amplitudes               ...      6967250
Untruncated number of regular amplitudes   ...      7207500

Iter       E(tot)           E(Corr)          Delta-E          Residual     Time
  0   -329.407560077     -1.133021400      0.038691916      0.020099704    6.02
                           *** Turning on DIIS ***
  1   -329.494298617     -1.219759940     -0.086738540      0.007563724    6.04
  2   -329.534563546     -1.260024869     -0.040264930      0.002282720    6.97
  3   -329.539788771     -1.265250094     -0.005225225      0.000810985    6.05
  4   -329.540887475     -1.266348798     -0.001098704      0.000586239    6.04
  5   -329.541071764     -1.266533088     -0.000184289      0.000235197    6.32
  6   -329.541116163     -1.266577486     -0.000044398      0.000144764    6.06
  7   -329.541124094     -1.266585417     -0.000007932      0.000060167    6.03
  8   -329.541126510     -1.266587834     -0.000002416      0.000021764    6.03
  9   -329.541126837     -1.266588160     -0.000000327      0.000005117    5.81
               --- The Coupled-Cluster iterations have converged ---

----------------------
COUPLED CLUSTER ENERGY
----------------------

E(0)                                       ...   -328.273874205
E(CORR)(strong-pairs)                      ...     -1.266588160
E(CORR)(weak-pairs)                        ...     -0.000664472
E(CORR)(corrected)                         ...     -1.267252632
E(TOT)                                     ...   -329.541126837
Singles Norm <S|S>**1/2                    ...      0.055224436  
T1 diagnostic                              ...      0.007970961  

------------------
LARGEST AMPLITUDES
------------------
  23-> 41  23-> 41       0.042747
  31-> 41  31-> 41       0.042695
  30-> 41  30-> 41       0.042695
  20-> 41  20-> 41       0.041264
  22-> 41  22-> 41       0.041263
  25-> 40  25-> 40       0.041109
  26-> 40  26-> 40       0.041108
  29-> 41  29-> 41       0.040592
  19-> 41  19-> 41       0.040156
  17-> 41  17-> 41       0.040156
  27-> 32  27-> 32       0.039191
  18-> 32  18-> 32       0.039190
  18-> 40  18-> 40       0.038997
  27-> 40  27-> 40       0.038996
  21-> 41  21-> 41       0.038026
  28-> 41  28-> 41       0.038026


-------------------------------------------
DLPNO BASED TRIPLES CORRECTION
-------------------------------------------

Singles multiplier          ...  1.000000
TCutTNO                     ... 1.000e-09
TCutMP2Pairs                ... 1.000e-06
TCutDOStrong                ... 1.000e-02
TCutMKNStrong               ... 1.000e-02
TCutDOWeak                  ... 2.000e-02
TCutMKNWeak                 ... 1.000e-01

Fragment selection                          .... not used
Number of Triples that are to be computed   ...      2535

 . . . . . . . . .
10% done  
20% done  
30% done  
40% done  
50% done  
60% done  
70% done  
80% done  
90% done               (     98.335 sec)
Triples timings:
Total time for T0               ...   106.213 sec
Total time for Iterative (T)    ...     0.000 sec
Total time of overall (T)       ...   107.334 sec

Triples List generation         ...     0.000 sec
TNO generation                  ...     7.873 sec
Pair density generation         ...     0.003 sec
Look up tables                  ...     0.000 sec
Generating 3-index integrals    ...    54.594 sec
  Make 4-ind.int. from 3-ind.int...    14.235 sec
  Projecting amplitudes (D + S) ...    12.627 sec
  Downprojecting integrals      ...     0.004 sec
  Energy contr. (sum over a,b,c)...     4.719 sec
Fitting ET(->0)                 ...     0.000 sec

Everything after 3-index        ...    43.740 sec

Timing details:
 TNO integrals                  ...    66.943 sec
   Reading 3-index integrals    ...     0.060 sec
   Sorting integrals            ...    10.316 sec
       Sorting integrals 1      ...     0.002 sec
       Sorting integrals 2      ...     4.713 sec
       Sorting integrals 3      ...     0.477 sec
       Sorting integrals 4      ...     0.067 sec
       Sorting integrals 5      ...     0.170 sec
       Sorting integrals 6      ...     4.887 sec
   Calculating local VM**-1/2   ...     0.588 sec
   Orthogonal. integrals        ...     0.962 sec
   Multipl. 3-index integrals   ...    55.017 sec
   All concerning IRIab (w/TNO) ...     7.181 sec

 Calculate W0/W1                ...    12.138 sec
 W 3-ext contribution           ...     6.398 sec
 W 3-int contribution           ...     2.444 sec
 Sorting W                      ...     3.055 sec

 V exchange contribution        ...     1.858 sec

 Timings for Triples without generation
     of 3-index integrals       ...    43.732 sec
       0 weak pairs             ...    42.149 sec
       1 weak pair              ...     1.583 sec
       2 weak pairs             ...     0.000 sec
       3 weak pairs             ...     0.000 sec
  Extra time for extrapolation  ...     0.000 sec

Number of Triples   (0, 1, 2, 3 weak pairs; overall):   2357     178       0       0  (  2535)
Number of Atoms     (0, 1, 2, 3 weak pairs; overall):   21.4    19.2     0.0     0.0  (    23)
Number of PAOs      (0, 1, 2, 3 weak pairs; overall):  176.7   166.9     0.0     0.0  (   187)
Number of AuxFcns   (0, 1, 2, 3 weak pairs; overall):  272.5   227.1     0.0     0.0  (   658)
Number of TNOs      (0, 1, 2, 3 weak pairs         ):   66.7    50.0     0.0     0.0
Aver. Number of NTNO, Atoms, PAOs, AuxFcns / Triples:   2535    65.5    21.2   176.0   269.4

Triples Correction (T)                     ...     -0.039026691
Final correlation energy                   ...     -1.306279324
E(CCSD)                                    ...   -329.541126837
E(CCSD(T))                                 ...   -329.580153529


Maximum memory used throughout the entire calculation: 7907.2 MB


------------------------------------------------------------------------------- 
                                     TIMINGS                                   
------------------------------------------------------------------------------- 


Total execution time                   ...      242.429 sec

Localization of occupied MO's          ...        0.461 sec (  0.2%)
Fock Matrix Formation                  ...        2.087 sec (  0.9%)
Global overlap, Fock, MKN matrices     ...        0.190 sec (  0.1%)
Differential overlap integrals         ...        0.181 sec (  0.1%)
Organizing maps                        ...        0.048 sec (  0.0%)
RI 3-index integral generations        ...        2.519 sec (  1.0%)
RI-PNO integral transformation         ...       55.887 sec ( 23.1%)
Initial Guess                          ...       11.833 sec (  4.9%)
DIIS Solver                            ...        0.884 sec (  0.4%)
State Vector Update                    ...        0.019 sec (  0.0%)
Sigma-vector construction              ...       61.180 sec ( 25.2%)
  <D|H|D>(0-ext)                       ...        4.738 sec (  7.7% of sigma)
  <D|H|D>(2-ext Fock)                  ...        0.019 sec (  0.0% of sigma)
  <D|H|D>(2-ext)                       ...       11.082 sec ( 18.1% of sigma)
  <D|H|D>(4-ext)                       ...        3.658 sec (  6.0% of sigma)
  <D|H|D>(4-ext-corr)                  ...       21.425 sec ( 35.0% of sigma)
  CCSD doubles correction              ...        0.348 sec (  0.6% of sigma)
  <S|H|S>                              ...        0.506 sec (  0.8% of sigma)
  <S|H|D>(1-ext)                       ...        0.518 sec (  0.8% of sigma)
  <D|H|S>(1-ext)                       ...        0.019 sec (  0.0% of sigma)
  <S|H|D>(3-ext)                       ...        0.261 sec (  0.4% of sigma)
  Fock-dressing                        ...       11.892 sec ( 19.4% of sigma)
  Singles amplitudes                   ...        0.406 sec (  0.7% of sigma)
  (ik|jl)-dressing                     ...        3.398 sec (  5.6% of sigma)
  (ij|ab),(ia|jb)-dressing             ...        2.702 sec (  4.4% of sigma)
  Pair energies                        ...        0.007 sec (  0.0% of sigma)
Total Time for computing (T)           ...      107.447 sec ( 44.3% of ALL)


-------------------------   --------------------
FINAL SINGLE POINT ENERGY      -329.580153528566
-------------------------   --------------------


                            ***************************************
                            *     ORCA property calculations      *
                            ***************************************

                                    ---------------------
                                    Active property flags
                                    ---------------------
   (+) Dipole Moment


------------------------------------------------------------------------------
                       ORCA ELECTRIC PROPERTIES CALCULATION
------------------------------------------------------------------------------

Dipole Moment Calculation                       ... on
Quadrupole Moment Calculation                   ... off
Polarizability Calculation                      ... off
GBWName                                         ... N_4_dimethylpiperidine_eq_ax.gbw
Electron density file                           ... N_4_dimethylpiperidine_eq_ax.scfp.tmp
The origin for moment calculation is the CENTER OF MASS  = ( 0.014491,  0.000000 -0.039681)

-------------
DIPOLE MOMENT
-------------
                                X             Y             Z
Electronic contribution:      0.87183       0.00009      -2.35792
Nuclear contribution   :     -0.92736      -0.00009       2.53958
                        -----------------------------------------
Total Dipole Moment    :     -0.05553       0.00000       0.18166
                        -----------------------------------------
Magnitude (a.u.)       :      0.18995
Magnitude (Debye)      :      0.48283



--------------------
Rotational spectrum 
--------------------
 
Rotational constants in cm-1:     0.115453     0.050957     0.043546 
Rotational constants in MHz :  3461.208328  1527.647131  1305.485233 

 Dipole components along the rotational axes: 
x,y,z [a.u.] :     0.055956     0.000001     0.181526 
x,y,z [Debye]:     0.142228     0.000004     0.461403 

 

Timings for individual modules:

Sum of individual times         ...      253.199 sec (=   4.220 min)
GTO integral calculation        ...        0.552 sec (=   0.009 min)   0.2 %
SCF iterations                  ...       10.012 sec (=   0.167 min)   4.0 %
MDCI module                     ...      242.635 sec (=   4.044 min)  95.8 %
                             ****ORCA TERMINATED NORMALLY****
TOTAL RUN TIME: 0 days 0 hours 4 minutes 13 seconds 436 msec
N_4_dimethylpiperidine_eq_ax.gbw -> /home1/pantazis/klk/VDZ/Nitrogen_compounds/N_4_dimethylpiperidine_eq_ax.gbw
N_4_dimethylpiperidine_eq_ax.ges -> /home1/pantazis/klk/VDZ/Nitrogen_compounds/N_4_dimethylpiperidine_eq_ax.ges
N_4_dimethylpiperidine_eq_ax.job -> /home1/pantazis/klk/VDZ/Nitrogen_compounds/N_4_dimethylpiperidine_eq_ax.job
N_4_dimethylpiperidine_eq_ax.loc -> /home1/pantazis/klk/VDZ/Nitrogen_compounds/N_4_dimethylpiperidine_eq_ax.loc
N_4_dimethylpiperidine_eq_ax.nodes -> /home1/pantazis/klk/VDZ/Nitrogen_compounds/N_4_dimethylpiperidine_eq_ax.nodes
N_4_dimethylpiperidine_eq_ax.prop -> /home1/pantazis/klk/VDZ/Nitrogen_compounds/N_4_dimethylpiperidine_eq_ax.prop
N_4_dimethylpiperidine_eq_ax_property.txt -> /home1/pantazis/klk/VDZ/Nitrogen_compounds/N_4_dimethylpiperidine_eq_ax_property.txt
N_4_dimethylpiperidine_eq_ax.xyz -> /home1/pantazis/klk/VDZ/Nitrogen_compounds/N_4_dimethylpiperidine_eq_ax.xyz
cp: cannot stat N_4_dimethylpiperidine_eq_ax.asa.inp: No such file or directory
