! Job execution by suborca V 6.07 on ZEUS !
Job started from zeus1, running /scratch/pantazis/N_4_dimethylpiperidine_eq_eq__MxonvZ/orca/orca copied from /opt/orca on zeussn143 in /scratch/pantazis/N_4_dimethylpiperidine_eq_eq__MxonvZ
Job execution start: Sat Jun 29 11:27:41 CEST 2019
Shared library path: /scratch/pantazis/N_4_dimethylpiperidine_eq_eq__MxonvZ/orca:/opt/openmpi_1.10.2/lib:/opt/intel/mkl/lib/intel64:/opt/intel/lib/intel64:
PBS Job ID is: 158841.icqc
izeussn143
izeussn143
izeussn143
izeussn143

                                 *****************
                                 * O   R   C   A *
                                 *****************

           --- An Ab Initio, DFT and Semiempirical electronic structure package ---

                  #######################################################
                  #                        -***-                        #
                  #          Department of theory and spectroscopy      #
                  #               Directorship: Frank Neese             #
                  #        Max Planck Institute fuer Kohlenforschung    #
                  #                Kaiser Wilhelm Platz 1               #
                  #                 D-45470 Muelheim/Ruhr               #
                  #                      Germany                        #
                  #                                                     #
                  #                  All rights reserved                #
                  #                        -***-                        #
                  #######################################################


                         Program Version 4.1.x  -  STABLE  -
                                (SVN: $Rev: 14094$)
                ($Date: 2019-06-14 15:01:15 +0200 (Fri, 14 Jun 2019) $)

                         (BUILD: $Sun Jun 23 06:18:31 CEST 2019$)


 With contributions from (in alphabetic order):
   Daniel Aravena         : Magnetic Properties
   Michael Atanasov       : Ab Initio Ligand Field Theory
   Alexander A. Auer      : GIAO ZORA
   Ute Becker             : Parallelization
   Giovanni Bistoni       : ED, Open-shell LED
   Martin Brehm           : Molecular dynamics
   Dmytro Bykov           : SCF Hessian
   Vijay G. Chilkuri      : MRCI spin determinant printing
   Dipayan Datta          : RHF DLPNO-CCSD density
   Achintya Kumar Dutta   : EOM-CC, STEOM-CC
   Dmitry Ganyushin       : Spin-Orbit,Spin-Spin,Magnetic field MRCI
   Miquel Garcia          : C-PCM Hessian
   Yang Guo               : DLPNO-NEVPT2, CIM, IAO-localization
   Andreas Hansen         : Spin unrestricted coupled pair/coupled cluster methods
   Benjamin Helmich-Paris : CASSCF linear response (MC-RPA)
   Lee Huntington         : MR-EOM, pCC
   Robert Izsak           : Overlap fitted RIJCOSX, COSX-SCS-MP3, EOM
   Christian Kollmar      : KDIIS, OOCD, Brueckner-CCSD(T), CCSD density
   Simone Kossmann        : Meta GGA functionals, TD-DFT gradient, OOMP2, MP2 Hessian
   Martin Krupicka        : AUTO-CI
   Lucas Lang             : DCDCAS
   Dagmar Lenk            : GEPOL surface, SMD
   Dimitrios Liakos       : Extrapolation schemes; parallel MDCI
   Dimitrios Manganas     : ROCIS; embedding schemes
   Dimitrios Pantazis     : SARC Basis sets
   Taras Petrenko         : DFT Hessian,TD-DFT gradient, ASA, ECA, R-Raman, ABS, FL, XAS/XES, NRVS
   Peter Pinski           : DLPNO-MP2, DLPNO-MP2 Gradient
   Christoph Reimann      : Effective Core Potentials
   Marius Retegan         : Local ZFS, SOC
   Christoph Riplinger    : Optimizer, TS searches, QM/MM, DLPNO-CCSD(T), (RO)-DLPNO pert. Triples
   Tobias Risthaus        : Range-separated hybrids, TD-DFT gradient, RPA, STAB
   Michael Roemelt        : Restricted open shell CIS
   Masaaki Saitow         : Open-shell DLPNO
   Barbara Sandhoefer     : DKH picture change effects
   Avijit Sen             : IP-ROCIS
   Kantharuban Sivalingam : CASSCF convergence, NEVPT2, FIC-MRCI
   Bernardo de Souza      : ESD, SOC TD-DFT
   Georgi Stoychev        : AutoAux, RI-MP2 NMR
   Willem Van den Heuvel  : Paramagnetic NMR
   Boris Wezisla          : Elementary symmetry handling
   Frank Wennmohs         : Technical directorship


 We gratefully acknowledge several colleagues who have allowed us to
 interface, adapt or use parts of their codes:
   Stefan Grimme, W. Hujo, H. Kruse,             : VdW corrections, initial TS optimization,
                  C. Bannwarth                     DFT functionals, gCP, sTDA/sTD-DF
   Ed Valeev                                     : LibInt (2-el integral package), F12 methods
   Garnet Chan, S. Sharma, J. Yang, R. Olivares  : DMRG
   Ulf Ekstrom                                   : XCFun DFT Library
   Mihaly Kallay                                 : mrcc  (arbitrary order and MRCC methods)
   Andreas Klamt, Michael Diedenhofen            : otool_cosmo (COSMO solvation model)
   Jiri Pittner, Ondrej Demel                    : Mk-CCSD
   Frank Weinhold                                : gennbo (NPA and NBO analysis)
   Christopher J. Cramer and Donald G. Truhlar   : smd solvation model
   Lars Goerigk                                  : TD-DFT with DH, B97 family of functionals
   V. Asgeirsson, H. Jonsson                     : NEB implementation
   FAccTs GmbH                                   : IRC, NEB, NEB-TS, Multilevel


 Your calculation uses the libint2 library for the computation of 2-el integrals
 For citations please refer to: http://libint.valeyev.net

 This ORCA versions uses:
   CBLAS   interface :  Fast vector & matrix operations
   LAPACKE interface :  Fast linear algebra routines
   SCALAPACK package :  Parallel linear algebra routines




***************************************
The coordinates will be read from file: N_4_dimethylpiperidine_eq_eq.xyz
***************************************


----- Orbital basis set information -----
Your calculation utilizes the basis: cc-pVDZ 
       H, B-Ne : Obtained from the ccRepo (grant-hill.group.shef.ac.uk/ccrepo) Feb. 2017
                 T. H. Dunning, Jr., J. Chem. Phys. 90, 1007 (1989)
            He : Obtained from the ccRepo (grant-hill.group.shef.ac.uk/ccrepo) Feb. 2017
                 D. E. Woon, T. H. Dunning, Jr., J. Chem. Phys. 100, 2975 (1994)
  Li-Be, Na-Mg : Obtained from the ccRepo (grant-hill.group.shef.ac.uk/ccrepo) Feb. 2017
                 B. P. Prascher, D. E. Woon, K. A. Peterson, T. H. Dunning, Jr., A. K. Wilson, Theor. Chem. Acc. 128, 69 (2011)
         Al-Ar : Obtained from the ccRepo (grant-hill.group.shef.ac.uk/ccrepo) Feb. 2017
                 D. E. Woon, T. H. Dunning, Jr., J. Chem. Phys. 98, 1358 (1993)
            Ca : Obtained from the Peterson Research Group Website (tyr0.chem.wsu.edu/~kipeters) Feb. 2017
                 J. Koput, K. A. Peterson, J. Phys. Chem. 106, 9595 (2002)
         Sc-Zn : Obtained from the ccRepo (grant-hill.group.shef.ac.uk/ccrepo) Feb. 2017
                 N. B. Balabanov, K. A. Peterson, J. Chem. Phys. 123, 064107 (2005)
                 N. B. Balabanov, K. A. Peterson, J. Chem. Phys. 125, 074110 (2006)
         Ga-Kr : Obtained from the ccRepo (grant-hill.group.shef.ac.uk/ccrepo) Feb. 2017
                 A. K. Wilson, D. E. Woon, K. A. Peterson, T. H. Dunning, Jr., J. Chem. Phys. 110, 7667 (1999)

----- AuxC basis set information -----
Your calculation utilizes the auxiliary basis: cc-pVDZ/C 
  H-He, B, Ne, Al-Ar, Ga-Br : Obtained from the EMSL Basis Set Exchange (bse.pnl.gov) Feb. 2017
                              F. Weigend, A. Kohn, C. Hattig, J. Chem. Phys. 116, 3175 (2002)
               Li-Be, Na-Mg : Obtained from the EMSL Basis Set Exchange (bse.pnl.gov) Feb. 2017
                              C. Haettig, Phys. Chem. Chem. Phys. 7, 59 (2005)
                        C-F : Obtained from the EMSL Basis Set Exchange (bse.pnl.gov) Feb. 2017
                              C. Haettig, Phys. Chem. Chem. Phys. 7, 59 (2005)
                              F. Weigend, A. Kohn, C. Hattig, J. Chem. Phys. 116, 3175 (2002)
                         Kr : Obtained from the TURBOMOLE 7.0 basis set library
                              F. Weigend, A. Kohn, C. Hattig, J. Chem. Phys. 116, 3175 (2002)
                              S function revised in Sep. 2009

----- AuxJK basis set information -----
Your calculation utilizes the auxiliary basis: cc-pVTZ/JK 
  H, B-F, Al-Cl, Ga-Br : Obtained from the TURBOMOLE 7.0 basis set library

================================================================================
                                        WARNINGS
                       Please study these warnings very carefully!
================================================================================


WARNING: MDCI localization with Augmented Hessian Foster-Boys
  ===> : Switching off randomization!

WARNING: Post HF methods need fully converged wavefunctions
  ===> : Setting SCFConvForced true
         You can overwrite this default with %scf ConvForced false 


INFO   : the flag for use of LIBINT has been found!

================================================================================
                                       INPUT FILE
================================================================================
NAME = N_4_dimethylpiperidine_eq_eq.inp
|  1> ! RHF DLPNO-CCSD(T) cc-pVDZ RIJK cc-pVTZ/JK cc-pVDZ/C
|  2> ! KDIIS SOSCF TightSCF TightPNO
|  3> 
|  4> %pal nprocs 4 end
|  5> 
|  6> %maxcore 8000
|  7> 
|  8> %scf maxiter 300
|  9>      shift shift 0.2 erroff 0.1 end
| 10> end
| 11> 
| 12> * xyzfile 0 1 N_4_dimethylpiperidine_eq_eq.xyz 
| 13> 
| 14> 
| 15>                          ****END OF INPUT****
================================================================================

                       ****************************
                       * Single Point Calculation *
                       ****************************

---------------------------------
CARTESIAN COORDINATES (ANGSTROEM)
---------------------------------
  C     -1.459170    0.000010    0.325960
  C     -0.715430    1.252360   -0.166970
  C      0.771020    1.209470    0.198920
  N      1.411680   -0.000010   -0.318970
  C      0.770980   -1.209470    0.198930
  C     -0.715460   -1.252330   -0.166980
  C      2.846600   -0.000020   -0.075490
  C     -2.933090   -0.000000   -0.094410
  H      1.288300    2.078640   -0.223580
  H      0.881030   -1.273720    1.303470
  H      1.288250   -2.078660   -0.223540
  H     -0.810150    1.324450   -1.259040
  H     -1.168630   -2.156670    0.259280
  H     -0.810160   -1.324440   -1.259050
  H     -1.418430    0.000020    1.427140
  H      3.102330    0.000000    1.003430
  H      3.300070   -0.886360   -0.531040
  H      3.300090    0.886300   -0.531070
  H      0.881080    1.273750    1.303450
  H     -1.168570    2.156720    0.259280
  H     -3.029000   -0.000020   -1.187380
  H     -3.455330   -0.885710    0.285880
  H     -3.455340    0.885710    0.285850

----------------------------
CARTESIAN COORDINATES (A.U.)
----------------------------
  NO LB      ZA    FRAG     MASS         X           Y           Z
   0 C     6.0000    0    12.011   -2.757432    0.000019    0.615975
   1 C     6.0000    0    12.011   -1.351967    2.366617   -0.315528
   2 C     6.0000    0    12.011    1.457017    2.285567    0.375904
   3 N     7.0000    0    14.007    2.667689   -0.000019   -0.602766
   4 C     6.0000    0    12.011    1.456941   -2.285567    0.375923
   5 C     6.0000    0    12.011   -1.352023   -2.366561   -0.315546
   6 C     6.0000    0    12.011    5.379294   -0.000038   -0.142655
   7 C     6.0000    0    12.011   -5.542737   -0.000000   -0.178409
   8 H     1.0000    0     1.008    2.434534    3.928060   -0.422505
   9 H     1.0000    0     1.008    1.664905   -2.406982    2.463201
  10 H     1.0000    0     1.008    2.434440   -3.928098   -0.422429
  11 H     1.0000    0     1.008   -1.530962    2.502848   -2.379241
  12 H     1.0000    0     1.008   -2.208391   -4.075516    0.489968
  13 H     1.0000    0     1.008   -1.530981   -2.502829   -2.379260
  14 H     1.0000    0     1.008   -2.680444    0.000038    2.696904
  15 H     1.0000    0     1.008    5.862554    0.000000    1.896208
  16 H     1.0000    0     1.008    6.236229   -1.674978   -1.003520
  17 H     1.0000    0     1.008    6.236266    1.674864   -1.003577
  18 H     1.0000    0     1.008    1.665000    2.407039    2.463164
  19 H     1.0000    0     1.008   -2.208277    4.075610    0.489968
  20 H     1.0000    0     1.008   -5.723980   -0.000038   -2.243823
  21 H     1.0000    0     1.008   -6.529627   -1.673749    0.540235
  22 H     1.0000    0     1.008   -6.529646    1.673749    0.540178

--------------------------------
INTERNAL COORDINATES (ANGSTROEM)
--------------------------------
 C      0   0   0     0.000000000000     0.00000000     0.00000000
 C      1   0   0     1.537696229754     0.00000000     0.00000000
 C      2   1   0     1.531420466985   111.71988275     0.00000000
 N      3   2   1     1.463385512468   111.31716842    56.11888975
 C      4   3   2     1.463390033996   111.47894729   301.30047804
 C      5   4   3     1.531414699322   111.31723548    58.70058872
 C      4   3   2     1.455430491951   111.86526583   175.20298493
 C      1   2   3     1.532694067125   112.16090537   182.80082406
 H      3   2   1     1.096148410253   110.10561308   176.11183359
 H      5   4   3     1.111866753078   110.85453024   296.70764799
 H      5   4   3     1.096147987226   108.20092039   179.81489888
 H      2   1   3     1.098537997249   109.29418348   120.52272671
 H      6   5   4     1.097675485788   109.32902865   181.51131469
 H      6   5   4     1.098537585611   108.84688126    64.66490183
 H      1   2   3     1.101933364637   107.60514025    64.11520461
 H      7   4   3     1.108812968764   112.96473480    62.94197954
 H      7   4   3     1.094878732554   109.79996590   183.58219101
 H      7   4   3     1.094883308348   109.80001984   302.30234861
 H      3   2   1     1.111859542793   109.37857199   293.27403036
 H      2   1   3     1.097675695140   110.29477583   238.18481160
 H      8   1   2     1.097170064028   110.93339518    61.57014321
 H      8   1   2     1.096283405785   111.28269869   181.45150771
 H      8   1   2     1.096277763252   111.28316620   301.68824298

---------------------------
INTERNAL COORDINATES (A.U.)
---------------------------
 C      0   0   0     0.000000000000     0.00000000     0.00000000
 C      1   0   0     2.905824751399     0.00000000     0.00000000
 C      2   1   0     2.893965278483   111.71988275     0.00000000
 N      3   2   1     2.765397846912   111.31716842    56.11888975
 C      4   3   2     2.765406391363   111.47894729   301.30047804
 C      5   4   3     2.893954379180   111.31723548    58.70058872
 C      4   3   2     2.750365036745   111.86526583   175.20298493
 C      1   2   3     2.896372033952   112.16090537   182.80082406
 H      3   2   1     2.071420297511   110.10561308   176.11183359
 H      5   4   3     2.101123660729   110.85453024   296.70764799
 H      5   4   3     2.071419498106   108.20092039   179.81489888
 H      2   1   3     2.075935962507   109.29418348   120.52272671
 H      6   5   4     2.074306052058   109.32902865   181.51131469
 H      6   5   4     2.075935184624   108.84688126    64.66490183
 H      1   2   3     2.082352276994   107.60514025    64.11520461
 H      7   4   3     2.095352844705   112.96473480    62.94197954
 H      7   4   3     2.069020954383   109.79996590   183.58219101
 H      7   4   3     2.069029601380   109.80001984   302.30234861
 H      3   2   1     2.101110035266   109.37857199   293.27403036
 H      2   1   3     2.074306447675   110.29477583   238.18481160
 H      8   1   2     2.073350943350   110.93339518    61.57014321
 H      8   1   2     2.071675402096   111.28269869   181.45150771
 H      8   1   2     2.071664739253   111.28316620   301.68824298

---------------------
BASIS SET INFORMATION
---------------------
There are 3 groups of distinct atoms

 Group   1 Type C   : 17s4p1d contracted to 3s2p1d pattern {881/31/1}
 Group   2 Type N   : 17s4p1d contracted to 3s2p1d pattern {881/31/1}
 Group   3 Type H   : 4s1p contracted to 2s1p pattern {31/1}

Atom   0C    basis set group =>   1
Atom   1C    basis set group =>   1
Atom   2C    basis set group =>   1
Atom   3N    basis set group =>   2
Atom   4C    basis set group =>   1
Atom   5C    basis set group =>   1
Atom   6C    basis set group =>   1
Atom   7C    basis set group =>   1
Atom   8H    basis set group =>   3
Atom   9H    basis set group =>   3
Atom  10H    basis set group =>   3
Atom  11H    basis set group =>   3
Atom  12H    basis set group =>   3
Atom  13H    basis set group =>   3
Atom  14H    basis set group =>   3
Atom  15H    basis set group =>   3
Atom  16H    basis set group =>   3
Atom  17H    basis set group =>   3
Atom  18H    basis set group =>   3
Atom  19H    basis set group =>   3
Atom  20H    basis set group =>   3
Atom  21H    basis set group =>   3
Atom  22H    basis set group =>   3
-------------------------------
AUXILIARY BASIS SET INFORMATION
-------------------------------
There are 3 groups of distinct atoms

 Group   1 Type C   : 7s5p4d2f contracted to 7s5p4d2f pattern {1111111/11111/1111/11}
 Group   2 Type N   : 7s5p4d2f contracted to 7s5p4d2f pattern {1111111/11111/1111/11}
 Group   3 Type H   : 3s2p1d contracted to 3s2p1d pattern {111/11/1}

Atom   0C    basis set group =>   1
Atom   1C    basis set group =>   1
Atom   2C    basis set group =>   1
Atom   3N    basis set group =>   2
Atom   4C    basis set group =>   1
Atom   5C    basis set group =>   1
Atom   6C    basis set group =>   1
Atom   7C    basis set group =>   1
Atom   8H    basis set group =>   3
Atom   9H    basis set group =>   3
Atom  10H    basis set group =>   3
Atom  11H    basis set group =>   3
Atom  12H    basis set group =>   3
Atom  13H    basis set group =>   3
Atom  14H    basis set group =>   3
Atom  15H    basis set group =>   3
Atom  16H    basis set group =>   3
Atom  17H    basis set group =>   3
Atom  18H    basis set group =>   3
Atom  19H    basis set group =>   3
Atom  20H    basis set group =>   3
Atom  21H    basis set group =>   3
Atom  22H    basis set group =>   3
-------------------------------
AUXILIARY BASIS SET INFORMATION
-------------------------------
There are 3 groups of distinct atoms

 Group   1 Type C   : 10s7p5d2f1g contracted to 10s7p5d2f1g pattern {1111111111/1111111/11111/11/1}
 Group   2 Type N   : 10s7p5d2f1g contracted to 10s7p5d2f1g pattern {1111111111/1111111/11111/11/1}
 Group   3 Type H   : 4s3p2d1f contracted to 4s3p2d1f pattern {1111/111/11/1}

Atom   0C    basis set group =>   1
Atom   1C    basis set group =>   1
Atom   2C    basis set group =>   1
Atom   3N    basis set group =>   2
Atom   4C    basis set group =>   1
Atom   5C    basis set group =>   1
Atom   6C    basis set group =>   1
Atom   7C    basis set group =>   1
Atom   8H    basis set group =>   3
Atom   9H    basis set group =>   3
Atom  10H    basis set group =>   3
Atom  11H    basis set group =>   3
Atom  12H    basis set group =>   3
Atom  13H    basis set group =>   3
Atom  14H    basis set group =>   3
Atom  15H    basis set group =>   3
Atom  16H    basis set group =>   3
Atom  17H    basis set group =>   3
Atom  18H    basis set group =>   3
Atom  19H    basis set group =>   3
Atom  20H    basis set group =>   3
Atom  21H    basis set group =>   3
Atom  22H    basis set group =>   3

Checking for AutoStart:
The File: N_4_dimethylpiperidine_eq_eq.gbw exists
Trying to determine its content:
     ... Fine, the file contains calculation information
     ... Fine, the calculation information was read
     ... Fine, the file contains a basis set
     ... Fine, the basis set was read
     ... Fine, the file contains a geometry
     ... Fine, the geometry was read
     ... Fine, the file contains a set of orbitals
     ... Fine, the orbitals can be read
     => possible old guess file was deleted
     => GBW file was renamed to GES file
     => GES file is set as startup file
     => Guess is set to MORead
     ... now leaving AutoStart



           ************************************************************
           *        Program running with 4 parallel MPI-processes     *
           *              working on a common directory               *
           ************************************************************
------------------------------------------------------------------------------
                           ORCA GTO INTEGRAL CALCULATION
                           -- RI-GTO INTEGRALS CHOSEN --
------------------------------------------------------------------------------

                         BASIS SET STATISTICS AND STARTUP INFO

Gaussian basis set:
 # of primitive gaussian shells          ...  251
 # of primitive gaussian functions       ...  377
 # of contracted shells                  ...   93
 # of contracted basis functions         ...  187
 Highest angular momentum                ...    2
 Maximum contraction depth               ...    8
Auxiliary gaussian basis set:
 # of primitive gaussian shells          ...  350
 # of primitive gaussian functions       ... 1082
 # of contracted shells                  ...  350
 # of contracted aux-basis functions     ... 1082
 Highest angular momentum                ...    4
 Maximum contraction depth               ...    1
Ratio of auxiliary to basis functions    ...  5.79
Integral package used                  ... LIBINT
 One Electron integrals                  ... done
 Ordering auxiliary basis shells         ... done
 Integral threshhold             Thresh  ...  2.500e-11
 Primitive cut-off               TCut    ...  2.500e-12
 Pre-screening matrix                    ... done
 Shell pair data                         ... 
 Ordering of the shell pairs             ... done (   0.001 sec) 4244 of 4371 pairs
 Determination of significant pairs      ... done (   0.000 sec)
 Creation of shell pair data             ... done (   0.002 sec)
 Storage of shell pair data              ... done (   0.002 sec)
 Shell pair data done in (   0.004 sec)
 Computing two index integrals           ... done
 Cholesky decomposition of the V-matrix  ... done


Timings:
 Total evaluation time                   ...   0.596 sec (  0.010 min)
 One electron matrix time                ...   0.070 sec (  0.001 min) = 11.8%
 Schwartz matrix evaluation time         ...   0.226 sec (  0.004 min) = 37.9%
 Two index repulsion integral time       ...   0.114 sec (  0.002 min) = 19.2%
 Cholesky decomposition of V             ...   0.153 sec (  0.003 min) = 25.6%
 Three index repulsion integral time     ...   0.000 sec (  0.000 min) =  0.0%



           ************************************************************
           *        Program running with 4 parallel MPI-processes     *
           *              working on a common directory               *
           ************************************************************
-------------------------------------------------------------------------------
                                 ORCA SCF
-------------------------------------------------------------------------------

------------
SCF SETTINGS
------------
Hamiltonian:
 Ab initio Hamiltonian  Method          .... Hartree-Fock(GTOs)
 RI-approximation to the Coulomb term is turned on
   Number of auxiliary basis functions  .... 1082
   RI-JK (J+K treated both via RI)      .... on


General Settings:
 Integral files         IntName         .... N_4_dimethylpiperidine_eq_eq
 Hartree-Fock type      HFTyp           .... RHF
 Total Charge           Charge          ....    0
 Multiplicity           Mult            ....    1
 Number of Electrons    NEL             ....   64
 Basis Dimension        Dim             ....  187
 Nuclear Repulsion      ENuc            ....    411.5882980435 Eh

Convergence Acceleration:
 DIIS                   CNVDIIS         .... off
 Newton-Raphson         CNVNR           .... off
 SOSCF                  CNVSOSCF        .... on
   Start iteration      SOSCFMaxIt      ....   150
   Startup grad/error   SOSCFStart      ....  0.003300
 Level Shifting         CNVShift        .... on
   Level shift para.    LevelShift      ....    0.2000
   Turn off err/grad.   ShiftErr        ....    0.1000
 Zerner damping         CNVZerner       .... off
 Static damping         CNVDamp         .... off
 Fernandez-Rico         CNVRico         .... off

SCF Procedure:
 Maximum # iterations   MaxIter         ....   300
 SCF integral mode      SCFMode         .... Direct
   Integral package                     .... LIBINT
 Reset frequency        DirectResetFreq ....    20
 Integral Threshold     Thresh          ....  2.500e-11 Eh
 Primitive CutOff       TCut            ....  2.500e-12 Eh

Convergence Tolerance:
 Convergence Check Mode ConvCheckMode   .... Total+1el-Energy
 Convergence forced     ConvForced      .... 1
 Energy Change          TolE            ....  1.000e-08 Eh
 1-El. energy change                    ....  1.000e-05 Eh
 Orbital Gradient       TolG            ....  1.000e-05
 Orbital Rotation angle TolX            ....  1.000e-05


Diagonalization of the overlap matrix:
Smallest eigenvalue                        ... 2.390e-03
Time for diagonalization                   ...    0.015 sec
Threshold for overlap eigenvalues          ... 1.000e-08
Number of eigenvalues below threshold      ... 0
Time for construction of square roots      ...    0.024 sec
Total time needed                          ...    0.039 sec

---------------------
INITIAL GUESS: MOREAD
---------------------
Guess MOs are being read from file: N_4_dimethylpiperidine_eq_eq.ges
Input Geometry matches current geometry (good)
Atom 0: N(Shells)= 6 and 10 - projection required
Input basis set needs projection
NBasis(read)= 450
NBasis(calc)= 187
Basis set overlap was calculated
Using GuessMode=FMatrix for the initial guess
C*T matrix was formed
Effective Fockian was calculated
Effective Fockian was diagonalized
Initial density was built
                      ------------------
                      INITIAL GUESS DONE (   0.1 sec)
                      ------------------
--------------
SCF ITERATIONS
--------------
ITER       Energy         Delta-E        Max-DP      RMS-DP      [F,P]   Gradient Norm
                             ****Turning on KDIIS(Cayley)****
  0   -328.2771525865   0.000000000000 0.00249422  0.00005758  0.0051629   0.005512441
  1   -328.2772896536  -0.000137067195 0.00461159  0.00011054  0.0046745   0.005009441
  2   -328.2775242979  -0.000234644233 0.00709551  0.00017773  0.0037442   0.004025911
                      *** Initiating the SOSCF procedure ***
                           *** Shutting down KDIIS ***
                      *** Re-Reading the Fockian *** 
                      *** Removing any level shift *** 
ITER      Energy       Delta-E        Grad      Rot      Max-DP    RMS-DP
  3   -328.27779988  -0.0002755817  0.002244  0.002244  0.010090  0.000266
  4   -328.27795628  -0.0001564005  0.000013  0.000024  0.000038  0.000001
  5   -328.27795629  -0.0000000080  0.000008  0.000019  0.000033  0.000001
                  ***Gradient check signals convergence***
              ***Rediagonalizing the Fockian in SOSCF/NRSCF***

               *****************************************************
               *                     SUCCESS                       *
               *           SCF CONVERGED AFTER   6 CYCLES          *
               *****************************************************


----------------
TOTAL SCF ENERGY
----------------

Total Energy       :         -328.27795629 Eh           -8932.89733 eV

Components:
Nuclear Repulsion  :          411.58829804 Eh           11199.88698 eV
Electronic Energy  :         -739.86625433 Eh          -20132.78431 eV
One Electron Energy:        -1259.49646388 Eh          -34272.64117 eV
Two Electron Energy:          519.63020955 Eh           14139.85686 eV

Virial components:
Potential Energy   :         -656.08566219 Eh          -17852.99850 eV
Kinetic Energy     :          327.80770590 Eh            8920.10117 eV
Virial Ratio       :            2.00143453


---------------
SCF CONVERGENCE
---------------

  Last Energy change         ...   -1.5727e-09  Tolerance :   1.0000e-08
  Last MAX-Density change    ...    6.1588e-06  Tolerance :   1.0000e-07
  Last RMS-Density change    ...    1.3138e-07  Tolerance :   5.0000e-09
  Last Orbital Gradient      ...    1.1434e-06  Tolerance :   1.0000e-05
  Last Orbital Rotation      ...    2.4624e-06  Tolerance :   1.0000e-05

             **** THE GBW FILE WAS UPDATED (N_4_dimethylpiperidine_eq_eq.gbw) ****
             **** DENSITY FILE WAS UPDATED (N_4_dimethylpiperidine_eq_eq.scfp.tmp) ****
             **** ENERGY FILE WAS UPDATED (N_4_dimethylpiperidine_eq_eq.en.tmp) ****
----------------
ORBITAL ENERGIES
----------------

  NO   OCC          E(Eh)            E(eV) 
   0   2.0000     -15.540541      -422.8796 
   1   2.0000     -11.246899      -306.0437 
   2   2.0000     -11.246883      -306.0432 
   3   2.0000     -11.245467      -306.0047 
   4   2.0000     -11.225842      -305.4707 
   5   2.0000     -11.218628      -305.2744 
   6   2.0000     -11.218593      -305.2734 
   7   2.0000     -11.217771      -305.2511 
   8   2.0000      -1.225666       -33.3521 
   9   2.0000      -1.084953       -29.5231 
  10   2.0000      -1.009566       -27.4717 
  11   2.0000      -0.967121       -26.3167 
  12   2.0000      -0.894098       -24.3296 
  13   2.0000      -0.845888       -23.0178 
  14   2.0000      -0.803729       -21.8706 
  15   2.0000      -0.747340       -20.3361 
  16   2.0000      -0.646254       -17.5855 
  17   2.0000      -0.619758       -16.8645 
  18   2.0000      -0.619145       -16.8478 
  19   2.0000      -0.607756       -16.5379 
  20   2.0000      -0.591062       -16.0836 
  21   2.0000      -0.557045       -15.1580 
  22   2.0000      -0.540707       -14.7134 
  23   2.0000      -0.529053       -14.3963 
  24   2.0000      -0.521838       -14.1999 
  25   2.0000      -0.511257       -13.9120 
  26   2.0000      -0.485928       -13.2228 
  27   2.0000      -0.482655       -13.1337 
  28   2.0000      -0.452812       -12.3216 
  29   2.0000      -0.435269       -11.8443 
  30   2.0000      -0.432008       -11.7555 
  31   2.0000      -0.346450        -9.4274 
  32   0.0000       0.183957         5.0057 
  33   0.0000       0.190785         5.1915 
  34   0.0000       0.206683         5.6241 
  35   0.0000       0.212010         5.7691 
  36   0.0000       0.232578         6.3288 
  37   0.0000       0.248125         6.7518 
  38   0.0000       0.257653         7.0111 
  39   0.0000       0.269824         7.3423 
  40   0.0000       0.272102         7.4043 
  41   0.0000       0.281880         7.6704 
  42   0.0000       0.286808         7.8044 
  43   0.0000       0.297069         8.0837 
  44   0.0000       0.303938         8.2706 
  45   0.0000       0.313122         8.5205 
  46   0.0000       0.316333         8.6079 
  47   0.0000       0.324989         8.8434 
  48   0.0000       0.383377        10.4322 
  49   0.0000       0.406651        11.0655 
  50   0.0000       0.417709        11.3665 
  51   0.0000       0.424764        11.5584 
  52   0.0000       0.435187        11.8420 
  53   0.0000       0.447859        12.1869 
  54   0.0000       0.448144        12.1946 
  55   0.0000       0.577670        15.7192 
  56   0.0000       0.595014        16.1912 
  57   0.0000       0.612633        16.6706 
  58   0.0000       0.632660        17.2156 
  59   0.0000       0.637578        17.3494 
  60   0.0000       0.666724        18.1425 
  61   0.0000       0.687193        18.6995 
  62   0.0000       0.733981        19.9726 
  63   0.0000       0.743704        20.2372 
  64   0.0000       0.758134        20.6299 
  65   0.0000       0.800890        21.7933 
  66   0.0000       0.816548        22.2194 
  67   0.0000       0.830388        22.5960 
  68   0.0000       0.856645        23.3105 
  69   0.0000       0.858974        23.3739 
  70   0.0000       0.863022        23.4840 
  71   0.0000       0.874765        23.8036 
  72   0.0000       0.883116        24.0308 
  73   0.0000       0.886466        24.1220 
  74   0.0000       0.886486        24.1225 
  75   0.0000       0.891141        24.2492 
  76   0.0000       0.902886        24.5688 
  77   0.0000       0.906059        24.6551 
  78   0.0000       0.914119        24.8745 
  79   0.0000       0.915960        24.9245 
  80   0.0000       0.924498        25.1569 
  81   0.0000       0.940847        25.6017 
  82   0.0000       0.941373        25.6161 
  83   0.0000       0.943575        25.6760 
  84   0.0000       0.952051        25.9066 
  85   0.0000       0.958700        26.0876 
  86   0.0000       0.974024        26.5045 
  87   0.0000       0.993657        27.0388 
  88   0.0000       0.995554        27.0904 
  89   0.0000       1.034591        28.1527 
  90   0.0000       1.076010        29.2797 
  91   0.0000       1.088114        29.6091 
  92   0.0000       1.109914        30.2023 
  93   0.0000       1.160582        31.5810 
  94   0.0000       1.186491        32.2861 
  95   0.0000       1.271043        34.5868 
  96   0.0000       1.317729        35.8572 
  97   0.0000       1.328411        36.1479 
  98   0.0000       1.364576        37.1320 
  99   0.0000       1.401712        38.1425 
 100   0.0000       1.429838        38.9079 
 101   0.0000       1.443642        39.2835 
 102   0.0000       1.511532        41.1309 
 103   0.0000       1.526124        41.5280 
 104   0.0000       1.541913        41.9576 
 105   0.0000       1.572229        42.7825 
 106   0.0000       1.592819        43.3428 
 107   0.0000       1.602328        43.6016 
 108   0.0000       1.606705        43.7207 
 109   0.0000       1.654481        45.0207 
 110   0.0000       1.686811        45.9005 
 111   0.0000       1.693687        46.0876 
 112   0.0000       1.696073        46.1525 
 113   0.0000       1.749968        47.6191 
 114   0.0000       1.769942        48.1626 
 115   0.0000       1.774640        48.2904 
 116   0.0000       1.803963        49.0883 
 117   0.0000       1.819384        49.5080 
 118   0.0000       1.834500        49.9193 
 119   0.0000       1.864335        50.7311 
 120   0.0000       1.878129        51.1065 
 121   0.0000       1.892037        51.4849 
 122   0.0000       1.897088        51.6224 
 123   0.0000       1.915822        52.1322 
 124   0.0000       1.930419        52.5294 
 125   0.0000       1.931339        52.5544 
 126   0.0000       1.953063        53.1456 
 127   0.0000       1.954434        53.1828 
 128   0.0000       1.967093        53.5273 
 129   0.0000       1.976780        53.7909 
 130   0.0000       1.987072        54.0710 
 131   0.0000       1.996857        54.3372 
 132   0.0000       2.007336        54.6224 
 133   0.0000       2.029942        55.2375 
 134   0.0000       2.030010        55.2394 
 135   0.0000       2.054066        55.8940 
 136   0.0000       2.064357        56.1740 
 137   0.0000       2.067337        56.2551 
 138   0.0000       2.079222        56.5785 
 139   0.0000       2.083071        56.6832 
 140   0.0000       2.085103        56.7385 
 141   0.0000       2.167739        58.9872 
 142   0.0000       2.193071        59.6765 
 143   0.0000       2.220902        60.4338 
 144   0.0000       2.230048        60.6827 
 145   0.0000       2.245733        61.1095 
 146   0.0000       2.250995        61.2527 
 147   0.0000       2.257096        61.4187 
 148   0.0000       2.299398        62.5698 
 149   0.0000       2.311195        62.8908 
 150   0.0000       2.318225        63.0821 
 151   0.0000       2.331107        63.4326 
 152   0.0000       2.336351        63.5754 
 153   0.0000       2.359381        64.2020 
 154   0.0000       2.394193        65.1493 
 155   0.0000       2.394781        65.1653 
 156   0.0000       2.406568        65.4860 
 157   0.0000       2.422980        65.9326 
 158   0.0000       2.471252        67.2462 
 159   0.0000       2.524612        68.6982 
 160   0.0000       2.535346        68.9903 
 161   0.0000       2.571324        69.9693 
 162   0.0000       2.601404        70.7878 
 163   0.0000       2.617731        71.2321 
 164   0.0000       2.665016        72.5188 
 165   0.0000       2.670132        72.6580 
 166   0.0000       2.694746        73.3278 
 167   0.0000       2.703308        73.5608 
 168   0.0000       2.710953        73.7688 
 169   0.0000       2.756767        75.0154 
 170   0.0000       2.766834        75.2894 
 171   0.0000       2.773085        75.4595 
 172   0.0000       2.810014        76.4644 
 173   0.0000       2.814780        76.5941 
 174   0.0000       2.827966        76.9529 
 175   0.0000       2.846578        77.4593 
 176   0.0000       2.852447        77.6190 
 177   0.0000       2.890081        78.6431 
 178   0.0000       2.920759        79.4779 
 179   0.0000       2.956919        80.4619 
 180   0.0000       2.984806        81.2207 
 181   0.0000       3.008023        81.8525 
 182   0.0000       3.088197        84.0341 
 183   0.0000       3.110766        84.6482 
 184   0.0000       3.140160        85.4481 
 185   0.0000       3.162333        86.0515 
 186   0.0000       3.230386        87.9033 

                    ********************************
                    * MULLIKEN POPULATION ANALYSIS *
                    ********************************

-----------------------
MULLIKEN ATOMIC CHARGES
-----------------------
   0 C :   -0.242262
   1 C :    0.019948
   2 C :    0.128647
   3 N :   -0.516470
   4 C :    0.128646
   5 C :    0.019954
   6 C :    0.117557
   7 C :    0.030388
   8 H :    0.027113
   9 H :    0.000213
  10 H :    0.027113
  11 H :    0.028616
  12 H :    0.021339
  13 H :    0.028617
  14 H :    0.012968
  15 H :    0.001407
  16 H :    0.031223
  17 H :    0.031223
  18 H :    0.000213
  19 H :    0.021339
  20 H :    0.026738
  21 H :    0.027736
  22 H :    0.027735
Sum of atomic charges:   -0.0000000

--------------------------------
MULLIKEN REDUCED ORBITAL CHARGES
--------------------------------
  0 C s       :     3.176968  s :     3.176968
      pz      :     0.999676  p :     2.958838
      px      :     0.991747
      py      :     0.967415
      dz2     :     0.028224  d :     0.106456
      dxz     :     0.013037
      dyz     :     0.013433
      dx2y2   :     0.026004
      dxy     :     0.025757
  1 C s       :     3.035392  s :     3.035392
      pz      :     0.989601  p :     2.864228
      px      :     0.932210
      py      :     0.942416
      dz2     :     0.022189  d :     0.080432
      dxz     :     0.010873
      dyz     :     0.010145
      dx2y2   :     0.020012
      dxy     :     0.017212
  2 C s       :     3.008564  s :     3.008564
      pz      :     0.940509  p :     2.754280
      px      :     0.952101
      py      :     0.861670
      dz2     :     0.029259  d :     0.108509
      dxz     :     0.012905
      dyz     :     0.017709
      dx2y2   :     0.022811
      dxy     :     0.025826
  3 N s       :     3.557111  s :     3.557111
      pz      :     1.700463  p :     3.911450
      px      :     1.109568
      py      :     1.101418
      dz2     :     0.004042  d :     0.047910
      dxz     :     0.007842
      dyz     :     0.010573
      dx2y2   :     0.014103
      dxy     :     0.011350
  4 C s       :     3.008567  s :     3.008567
      pz      :     0.940508  p :     2.754279
      px      :     0.952097
      py      :     0.861674
      dz2     :     0.029259  d :     0.108508
      dxz     :     0.012905
      dyz     :     0.017707
      dx2y2   :     0.022810
      dxy     :     0.025827
  5 C s       :     3.035385  s :     3.035385
      pz      :     0.989599  p :     2.864228
      px      :     0.932212
      py      :     0.942417
      dz2     :     0.022189  d :     0.080434
      dxz     :     0.010874
      dyz     :     0.010146
      dx2y2   :     0.020012
      dxy     :     0.017213
  6 C s       :     3.007461  s :     3.007461
      pz      :     0.973186  p :     2.788621
      px      :     0.811211
      py      :     1.004224
      dz2     :     0.019393  d :     0.086360
      dxz     :     0.021218
      dyz     :     0.007273
      dx2y2   :     0.022287
      dxy     :     0.016190
  7 C s       :     3.004429  s :     3.004429
      pz      :     0.988214  p :     2.904311
      px      :     0.932315
      py      :     0.983781
      dz2     :     0.017956  d :     0.060873
      dxz     :     0.009616
      dyz     :     0.005176
      dx2y2   :     0.012296
      dxy     :     0.015828
  8 H s       :     0.944586  s :     0.944586
      pz      :     0.007229  p :     0.028301
      px      :     0.007299
      py      :     0.013774
  9 H s       :     0.972744  s :     0.972744
      pz      :     0.020409  p :     0.027042
      px      :     0.003444
      py      :     0.003189
 10 H s       :     0.944586  s :     0.944586
      pz      :     0.007228  p :     0.028301
      px      :     0.007299
      py      :     0.013774
 11 H s       :     0.942695  s :     0.942695
      pz      :     0.020685  p :     0.028690
      px      :     0.003749
      py      :     0.004257
 12 H s       :     0.949452  s :     0.949452
      pz      :     0.007171  p :     0.029209
      px      :     0.006814
      py      :     0.015224
 13 H s       :     0.942693  s :     0.942693
      pz      :     0.020685  p :     0.028690
      px      :     0.003748
      py      :     0.004257
 14 H s       :     0.960218  s :     0.960218
      pz      :     0.020530  p :     0.026814
      px      :     0.002887
      py      :     0.003396
 15 H s       :     0.969728  s :     0.969728
      pz      :     0.020161  p :     0.028866
      px      :     0.003667
      py      :     0.005038
 16 H s       :     0.939256  s :     0.939256
      pz      :     0.008237  p :     0.029521
      px      :     0.005774
      py      :     0.015510
 17 H s       :     0.939256  s :     0.939256
      pz      :     0.008237  p :     0.029521
      px      :     0.005774
      py      :     0.015509
 18 H s       :     0.972744  s :     0.972744
      pz      :     0.020409  p :     0.027043
      px      :     0.003445
      py      :     0.003189
 19 H s       :     0.949452  s :     0.949452
      pz      :     0.007171  p :     0.029209
      px      :     0.006813
      py      :     0.015225
 20 H s       :     0.943119  s :     0.943119
      pz      :     0.020605  p :     0.030143
      px      :     0.004229
      py      :     0.005310
 21 H s       :     0.941902  s :     0.941902
      pz      :     0.007040  p :     0.030363
      px      :     0.008043
      py      :     0.015279
 22 H s       :     0.941903  s :     0.941903
      pz      :     0.007040  p :     0.030363
      px      :     0.008043
      py      :     0.015280


                     *******************************
                     * LOEWDIN POPULATION ANALYSIS *
                     *******************************

----------------------
LOEWDIN ATOMIC CHARGES
----------------------
   0 C :   -0.046316
   1 C :   -0.026575
   2 C :   -0.006498
   3 N :   -0.039496
   4 C :   -0.006496
   5 C :   -0.026576
   6 C :   -0.019583
   7 C :   -0.043218
   8 H :    0.017520
   9 H :   -0.003973
  10 H :    0.017519
  11 H :    0.018931
  12 H :    0.019453
  13 H :    0.018933
  14 H :    0.014886
  15 H :   -0.001152
  16 H :    0.018172
  17 H :    0.018173
  18 H :   -0.003974
  19 H :    0.019452
  20 H :    0.019605
  21 H :    0.020608
  22 H :    0.020606

-------------------------------
LOEWDIN REDUCED ORBITAL CHARGES
-------------------------------
  0 C s       :     2.791346  s :     2.791346
      pz      :     1.017517  p :     3.008081
      px      :     0.991269
      py      :     0.999296
      dz2     :     0.069361  d :     0.246889
      dxz     :     0.028499
      dyz     :     0.029524
      dx2y2   :     0.059976
      dxy     :     0.059529
  1 C s       :     2.792356  s :     2.792356
      pz      :     1.031693  p :     3.030887
      px      :     0.993644
      py      :     1.005549
      dz2     :     0.056944  d :     0.203332
      dxz     :     0.025507
      dyz     :     0.024941
      dx2y2   :     0.050228
      dxy     :     0.045712
  2 C s       :     2.796625  s :     2.796625
      pz      :     1.014590  p :     2.943992
      px      :     0.993389
      py      :     0.936013
      dz2     :     0.075002  d :     0.265881
      dxz     :     0.029860
      dyz     :     0.044884
      dx2y2   :     0.054410
      dxy     :     0.061725
  3 N s       :     3.077484  s :     3.077484
      pz      :     1.633189  p :     3.861446
      px      :     1.114157
      py      :     1.114100
      dz2     :     0.008905  d :     0.100566
      dxz     :     0.013696
      dyz     :     0.018457
      dx2y2   :     0.032282
      dxy     :     0.027227
  4 C s       :     2.796626  s :     2.796626
      pz      :     1.014587  p :     2.943990
      px      :     0.993388
      py      :     0.936016
      dz2     :     0.075003  d :     0.265880
      dxz     :     0.029861
      dyz     :     0.044880
      dx2y2   :     0.054409
      dxy     :     0.061727
  5 C s       :     2.792351  s :     2.792351
      pz      :     1.031692  p :     3.030888
      px      :     0.993645
      py      :     1.005551
      dz2     :     0.056945  d :     0.203338
      dxz     :     0.025508
      dyz     :     0.024942
      dx2y2   :     0.050228
      dxy     :     0.045714
  6 C s       :     2.802589  s :     2.802589
      pz      :     1.042929  p :     2.992932
      px      :     0.895030
      py      :     1.054973
      dz2     :     0.050461  d :     0.224063
      dxz     :     0.057286
      dyz     :     0.020347
      dx2y2   :     0.051009
      dxy     :     0.044960
  7 C s       :     2.796655  s :     2.796655
      pz      :     1.042291  p :     3.083740
      px      :     1.000841
      py      :     1.040607
      dz2     :     0.048470  d :     0.162824
      dxz     :     0.023275
      dyz     :     0.014583
      dx2y2   :     0.031077
      dxy     :     0.045419
  8 H s       :     0.906144  s :     0.906144
      pz      :     0.019659  p :     0.076336
      px      :     0.022516
      py      :     0.034160
  9 H s       :     0.928718  s :     0.928718
      pz      :     0.047534  p :     0.075255
      px      :     0.014998
      py      :     0.012723
 10 H s       :     0.906145  s :     0.906145
      pz      :     0.019659  p :     0.076336
      px      :     0.022516
      py      :     0.034162
 11 H s       :     0.902209  s :     0.902209
      pz      :     0.047223  p :     0.078859
      px      :     0.015931
      py      :     0.015706
 12 H s       :     0.902102  s :     0.902102
      pz      :     0.020106  p :     0.078444
      px      :     0.021329
      py      :     0.037010
 13 H s       :     0.902208  s :     0.902208
      pz      :     0.047223  p :     0.078859
      px      :     0.015931
      py      :     0.015706
 14 H s       :     0.906739  s :     0.906739
      pz      :     0.046049  p :     0.078376
      px      :     0.015934
      py      :     0.016392
 15 H s       :     0.925995  s :     0.925995
      pz      :     0.046480  p :     0.075157
      px      :     0.013828
      py      :     0.014850
 16 H s       :     0.905766  s :     0.905766
      pz      :     0.021160  p :     0.076062
      px      :     0.017885
      py      :     0.037017
 17 H s       :     0.905766  s :     0.905766
      pz      :     0.021161  p :     0.076061
      px      :     0.017885
      py      :     0.037015
 18 H s       :     0.928717  s :     0.928717
      pz      :     0.047534  p :     0.075257
      px      :     0.014999
      py      :     0.012724
 19 H s       :     0.902103  s :     0.902103
      pz      :     0.020106  p :     0.078445
      px      :     0.021328
      py      :     0.037011
 20 H s       :     0.902410  s :     0.902410
      pz      :     0.046850  p :     0.077985
      px      :     0.015768
      py      :     0.015368
 21 H s       :     0.901415  s :     0.901415
      pz      :     0.019149  p :     0.077976
      px      :     0.022981
      py      :     0.035847
 22 H s       :     0.901416  s :     0.901416
      pz      :     0.019148  p :     0.077978
      px      :     0.022982
      py      :     0.035848


                      *****************************
                      * MAYER POPULATION ANALYSIS *
                      *****************************

  NA   - Mulliken gross atomic population
  ZA   - Total nuclear charge
  QA   - Mulliken gross atomic charge
  VA   - Mayer's total valence
  BVA  - Mayer's bonded valence
  FA   - Mayer's free valence

  ATOM       NA         ZA         QA         VA         BVA        FA
  0 C      6.2423     6.0000    -0.2423     4.0776     4.0776     0.0000
  1 C      5.9801     6.0000     0.0199     3.9615     3.9615     0.0000
  2 C      5.8714     6.0000     0.1286     3.9612     3.9612    -0.0000
  3 N      7.5165     7.0000    -0.5165     3.0016     3.0016     0.0000
  4 C      5.8714     6.0000     0.1286     3.9612     3.9612    -0.0000
  5 C      5.9800     6.0000     0.0200     3.9615     3.9615     0.0000
  6 C      5.8824     6.0000     0.1176     3.9425     3.9425    -0.0000
  7 C      5.9696     6.0000     0.0304     3.9502     3.9502    -0.0000
  8 H      0.9729     1.0000     0.0271     0.9724     0.9724    -0.0000
  9 H      0.9998     1.0000     0.0002     0.9673     0.9673     0.0000
 10 H      0.9729     1.0000     0.0271     0.9724     0.9724     0.0000
 11 H      0.9714     1.0000     0.0286     0.9742     0.9742    -0.0000
 12 H      0.9787     1.0000     0.0213     0.9701     0.9701     0.0000
 13 H      0.9714     1.0000     0.0286     0.9742     0.9742    -0.0000
 14 H      0.9870     1.0000     0.0130     0.9613     0.9613    -0.0000
 15 H      0.9986     1.0000     0.0014     0.9747     0.9747    -0.0000
 16 H      0.9688     1.0000     0.0312     0.9808     0.9808     0.0000
 17 H      0.9688     1.0000     0.0312     0.9808     0.9808    -0.0000
 18 H      0.9998     1.0000     0.0002     0.9673     0.9673    -0.0000
 19 H      0.9787     1.0000     0.0213     0.9701     0.9701     0.0000
 20 H      0.9733     1.0000     0.0267     0.9783     0.9783    -0.0000
 21 H      0.9723     1.0000     0.0277     0.9762     0.9762    -0.0000
 22 H      0.9723     1.0000     0.0277     0.9762     0.9762    -0.0000

  Mayer bond orders larger than 0.1
B(  0-C ,  1-C ) :   1.0239 B(  0-C ,  5-C ) :   1.0239 B(  0-C ,  7-C ) :   1.0648 
B(  0-C , 14-H ) :   0.9514 B(  1-C ,  2-C ) :   1.0676 B(  1-C , 11-H ) :   0.9552 
B(  1-C , 19-H ) :   0.9651 B(  2-C ,  3-N ) :   0.9850 B(  2-C ,  8-H ) :   0.9719 
B(  2-C , 18-H ) :   0.9517 B(  3-N ,  4-C ) :   0.9850 B(  3-N ,  6-C ) :   1.0120 
B(  4-C ,  5-C ) :   1.0676 B(  4-C ,  9-H ) :   0.9517 B(  4-C , 10-H ) :   0.9719 
B(  5-C , 12-H ) :   0.9651 B(  5-C , 13-H ) :   0.9552 B(  6-C , 15-H ) :   0.9700 
B(  6-C , 16-H ) :   0.9874 B(  6-C , 17-H ) :   0.9874 B(  7-C , 20-H ) :   0.9750 
B(  7-C , 21-H ) :   0.9792 B(  7-C , 22-H ) :   0.9792 

-------
TIMINGS
-------

Total SCF time: 0 days 0 hours 0 min 7 sec 

Total time                  ....       7.651 sec
Sum of individual times     ....       7.452 sec  ( 97.4%)

Fock matrix formation       ....       7.318 sec  ( 95.6%)
Diagonalization             ....       0.017 sec  (  0.2%)
Density matrix formation    ....       0.002 sec  (  0.0%)
Population analysis         ....       0.009 sec  (  0.1%)
Initial guess               ....       0.096 sec  (  1.3%)
Orbital Transformation      ....       0.000 sec  (  0.0%)
Orbital Orthonormalization  ....       0.000 sec  (  0.0%)
DIIS solution               ....       0.000 sec  (  0.0%)
SOSCF solution              ....       0.010 sec  (  0.1%)


           ************************************************************
           *        Program running with 4 parallel MPI-processes     *
           *              working on a common directory               *
           ************************************************************


------------------------------------------------------------------------------- 
                              ORCA-MATRIX DRIVEN CI                            
------------------------------------------------------------------------------- 


Wavefunction type
-----------------
Correlation treatment                      ...      CCSD     
Single excitations                         ... ON
Orbital optimization                       ... OFF
Calculation of Z vector                    ... OFF
Calculation of Brueckner orbitals          ... OFF
Perturbative triple excitations            ... ON
Calculation of F12 correction              ... OFF
Frozen core treatment                      ... chemical core (16 el)
Reference Wavefunction                     ... RHF
  Internal Orbitals:     8 ...   31 ( 24 MO's/ 48 electrons)
  Virtual  Orbitals:    32 ...  186 (155 MO's              )
Number of AO's                             ...    187
Number of electrons                        ...     64
Number of correlated electrons             ...     48

Algorithmic settings
--------------------
Integral transformation                    ... All integrals via the RI transformation
K(C) Formation                             ... RI-DLPNO
   PNO-Integral Storage                    ... ON DISK
   PNO occupation number cut-off           ... 1.000e-07
   Singles PNO occupation number cut-off   ... 3.000e-09
   PNO Mulliken prescreening cut-off       ... 1.000e-03
   Domain cut-off (Mulliken population)    ... 1.000e-03
   PNO Normalization                       ...    1
Maximum number of iterations               ...        50
Convergence tolerance (max. residuum)      ... 1.000e-05
Level shift for amplitude update           ... 2.000e-01
Maximum number of DIIS vectors             ...         7
DIIS turned on at iteration                ...         0
Damping before turning on DIIS             ...     0.500
Damping after turning on DIIS              ...     0.000
Pair specific amplitude update             ... OFF
Natural orbital iterations                 ... OFF
Perturbative natural orbital generation    ... OFF
Printlevel                                 ... 2

Singles Fock matrix elements calculated using PNOs.

Memory handling:
----------------
Maximum memory for working arrays          ...   8000 MB
Data storage in matrix containers          ... UNCOMPRESSED
Data type for integral storage             ... DOUBLE
In-Core Storage of quantities:
   Amplitudes+Sigma Vector      ... NO
   J+K operators                ... NO
   DIIS vectors                 ... NO
   3-external integrals         ... NO
   4-external integrals         ... NO

Localization treatment:
-----------------------
Localization option                        ...    6
Localization threshhold                    ... -1.0e+00
Using relative localization threshhold     ... 1.0e-08
Neglect threshold for strong pairs         ... 1.000e-05 Eh
Prescreening threshold for very weak pairs ... 1.000e-07 Eh

Initializing the integral package          ... done
Localizing the valence orbitals
------------------------------------------------------------------------------
                           ORCA ORBITAL LOCALIZATION
------------------------------------------------------------------------------

Input orbitals are from                  ... N_4_dimethylpiperidine_eq_eq.proc0.gbw
Output orbitals are to                   ... N_4_dimethylpiperidine_eq_eq.proc0.loc
Max. number of iterations                ... 128
Localizations seeded randomly            ... off
Convergence tolerance                    ... 1.000e-06
Using relative localization threshhold   ... 1.000e-08
Treshold for strong local MOs            ... 9.500e-01
Treshold for bond MOs                    ... 8.500e-01
Operator                                 ... 0
Orbital range for localization           ... 8 to 31
Localization criterion                   ... FOSTER-BOYS (AUGMENTED HESSIAN)
Doing the dipole integrals     ... o.k.
Initial value of the localization sum :   397.465409
ITERATION   0 : L=  415.1405127190 DL=  1.77e+01 (AVERGE_DL)=    0.2530617138 
ITERATION   1 : L=  418.7813093869 DL=  3.64e+00 (AVERGE_DL)=    0.1148533512 
ITERATION   2 : L=  418.8367506138 DL=  5.54e-02 (AVERGE_DL)=    0.0141730029 
ITERATION   3 : L=  418.8372796013 DL=  5.29e-04 (AVERGE_DL)=    0.0013844209 
ITERATION   4 : L=  418.8372821639 DL=  2.56e-06 (AVERGE_DL)=    0.0000963586 
ITERATION   5 : L=  418.8372821701 DL=  6.18e-09 (AVERGE_DL)=    0.0000047336 
LOCALIZATION SUM CONVERGED

------------------------------------------------------
AUGMENTED HESSIAN OPTIMIZATION OF FOSTER-BOYS ORBITALS
------------------------------------------------------

Spin operator:           0
Orbital window:          8 to 31
Number of iterations:    128
Gradient tolerance:      1.000e-06
Number of pairs:         276
Davidson threshold:      2000
Diagonalization method:  LAPACK
Iter:    0   L: 418.8372821701   Grad. norm: 1.711682e-03
   *** Likely close to a maximum now. ***
       Augmented Hessian eigenvalues:  1.16e-08 -6.24e+00 -6.37e+00 -9.06e+00 ... 
Iter:    1   L: 418.8372821759   Grad. norm: 2.429597e-10
LOCALIZATION HAS CONVERGED.

Eigenvalues of the Hessian:
  0 -6.236e+00
  1 -6.370e+00
  2 -9.057e+00
  3 -1.266e+01
  4 -1.634e+01
  5 -1.650e+01
  6 -1.746e+01
  7 -1.779e+01
  8 -1.796e+01
  9 -1.800e+01
    ...


------------------------------------------------------------------------------- 
                    LOCALIZED MOLECULAR ORBITAL COMPOSITIONS                   
------------------------------------------------------------------------------- 

The Mulliken populations for each LMO on each atom are computed
The LMO`s will be ordered according to atom index and type
  (A) Strongly localized MO`s have populations of >=0.950 on one atom
  (B) Two center bond orbitals have populations of >=0.850 on two atoms
  (C) Other MO`s are considered to be `delocalized`

FOUND  -   1 strongly local MO`s
       -  23 two center bond MO`s
       -   0 significantly delocalized MO`s

Rather strongly localized orbitals:
MO   8:   3N  -   0.970291
Bond-like localized orbitals:
MO  31:  22H  -   0.503395  and   7C  -   0.506958
MO  30:  21H  -   0.503395  and   7C  -   0.506958
MO  29:  20H  -   0.503429  and   7C  -   0.507054
MO  28:  19H  -   0.508782  and   1C  -   0.497962
MO  27:  18H  -   0.520902  and   2C  -   0.495695
MO  26:  17H  -   0.499363  and   6C  -   0.515981
MO  25:  16H  -   0.499363  and   6C  -   0.515981
MO  24:  15H  -   0.517295  and   6C  -   0.502817
MO  23:  14H  -   0.515716  and   0C  -   0.496219
MO  22:  13H  -   0.503584  and   5C  -   0.503854
MO  21:  12H  -   0.508783  and   5C  -   0.497961
MO  20:  11H  -   0.503585  and   1C  -   0.503853
MO  19:  10H  -   0.503906  and   4C  -   0.506863
MO  18:   9H  -   0.520902  and   4C  -   0.495695
MO  17:   8H  -   0.503906  and   2C  -   0.506863
MO  16:   7C  -   0.491712  and   0C  -   0.559403
MO  15:   6C  -   0.421180  and   3N  -   0.614619
MO  14:   5C  -   0.511786  and   4C  -   0.534048
MO  13:   5C  -   0.515337  and   0C  -   0.536170
MO  12:   4C  -   0.423248  and   3N  -   0.613523
MO  11:   3N  -   0.613522  and   2C  -   0.423249
MO  10:   2C  -   0.534047  and   1C  -   0.511787
MO   9:   1C  -   0.515338  and   0C  -   0.536171
Localized MO's were stored in: N_4_dimethylpiperidine_eq_eq.proc0.loc

Localizing the core orbitals
------------------------------------------------------------------------------
                           ORCA ORBITAL LOCALIZATION
------------------------------------------------------------------------------

Input orbitals are from                  ... N_4_dimethylpiperidine_eq_eq.proc0.loc
Output orbitals are to                   ... N_4_dimethylpiperidine_eq_eq.proc0.loc
Max. number of iterations                ... 128
Localizations seeded randomly            ... off
Convergence tolerance                    ... 1.000e-06
Using relative localization threshhold   ... 1.000e-08
Treshold for strong local MOs            ... 9.500e-01
Treshold for bond MOs                    ... 8.500e-01
Operator                                 ... 0
Orbital range for localization           ... 0 to 7
Localization criterion                   ... FOSTER-BOYS (AUGMENTED HESSIAN)
Doing the dipole integrals     ... o.k.
Initial value of the localization sum :   105.205345
ITERATION   0 : L=  105.2053584736 DL=  1.38e-05 (AVERGE_DL)=    0.0007011726 
ITERATION   1 : L=  105.2053584736 DL=  0.00e+00 (AVERGE_DL)=    0.0000000000 
LOCALIZATION SUM CONVERGED

------------------------------------------------------
AUGMENTED HESSIAN OPTIMIZATION OF FOSTER-BOYS ORBITALS
------------------------------------------------------

Spin operator:           0
Orbital window:          0 to 7
Number of iterations:    128
Gradient tolerance:      1.000e-06
Number of pairs:         28
Davidson threshold:      2000
Diagonalization method:  LAPACK
Iter:    0   L: 105.2053584736   Grad. norm: 5.304133e-06
   *** Likely close to a maximum now. ***
       Augmented Hessian eigenvalues:  2.65e-13 -3.03e+01 -3.06e+01 -3.06e+01 ... 
Iter:    1   L: 105.2053584736   Grad. norm: 1.277037e-13
LOCALIZATION HAS CONVERGED.

Eigenvalues of the Hessian:
  0 -3.026e+01
  1 -3.059e+01
  2 -3.059e+01
  3 -3.350e+01
  4 -3.350e+01
  5 -3.356e+01
  6 -3.377e+01
  7 -3.378e+01
  8 -8.350e+01
  9 -8.351e+01
    ...


------------------------------------------------------------------------------- 
                    LOCALIZED MOLECULAR ORBITAL COMPOSITIONS                   
------------------------------------------------------------------------------- 

The Mulliken populations for each LMO on each atom are computed
The LMO`s will be ordered according to atom index and type
  (A) Strongly localized MO`s have populations of >=0.950 on one atom
  (B) Two center bond orbitals have populations of >=0.850 on two atoms
  (C) Other MO`s are considered to be `delocalized`

FOUND  -   8 strongly local MO`s
       -   0 two center bond MO`s
       -   0 significantly delocalized MO`s

Rather strongly localized orbitals:
MO   7:   7C  -   0.999542
MO   6:   6C  -   0.999774
MO   5:   5C  -   0.999105
MO   4:   4C  -   0.999378
MO   3:   3N  -   0.999423
MO   2:   2C  -   0.999378
MO   1:   1C  -   0.999105
MO   0:   0C  -   0.998898
Localized MO's were stored in: N_4_dimethylpiperidine_eq_eq.proc0.loc

Warning: internal orbitals are localized - no re-canonicalization of internal orbitals

--------------------------
CLOSED-SHELL FOCK OPERATOR
--------------------------

RI-JK section for the Fock operator:
  RHF full Fock operator         ... done
  RHF frozen core Fock operator  ... done
Time needed for Fock operator              ...            2.139 sec
Reference energy                           ...   -328.277956290

--------------
DLPNO SETTINGS (2015 fully linear scaling implementation)
--------------

TCutMKN:           1.000e-03
TCutPAO:           1.000e-03
TCutPNO:           1.000e-07
TCutPNOSingles:    3.000e-09
TCutEN:            9.700e-01
TCutPAOExt:        1.000e-01
TCutPairs:         1.000e-05
TCutPre:           1.000e-07
TCutOSV:           1.000e-06
TCutDOij:          1.000e-05
TCutDO:            5.000e-03
TCutC:             1.000e-04
TCutCPAO:          1.000e-03
TCutCMO:           1.000e-03
TScaleDOMP2PreScr: 2.000e+00
TScaleMKNMP2PreScr:1.000e+01
TScalePNOMP2PreScr:1.000e+00
PAO overlap thresh 1.000e-08
Using PNOs for Singles Fock computation
Use new domains
Use fully linear algorithm
TCutTNO:           1.000e-09
TCutMP2Pairs:      1.000e-06
TCutDOStrong:      2.000e-03
TCutMKNStrong:     1.000e-02
TCutMKNWeak:       1.000e-01
TCutDOWeak:        4.000e-03
NTCutTNO:          1

--------------------------
Calculating differential overlap integrals ... ok
--------------------------
ELECTRON PAIR PRESCREENING
--------------------------

Dipole-based pair screening          .... used

   TCutDOij = 1.000000e-05
   TCutPre  = 1.000000e-07
   .... Finished loop over pairs
Total time spent in the prescreening                  ...     0.000 sec
sum of pair energies estimated for screened out pairs ...       0.000000000000 Eh
Thresholds for map construction and integral transformation for crude MP2:
   TCutMKN                    ...     1.0e-02
   TCutDO                     ...     1.0e-02
   TCutPairs                  ...     1.0e-05
   TCutPNO_CrudeMP2           ...     1.0e-07
   TCutPNOSingles_CrudeMP2    ...     3.0e-09
--------------------------------
LOCAL RI TRANSFORMATION (IAVPAO)
--------------------------------

Orbital window:       8 to 31
Number of PAOs:     187
Basis functions:    187 (93 shells)
Aux. functions:     658 (234 shells)

Processing maps (0.0 sec)
Average map sizes:
   Aux shells -> MOs              24.0
   Aux shells -> PAOs            187.0
   MOs        -> AO shells        88.2
   PAOs       -> AO shells        92.8

Calculating integrals (0.5 sec, 22.538 MB)
Sorting integrals (0.0 sec, 22.531 MB)
Total time for the integral transformation: 0.6 sec
--------------------------------
INITIAL GUESS AND PNO GENERATION
--------------------------------

PNO truncation parameters                   .... 
    PAOOverlapThresh   =        1.000e-08

    TCutPairs          =        1.000e-05
    TCutPNO            =        1.000e-07
    TCutPNOSingles     =        3.000e-09
    TCutMP2Pairs       =        1.000e-06
    TCutMKN            =        1.000e-02
    TCutDO             =        1.000e-02

Pair selection                          .... not used
Type of local MP2 treatment                 .... semi-local MP2
Strategy for PNO selection                  .... occupation number selection
Pair density normalization                  .... MP2 norm
Spin component scaling                      .... not used

   .... Finished loop over pairs
Making pair pair interaction lists          ... done

                       ===========================
                        291 OF  300 PAIRS ARE KEPT CCSD PAIRS
                          9 OF  300 PAIRS ARE KEPT MP2 PAIRS FOR (T)
                          0 OF  300 PAIRS ARE SKIPPED
                       ===========================

Total time spent in the initial guess                 ...     1.186 sec
SL-MP2 correlation energy (all non-screened pairs)    ...      -1.132442829360 Eh

Initial PNO correlation energy                        ...      -1.131776885206 Eh
sum of pair energies prescreened and skipped MP2 pairs...       0.000000000000 Eh
sum of pair energies of crude MP2 skipped pairs only  ...       0.000000000000 Eh
sum of MP2 pair energies for pairs that were not kept ...      -0.000024215843 Eh
sum of PNO error estimates for the kept pairs         ...      -0.000641728312 Eh
                                                          --------------------
sum of all corrections                                         -0.000665944154
Initial total correlation energy                               -1.132442829360
Thresholds for map construction and integral transformation for fine MP2 and CCSD(T) calculation:
   TCutMKN   ...     1.0e-03
   TCutDO    ...     5.0e-03
   TCutPairs ...     1.0e-05
   TCutCMO   ...     1.0e-03
   TCutCPAO  ...     1.0e-03

Thresholds for map construction and integral transformation for strong Triples:
   TCutMKN   ...     1.0e-02
   TCutDO    ...     1.0e-02
   TCutCMO   ...     1.0e-03
   TCutCPAO  ...     1.0e-03

Thresholds for map construction and integral transformation for weak Triples:
   TCutMKN   ...     1.0e-01
   TCutDO    ...     2.0e-02
   TCutCMO   ...     1.0e-03
   TCutCPAO  ...     1.0e-03

--------------------------------
LOCAL RI TRANSFORMATION (IAVPAO)
--------------------------------

Orbital window:       8 to 31
Number of PAOs:     187
Basis functions:    187 (93 shells)
Aux. functions:     658 (234 shells)

Processing maps (0.0 sec)
Average map sizes:
   Aux shells -> MOs              24.0
   Aux shells -> PAOs            187.0
   MOs        -> AO shells        88.2
   PAOs       -> AO shells        92.8

Calculating integrals (0.5 sec, 22.538 MB)
Sorting integrals (0.0 sec, 22.531 MB)
Total time for the integral transformation: 0.6 sec
--------------------------------
INITIAL GUESS AND PNO GENERATION
--------------------------------

PNO truncation parameters                   .... 
    ScaleTCutPNO       =        1.000e-02
    PAOOverlapThresh   =        1.000e-08

    TCutPairs          =        1.000e-05
    TCutPNO            =        1.000e-07
    TCutPNOSingles     =        3.000e-09
    TCutMP2Pairs       =        1.000e-06
    TCutMKN            =        1.000e-03
    TCutDO             =        5.000e-03

Pair selection                          .... not used
Type of local MP2 treatment                 .... full local PMP2
Strategy for PNO selection                  .... occupation number selection
Pair density normalization                  .... MP2 norm
Spin component scaling                      .... not used

PASS-1: Formation of initial guess LMP2 amplitudes
Initial amplitudes guess done. Entering LMP2 iteration loop:
   Max. no of iterations          ...  50
   Energy convergence tolerance   ...    1.0e-07
   Residual convergence tolerance ...    5.0e-07
   Fock matrix cutoff             ...    1.0e-05 Eh
   DIIS convergence acceleration parameters:
        Max # vectors in DIIS     ... 7
        Start iteration of DIIS   ... 0
        Levelshift                ... 2.000e-01
        Damping factor 1          ... 5.000e-01
        Damping factor 2          ... 1.000e+00
   L-MP2 PNO cut-off              ...   1.0e-09
   L-MP2 PNO cut-off (core)       ...   1.0e-11
                           *** Turning on DIIS ***
LMP2-Iter=   0:  ELMP2= -1.156975956487  DE=   2.4e-02 RMAX=   4.2e-03
LMP2-Iter=   1:  ELMP2= -1.168845420430  DE=   1.2e-02 RMAX=   1.9e-03
LMP2-Iter=   2:  ELMP2= -1.170617587545  DE=   1.8e-03 RMAX=   3.2e-04
LMP2-Iter=   3:  ELMP2= -1.170752669466  DE=   1.4e-04 RMAX=   1.1e-04
LMP2-Iter=   4:  ELMP2= -1.170755997768  DE=   3.3e-06 RMAX=   2.7e-05
LMP2-Iter=   5:  ELMP2= -1.170754557000  DE=   1.4e-06 RMAX=   9.5e-06
LMP2-Iter=   6:  ELMP2= -1.170754461679  DE=   9.5e-08 RMAX=   1.9e-06
LMP2-Iter=   7:  ELMP2= -1.170754470495  DE=   8.8e-09 RMAX=   5.1e-07
LMP2-Iter=   8:  ELMP2= -1.170754475771  DE=   5.3e-09 RMAX=   6.2e-08 => CONVERGED
PASS-2: Formation of Pair natural orbitals
   .... Finished loop over pairs

 PNO Occupation Number Statistics: 
  | Av. % of trace(Dij) retained        ...  99.393063105171
  | sigma^2 in % of trace(Dij) retained ...   8.27e-01
  | Av. % of trace(Di) retained         ...  99.999846920284
  | sigma^2 in % of trace(Di) retained  ...   3.24e-09
 Distributions of % trace(Dij) recovered:
  |       >= 99.9  ...   116 ( 38.7 % of all pairs)
  |   [90.0, 99.0) ...    67 ( 22.3 % of all pairs)
  |   [99.0, 99.9) ...   117 ( 39.0 % of all pairs)
 Distributions of % trace(Di) recovered :
  |       >= 99.9  ...    24 (100.0 % of all I-pairs )

Making pair pair interaction lists          ... done

                       ===========================
                        291 OF  300 PAIRS ARE KEPT
                       ===========================

Total time spent in the initial guess                 ...    10.203 sec
L-MP2 correlation energy (all non-screened pairs)     ...      -1.170754475771 Eh
L-MP2 PNO error correction                            ...      -0.000011654854 Eh
                                                          --------------------
Initial total L-MP2 energy (non-screened pairs)       ...      -1.170766130624 Eh

Initial PNO correlation energy                        ...      -1.170159742611 Eh
sum of pair energies estimated for screened out pairs ...       0.000000000000 Eh
sum of MP2 pair energies for pairs that were not kept ...      -0.000029933947 Eh
sum of PNO error estimates for the kept pairs         ...      -0.000576454066 Eh
                                                          --------------------
sum of all corrections                                         -0.000606388013
Initial total correlation energy                               -1.170766130624
Thresholds for map construction and integral transformation for fine MP2 and CCSD(T) calculation:
   TCutMKN   ...     1.0e-03
   TCutDO    ...     5.0e-03
   TCutPairs ...     1.0e-05
   TCutCMO   ...     1.0e-03
   TCutCPAO  ...     1.0e-03

Time for aux screen maps:            0.005
Time for maps after fine MP2:            0.015
-----------------------------
LOCAL RI TRANSFORMATION (IJV)
-----------------------------

Orbital window:       8 to 31
Basis functions:    187 (93 shells)
Aux. functions:     658 (234 shells)

Processing maps (0.0 sec)
Average map sizes:
   Aux shells -> MOs(i)           24.0
   Aux shells -> MOs(j)           24.0
   MOs        -> AO shells        88.2

Calculating integrals (0.5 sec, 2.899 MB)
Sorting integrals (0.0 sec, 2.892 MB)
Total time for the integral transformation: 0.5 sec
--------------------------------
LOCAL RI TRANSFORMATION (VABPAO)
--------------------------------

Number of PAOs:     187
Basis functions:    187 (93 shells)
Aux. functions:     658 (234 shells)

Processing maps (0.0 sec)
Average map sizes:
   Aux shells -> PAOs            187.0
   PAOs       -> AO shells        92.8

Calculating integrals (0.8 sec, 311.894 MB)
Finished


-------------------------------------
Pair Pair Term precalculation with     
RI-(ij|mn) and (im|jn) transformation  
ON THE FLY                             
-------------------------------------

   IBatch   1 (of   2)              ... done (   46.429 sec)
   IBatch   2 (of   2)              ... done (    9.785 sec)
Total EXT                           ...          56.215 sec

---------------------
RI-PNO TRANSFORMATION
---------------------

Total Number of PNOs                   ...  8027
Average number of PNOs per pair        ...    27
Maximal number of PNOs per pair        ...    45
   #pairs with  1 -  5 PNOs   :    0
   #pairs with  6 - 10 PNOs   :   22
   #pairs with 11 - 15 PNOs   :   29
   #pairs with 16 - 20 PNOs   :   15
   #pairs with 21 - 25 PNOs   :   53
   #pairs with 26 - 30 PNOs   :   43
   #pairs with 31 - 35 PNOs   :   50
   #pairs with 36 - 40 PNOs   :   66
   #pairs with 41 - 45 PNOs   :   13
   #pairs with 46 - 50 PNOs   :    0

Generation of (ij|ab)[P] integrals            ... on
Generation of (ia|bc)[P],(ja|bc)[P] integrals ... on
Storage of 3 and 4 external integrals         ... on
Generation of ALL (ka|bc)[P] integrals        ... on
Keep RI integrals in memory                   ... off

Ibatch:  1 (of  1)
Starting 2-4 index PNO integral generation ... done

Timings:
Total PNO integral transformation time     ...         11.197 sec
Size of the 3-external file                ...        66 MB
Size of the 4-external file                ...       298 MB
Size of the IKJL file                      ...         0 MB
Size of the all 3-external file            ...       793 MB
Size of the 1-external file                ...         4 MB

Making pair/pair overlap matrices          ... done (    2.338 sec)
Size of the pair overlap file              ... 323 MB
Redoing the guess amplitudes               ... done (    0.002 sec)

-------------------------
FINAL STARTUP INFORMATION
-------------------------

E(0)                                       ...   -328.277956290
E(L-MP2)                                   ...     -1.170766131
E(L-MP2) including corrections             ...     -1.170766131
Initial E(tot)                             ...   -329.448722420
<T|T>                                      ...      0.362989706
Number of pairs included                   ... 291
Total number of pairs                      ... 300

------------------------------------------------
                  RHF COUPLED CLUSTER ITERATIONS
------------------------------------------------

Number of PNO amplitudes to be optimized   ...       250755
Number of non-PNO amplitudes               ...      6991275
Untruncated number of regular amplitudes   ...      7207500

Iter       E(tot)           E(Corr)          Delta-E          Residual     Time
  0   -329.410770162     -1.132207484      0.038558647      0.020183022    5.78
                           *** Turning on DIIS ***
  1   -329.497534942     -1.218972265     -0.086764781      0.007537586   26.57
  2   -329.537748954     -1.259186276     -0.040214011      0.002313272   20.04
  3   -329.542963966     -1.264401289     -0.005215013      0.000775504    5.78
  4   -329.544063356     -1.265500678     -0.001099389      0.000603537   11.24
  5   -329.544249662     -1.265686984     -0.000186306      0.000247197    5.82
  6   -329.544294961     -1.265732283     -0.000045299      0.000152099   10.24
  7   -329.544303289     -1.265740611     -0.000008329      0.000063562    5.62
  8   -329.544305804     -1.265743126     -0.000002515      0.000022905    8.25
  9   -329.544306097     -1.265743419     -0.000000293      0.000005433    5.67
               --- The Coupled-Cluster iterations have converged ---

----------------------
COUPLED CLUSTER ENERGY
----------------------

E(0)                                       ...   -328.277956290
E(CORR)(strong-pairs)                      ...     -1.265743419
E(CORR)(weak-pairs)                        ...     -0.000606388
E(CORR)(corrected)                         ...     -1.266349807
E(TOT)                                     ...   -329.544306097
Singles Norm <S|S>**1/2                    ...      0.055515454  
T1 diagnostic                              ...      0.008012966  

------------------
LARGEST AMPLITUDES
------------------
  30-> 41  30-> 41       0.042651
  31-> 41  31-> 41       0.042651
  26-> 40  26-> 40       0.041245
  25-> 40  25-> 40       0.041245
  18-> 40  18-> 40       0.040741
  27-> 40  27-> 40       0.040741
  19-> 41  19-> 41       0.040434
  17-> 41  17-> 41       0.040434
  29-> 41  29-> 41       0.040388
  18-> 32  18-> 32       0.038757
  27-> 32  27-> 32       0.038756
  23-> 32  23-> 32       0.038008
  21-> 32  21-> 32       0.037701
  28-> 32  28-> 32       0.037700
  20-> 32  20-> 32       0.037280
  22-> 32  22-> 32       0.037280


-------------------------------------------
DLPNO BASED TRIPLES CORRECTION
-------------------------------------------

Singles multiplier          ...  1.000000
TCutTNO                     ... 1.000e-09
TCutMP2Pairs                ... 1.000e-06
TCutDOStrong                ... 1.000e-02
TCutMKNStrong               ... 1.000e-02
TCutDOWeak                  ... 2.000e-02
TCutMKNWeak                 ... 1.000e-01

Fragment selection                          .... not used
Number of Triples that are to be computed   ...      2540

 . . . . . . . . .
10% done  
20% done  
30% done  
40% done  
50% done  
60% done  
70% done  
80% done  
90% done               (     91.711 sec)
Triples timings:
Total time for T0               ...    99.220 sec
Total time for Iterative (T)    ...     0.000 sec
Total time of overall (T)       ...   102.811 sec

Triples List generation         ...     0.000 sec
TNO generation                  ...     7.503 sec
Pair density generation         ...     0.003 sec
Look up tables                  ...     0.000 sec
Generating 3-index integrals    ...    47.497 sec
  Make 4-ind.int. from 3-ind.int...    15.410 sec
  Projecting amplitudes (D + S) ...    12.049 sec
  Downprojecting integrals      ...     0.004 sec
  Energy contr. (sum over a,b,c)...     4.663 sec
Fitting ET(->0)                 ...     0.000 sec

Everything after 3-index        ...    44.215 sec

Timing details:
 TNO integrals                  ...    60.899 sec
   Reading 3-index integrals    ...     0.058 sec
   Sorting integrals            ...    11.506 sec
       Sorting integrals 1      ...     0.002 sec
       Sorting integrals 2      ...     4.185 sec
       Sorting integrals 3      ...     0.510 sec
       Sorting integrals 4      ...     0.059 sec
       Sorting integrals 5      ...     0.153 sec
       Sorting integrals 6      ...     6.596 sec
   Calculating local VM**-1/2   ...     0.503 sec
   Orthogonal. integrals        ...     0.832 sec
   Multipl. 3-index integrals   ...    48.000 sec
   All concerning IRIab (w/TNO) ...     6.921 sec

 Calculate W0/W1                ...    12.069 sec
 W 3-ext contribution           ...     5.990 sec
 W 3-int contribution           ...     2.385 sec
 Sorting W                      ...     3.464 sec

 V exchange contribution        ...     1.726 sec

 Timings for Triples without generation
     of 3-index integrals       ...    44.207 sec
       0 weak pairs             ...    43.028 sec
       1 weak pair              ...     1.179 sec
       2 weak pairs             ...     0.000 sec
       3 weak pairs             ...     0.000 sec
  Extra time for extrapolation  ...     0.000 sec

Number of Triples   (0, 1, 2, 3 weak pairs; overall):   2378     162       0       0  (  2540)
Number of Atoms     (0, 1, 2, 3 weak pairs; overall):   21.3    19.4     0.0     0.0  (    23)
Number of PAOs      (0, 1, 2, 3 weak pairs; overall):  175.8   169.2     0.0     0.0  (   187)
Number of AuxFcns   (0, 1, 2, 3 weak pairs; overall):  257.2   221.7     0.0     0.0  (   658)
Number of TNOs      (0, 1, 2, 3 weak pairs         ):   66.4    47.2     0.0     0.0
Aver. Number of NTNO, Atoms, PAOs, AuxFcns / Triples:   2540    65.2    21.2   175.3   254.9

Triples Correction (T)                     ...     -0.038932489
Final correlation energy                   ...     -1.305282297
E(CCSD)                                    ...   -329.544306097
E(CCSD(T))                                 ...   -329.583238586


Maximum memory used throughout the entire calculation: 7969.2 MB


------------------------------------------------------------------------------- 
                                     TIMINGS                                   
------------------------------------------------------------------------------- 


Total execution time                   ...      295.346 sec

Localization of occupied MO's          ...        0.484 sec (  0.2%)
Fock Matrix Formation                  ...        2.139 sec (  0.7%)
Global overlap, Fock, MKN matrices     ...        0.168 sec (  0.1%)
Differential overlap integrals         ...        0.180 sec (  0.1%)
Organizing maps                        ...        0.045 sec (  0.0%)
RI 3-index integral generations        ...        2.469 sec (  0.8%)
RI-PNO integral transformation         ...       70.124 sec ( 23.7%)
Initial Guess                          ...       11.411 sec (  3.9%)
DIIS Solver                            ...        5.251 sec (  1.8%)
State Vector Update                    ...        0.021 sec (  0.0%)
Sigma-vector construction              ...      100.439 sec ( 34.0%)
  <D|H|D>(0-ext)                       ...        4.371 sec (  4.4% of sigma)
  <D|H|D>(2-ext Fock)                  ...        0.020 sec (  0.0% of sigma)
  <D|H|D>(2-ext)                       ...        9.878 sec (  9.8% of sigma)
  <D|H|D>(4-ext)                       ...        3.628 sec (  3.6% of sigma)
  <D|H|D>(4-ext-corr)                  ...       20.900 sec ( 20.8% of sigma)
  CCSD doubles correction              ...        0.347 sec (  0.3% of sigma)
  <S|H|S>                              ...        0.499 sec (  0.5% of sigma)
  <S|H|D>(1-ext)                       ...        0.558 sec (  0.6% of sigma)
  <D|H|S>(1-ext)                       ...        0.019 sec (  0.0% of sigma)
  <S|H|D>(3-ext)                       ...        0.258 sec (  0.3% of sigma)
  Fock-dressing                        ...       48.120 sec ( 47.9% of sigma)
  Singles amplitudes                   ...        0.430 sec (  0.4% of sigma)
  (ik|jl)-dressing                     ...        3.257 sec (  3.2% of sigma)
  (ij|ab),(ia|jb)-dressing             ...        7.997 sec (  8.0% of sigma)
  Pair energies                        ...        0.007 sec (  0.0% of sigma)
Total Time for computing (T)           ...      102.922 sec ( 34.8% of ALL)


-------------------------   --------------------
FINAL SINGLE POINT ENERGY      -329.583238586218
-------------------------   --------------------


                            ***************************************
                            *     ORCA property calculations      *
                            ***************************************

                                    ---------------------
                                    Active property flags
                                    ---------------------
   (+) Dipole Moment


------------------------------------------------------------------------------
                       ORCA ELECTRIC PROPERTIES CALCULATION
------------------------------------------------------------------------------

Dipole Moment Calculation                       ... on
Quadrupole Moment Calculation                   ... off
Polarizability Calculation                      ... off
GBWName                                         ... N_4_dimethylpiperidine_eq_eq.gbw
Electron density file                           ... N_4_dimethylpiperidine_eq_eq.scfp.tmp
The origin for moment calculation is the CENTER OF MASS  = ( 0.021006,  0.000002 -0.015115)

-------------
DIPOLE MOMENT
-------------
                                X             Y             Z
Electronic contribution:      1.35958      -0.00000      -0.74830
Nuclear contribution   :     -1.34439      -0.00000       0.96748
                        -----------------------------------------
Total Dipole Moment    :      0.01520      -0.00001       0.21918
                        -----------------------------------------
Magnitude (a.u.)       :      0.21971
Magnitude (Debye)      :      0.55845



--------------------
Rotational spectrum 
--------------------
 
Rotational constants in cm-1:     0.143556     0.045163     0.036840 
Rotational constants in MHz :  4303.709413  1353.940125  1104.443183 

 Dipole components along the rotational axes: 
x,y,z [a.u.] :    -0.013693    -0.000005     0.219279 
x,y,z [Debye]:    -0.034805    -0.000014     0.557363 

 

Timings for individual modules:

Sum of individual times         ...      304.192 sec (=   5.070 min)
GTO integral calculation        ...        0.769 sec (=   0.013 min)   0.3 %
SCF iterations                  ...        7.829 sec (=   0.130 min)   2.6 %
MDCI module                     ...      295.593 sec (=   4.927 min)  97.2 %
                             ****ORCA TERMINATED NORMALLY****
TOTAL RUN TIME: 0 days 0 hours 5 minutes 4 seconds 532 msec
N_4_dimethylpiperidine_eq_eq.gbw -> /home1/pantazis/klk/VDZ/Nitrogen_compounds/N_4_dimethylpiperidine_eq_eq.gbw
N_4_dimethylpiperidine_eq_eq.ges -> /home1/pantazis/klk/VDZ/Nitrogen_compounds/N_4_dimethylpiperidine_eq_eq.ges
N_4_dimethylpiperidine_eq_eq.job -> /home1/pantazis/klk/VDZ/Nitrogen_compounds/N_4_dimethylpiperidine_eq_eq.job
N_4_dimethylpiperidine_eq_eq.loc -> /home1/pantazis/klk/VDZ/Nitrogen_compounds/N_4_dimethylpiperidine_eq_eq.loc
N_4_dimethylpiperidine_eq_eq.nodes -> /home1/pantazis/klk/VDZ/Nitrogen_compounds/N_4_dimethylpiperidine_eq_eq.nodes
N_4_dimethylpiperidine_eq_eq.prop -> /home1/pantazis/klk/VDZ/Nitrogen_compounds/N_4_dimethylpiperidine_eq_eq.prop
N_4_dimethylpiperidine_eq_eq_property.txt -> /home1/pantazis/klk/VDZ/Nitrogen_compounds/N_4_dimethylpiperidine_eq_eq_property.txt
N_4_dimethylpiperidine_eq_eq.xyz -> /home1/pantazis/klk/VDZ/Nitrogen_compounds/N_4_dimethylpiperidine_eq_eq.xyz
cp: cannot stat N_4_dimethylpiperidine_eq_eq.asa.inp: No such file or directory
