! Job execution by suborca V 6.07 on ZEUS !
Job started from zeus1, running /scratch/pantazis/N_methylacetamide_Z__MqFkGs/orca/orca copied from /opt/orca on zeussn119 in /scratch/pantazis/N_methylacetamide_Z__MqFkGs
Job execution start: Sat Jun 29 11:35:19 CEST 2019
Shared library path: /scratch/pantazis/N_methylacetamide_Z__MqFkGs/orca:/opt/openmpi_1.10.2/lib:/opt/intel/mkl/lib/intel64:/opt/intel/lib/intel64:
PBS Job ID is: 158859.icqc
izeussn119
izeussn119
izeussn119
izeussn119

                                 *****************
                                 * O   R   C   A *
                                 *****************

           --- An Ab Initio, DFT and Semiempirical electronic structure package ---

                  #######################################################
                  #                        -***-                        #
                  #          Department of theory and spectroscopy      #
                  #               Directorship: Frank Neese             #
                  #        Max Planck Institute fuer Kohlenforschung    #
                  #                Kaiser Wilhelm Platz 1               #
                  #                 D-45470 Muelheim/Ruhr               #
                  #                      Germany                        #
                  #                                                     #
                  #                  All rights reserved                #
                  #                        -***-                        #
                  #######################################################


                         Program Version 4.1.x  -  STABLE  -
                                (SVN: $Rev: 14094$)
                ($Date: 2019-06-14 15:01:15 +0200 (Fri, 14 Jun 2019) $)

                         (BUILD: $Sun Jun 23 06:18:31 CEST 2019$)


 With contributions from (in alphabetic order):
   Daniel Aravena         : Magnetic Properties
   Michael Atanasov       : Ab Initio Ligand Field Theory
   Alexander A. Auer      : GIAO ZORA
   Ute Becker             : Parallelization
   Giovanni Bistoni       : ED, Open-shell LED
   Martin Brehm           : Molecular dynamics
   Dmytro Bykov           : SCF Hessian
   Vijay G. Chilkuri      : MRCI spin determinant printing
   Dipayan Datta          : RHF DLPNO-CCSD density
   Achintya Kumar Dutta   : EOM-CC, STEOM-CC
   Dmitry Ganyushin       : Spin-Orbit,Spin-Spin,Magnetic field MRCI
   Miquel Garcia          : C-PCM Hessian
   Yang Guo               : DLPNO-NEVPT2, CIM, IAO-localization
   Andreas Hansen         : Spin unrestricted coupled pair/coupled cluster methods
   Benjamin Helmich-Paris : CASSCF linear response (MC-RPA)
   Lee Huntington         : MR-EOM, pCC
   Robert Izsak           : Overlap fitted RIJCOSX, COSX-SCS-MP3, EOM
   Christian Kollmar      : KDIIS, OOCD, Brueckner-CCSD(T), CCSD density
   Simone Kossmann        : Meta GGA functionals, TD-DFT gradient, OOMP2, MP2 Hessian
   Martin Krupicka        : AUTO-CI
   Lucas Lang             : DCDCAS
   Dagmar Lenk            : GEPOL surface, SMD
   Dimitrios Liakos       : Extrapolation schemes; parallel MDCI
   Dimitrios Manganas     : ROCIS; embedding schemes
   Dimitrios Pantazis     : SARC Basis sets
   Taras Petrenko         : DFT Hessian,TD-DFT gradient, ASA, ECA, R-Raman, ABS, FL, XAS/XES, NRVS
   Peter Pinski           : DLPNO-MP2, DLPNO-MP2 Gradient
   Christoph Reimann      : Effective Core Potentials
   Marius Retegan         : Local ZFS, SOC
   Christoph Riplinger    : Optimizer, TS searches, QM/MM, DLPNO-CCSD(T), (RO)-DLPNO pert. Triples
   Tobias Risthaus        : Range-separated hybrids, TD-DFT gradient, RPA, STAB
   Michael Roemelt        : Restricted open shell CIS
   Masaaki Saitow         : Open-shell DLPNO
   Barbara Sandhoefer     : DKH picture change effects
   Avijit Sen             : IP-ROCIS
   Kantharuban Sivalingam : CASSCF convergence, NEVPT2, FIC-MRCI
   Bernardo de Souza      : ESD, SOC TD-DFT
   Georgi Stoychev        : AutoAux, RI-MP2 NMR
   Willem Van den Heuvel  : Paramagnetic NMR
   Boris Wezisla          : Elementary symmetry handling
   Frank Wennmohs         : Technical directorship


 We gratefully acknowledge several colleagues who have allowed us to
 interface, adapt or use parts of their codes:
   Stefan Grimme, W. Hujo, H. Kruse,             : VdW corrections, initial TS optimization,
                  C. Bannwarth                     DFT functionals, gCP, sTDA/sTD-DF
   Ed Valeev                                     : LibInt (2-el integral package), F12 methods
   Garnet Chan, S. Sharma, J. Yang, R. Olivares  : DMRG
   Ulf Ekstrom                                   : XCFun DFT Library
   Mihaly Kallay                                 : mrcc  (arbitrary order and MRCC methods)
   Andreas Klamt, Michael Diedenhofen            : otool_cosmo (COSMO solvation model)
   Jiri Pittner, Ondrej Demel                    : Mk-CCSD
   Frank Weinhold                                : gennbo (NPA and NBO analysis)
   Christopher J. Cramer and Donald G. Truhlar   : smd solvation model
   Lars Goerigk                                  : TD-DFT with DH, B97 family of functionals
   V. Asgeirsson, H. Jonsson                     : NEB implementation
   FAccTs GmbH                                   : IRC, NEB, NEB-TS, Multilevel


 Your calculation uses the libint2 library for the computation of 2-el integrals
 For citations please refer to: http://libint.valeyev.net

 This ORCA versions uses:
   CBLAS   interface :  Fast vector & matrix operations
   LAPACKE interface :  Fast linear algebra routines
   SCALAPACK package :  Parallel linear algebra routines




***************************************
The coordinates will be read from file: N_methylacetamide_Z.xyz
***************************************


----- Orbital basis set information -----
Your calculation utilizes the basis: cc-pVDZ 
       H, B-Ne : Obtained from the ccRepo (grant-hill.group.shef.ac.uk/ccrepo) Feb. 2017
                 T. H. Dunning, Jr., J. Chem. Phys. 90, 1007 (1989)
            He : Obtained from the ccRepo (grant-hill.group.shef.ac.uk/ccrepo) Feb. 2017
                 D. E. Woon, T. H. Dunning, Jr., J. Chem. Phys. 100, 2975 (1994)
  Li-Be, Na-Mg : Obtained from the ccRepo (grant-hill.group.shef.ac.uk/ccrepo) Feb. 2017
                 B. P. Prascher, D. E. Woon, K. A. Peterson, T. H. Dunning, Jr., A. K. Wilson, Theor. Chem. Acc. 128, 69 (2011)
         Al-Ar : Obtained from the ccRepo (grant-hill.group.shef.ac.uk/ccrepo) Feb. 2017
                 D. E. Woon, T. H. Dunning, Jr., J. Chem. Phys. 98, 1358 (1993)
            Ca : Obtained from the Peterson Research Group Website (tyr0.chem.wsu.edu/~kipeters) Feb. 2017
                 J. Koput, K. A. Peterson, J. Phys. Chem. 106, 9595 (2002)
         Sc-Zn : Obtained from the ccRepo (grant-hill.group.shef.ac.uk/ccrepo) Feb. 2017
                 N. B. Balabanov, K. A. Peterson, J. Chem. Phys. 123, 064107 (2005)
                 N. B. Balabanov, K. A. Peterson, J. Chem. Phys. 125, 074110 (2006)
         Ga-Kr : Obtained from the ccRepo (grant-hill.group.shef.ac.uk/ccrepo) Feb. 2017
                 A. K. Wilson, D. E. Woon, K. A. Peterson, T. H. Dunning, Jr., J. Chem. Phys. 110, 7667 (1999)

----- AuxC basis set information -----
Your calculation utilizes the auxiliary basis: cc-pVDZ/C 
  H-He, B, Ne, Al-Ar, Ga-Br : Obtained from the EMSL Basis Set Exchange (bse.pnl.gov) Feb. 2017
                              F. Weigend, A. Kohn, C. Hattig, J. Chem. Phys. 116, 3175 (2002)
               Li-Be, Na-Mg : Obtained from the EMSL Basis Set Exchange (bse.pnl.gov) Feb. 2017
                              C. Haettig, Phys. Chem. Chem. Phys. 7, 59 (2005)
                        C-F : Obtained from the EMSL Basis Set Exchange (bse.pnl.gov) Feb. 2017
                              C. Haettig, Phys. Chem. Chem. Phys. 7, 59 (2005)
                              F. Weigend, A. Kohn, C. Hattig, J. Chem. Phys. 116, 3175 (2002)
                         Kr : Obtained from the TURBOMOLE 7.0 basis set library
                              F. Weigend, A. Kohn, C. Hattig, J. Chem. Phys. 116, 3175 (2002)
                              S function revised in Sep. 2009

----- AuxJK basis set information -----
Your calculation utilizes the auxiliary basis: cc-pVTZ/JK 
  H, B-F, Al-Cl, Ga-Br : Obtained from the TURBOMOLE 7.0 basis set library

================================================================================
                                        WARNINGS
                       Please study these warnings very carefully!
================================================================================


WARNING: MDCI localization with Augmented Hessian Foster-Boys
  ===> : Switching off randomization!

WARNING: Post HF methods need fully converged wavefunctions
  ===> : Setting SCFConvForced true
         You can overwrite this default with %scf ConvForced false 


INFO   : the flag for use of LIBINT has been found!

================================================================================
                                       INPUT FILE
================================================================================
NAME = N_methylacetamide_Z.inp
|  1> ! RHF DLPNO-CCSD(T) cc-pVDZ RIJK cc-pVTZ/JK cc-pVDZ/C
|  2> ! KDIIS SOSCF TightSCF TightPNO
|  3> 
|  4> %pal nprocs 4 end
|  5> 
|  6> %maxcore 8000
|  7> 
|  8> %scf maxiter 300
|  9>      shift shift 0.2 erroff 0.1 end
| 10> end
| 11> 
| 12> * xyzfile 0 1 N_methylacetamide_Z.xyz 
| 13> 
| 14> 
| 15>                          ****END OF INPUT****
================================================================================

                       ****************************
                       * Single Point Calculation *
                       ****************************

---------------------------------
CARTESIAN COORDINATES (ANGSTROEM)
---------------------------------
  C      1.833630   -0.538520    0.000060
  C      0.486150    0.169440   -0.000050
  N     -0.607980   -0.648890   -0.000220
  C     -1.962190   -0.112910    0.000100
  O      0.376830    1.393170   -0.000010
  H     -0.475800   -1.648740    0.000280
  H      1.945240   -1.173360   -0.886070
  H      2.621590    0.214540   -0.000310
  H      1.945430   -1.172610    0.886710
  H     -2.669190   -0.944890   -0.001790
  H     -2.136330    0.505440    0.886220
  H     -2.135230    0.508490   -0.884070

----------------------------
CARTESIAN COORDINATES (A.U.)
----------------------------
  NO LB      ZA    FRAG     MASS         X           Y           Z
   0 C     6.0000    0    12.011    3.465059   -1.017655    0.000113
   1 C     6.0000    0    12.011    0.918690    0.320195   -0.000094
   2 N     7.0000    0    14.007   -1.148916   -1.226224   -0.000416
   3 C     6.0000    0    12.011   -3.708002   -0.213369    0.000189
   4 O     8.0000    0    15.999    0.712105    2.632710   -0.000019
   5 H     1.0000    0     1.008   -0.899132   -3.115667    0.000529
   6 H     1.0000    0     1.008    3.675971   -2.217329   -1.674430
   7 H     1.0000    0     1.008    4.954087    0.405422   -0.000586
   8 H     1.0000    0     1.008    3.676330   -2.215912    1.675639
   9 H     1.0000    0     1.008   -5.044038   -1.785583   -0.003383
  10 H     1.0000    0     1.008   -4.037079    0.955143    1.674713
  11 H     1.0000    0     1.008   -4.035000    0.960907   -1.670650

--------------------------------
INTERNAL COORDINATES (ANGSTROEM)
--------------------------------
 C      0   0   0     0.000000000000     0.00000000     0.00000000
 C      1   0   0     1.522139850375     0.00000000     0.00000000
 N      2   1   0     1.366303214773   115.48893604     0.00000000
 C      3   2   1     1.456420058534   121.61310693   179.97964114
 O      2   1   3     1.228603262612   122.82211385   180.00103320
 H      3   2   1     1.008549366615   119.26299611     0.03536633
 H      1   2   3     1.095766852300   111.07399511    60.06881518
 H      1   2   3     1.089945164722   108.58013591   179.97216499
 H      1   2   3     1.095772599858   111.07093632   299.86985800
 H      4   3   2     1.091807351367   108.76410428   179.90709230
 H      4   3   2     1.094481665676   110.85689861   299.98298599
 H      4   3   2     1.094457578209   110.84117113    59.84221566

---------------------------
INTERNAL COORDINATES (A.U.)
---------------------------
 C      0   0   0     0.000000000000     0.00000000     0.00000000
 C      1   0   0     2.876427454737     0.00000000     0.00000000
 N      2   1   0     2.581938891818   115.48893604     0.00000000
 C      3   2   1     2.752235046579   121.61310693   179.97964114
 O      2   1   3     2.321723693578   122.82211385   180.00103320
 H      3   2   1     1.905882095443   119.26299611     0.03536633
 H      1   2   3     2.070699257476   111.07399511    60.06881518
 H      1   2   3     2.059697862316   108.58013591   179.97216499
 H      1   2   3     2.070710118787   111.07093632   299.86985800
 H      4   3   2     2.063216885086   108.76410428   179.90709230
 H      4   3   2     2.068270606725   110.85689861   299.98298599
 H      4   3   2     2.068225088010   110.84117113    59.84221566

---------------------
BASIS SET INFORMATION
---------------------
There are 4 groups of distinct atoms

 Group   1 Type C   : 17s4p1d contracted to 3s2p1d pattern {881/31/1}
 Group   2 Type N   : 17s4p1d contracted to 3s2p1d pattern {881/31/1}
 Group   3 Type O   : 17s4p1d contracted to 3s2p1d pattern {881/31/1}
 Group   4 Type H   : 4s1p contracted to 2s1p pattern {31/1}

Atom   0C    basis set group =>   1
Atom   1C    basis set group =>   1
Atom   2N    basis set group =>   2
Atom   3C    basis set group =>   1
Atom   4O    basis set group =>   3
Atom   5H    basis set group =>   4
Atom   6H    basis set group =>   4
Atom   7H    basis set group =>   4
Atom   8H    basis set group =>   4
Atom   9H    basis set group =>   4
Atom  10H    basis set group =>   4
Atom  11H    basis set group =>   4
-------------------------------
AUXILIARY BASIS SET INFORMATION
-------------------------------
There are 4 groups of distinct atoms

 Group   1 Type C   : 7s5p4d2f contracted to 7s5p4d2f pattern {1111111/11111/1111/11}
 Group   2 Type N   : 7s5p4d2f contracted to 7s5p4d2f pattern {1111111/11111/1111/11}
 Group   3 Type O   : 7s5p4d2f contracted to 7s5p4d2f pattern {1111111/11111/1111/11}
 Group   4 Type H   : 3s2p1d contracted to 3s2p1d pattern {111/11/1}

Atom   0C    basis set group =>   1
Atom   1C    basis set group =>   1
Atom   2N    basis set group =>   2
Atom   3C    basis set group =>   1
Atom   4O    basis set group =>   3
Atom   5H    basis set group =>   4
Atom   6H    basis set group =>   4
Atom   7H    basis set group =>   4
Atom   8H    basis set group =>   4
Atom   9H    basis set group =>   4
Atom  10H    basis set group =>   4
Atom  11H    basis set group =>   4
-------------------------------
AUXILIARY BASIS SET INFORMATION
-------------------------------
There are 4 groups of distinct atoms

 Group   1 Type C   : 10s7p5d2f1g contracted to 10s7p5d2f1g pattern {1111111111/1111111/11111/11/1}
 Group   2 Type N   : 10s7p5d2f1g contracted to 10s7p5d2f1g pattern {1111111111/1111111/11111/11/1}
 Group   3 Type O   : 10s7p5d2f1g contracted to 10s7p5d2f1g pattern {1111111111/1111111/11111/11/1}
 Group   4 Type H   : 4s3p2d1f contracted to 4s3p2d1f pattern {1111/111/11/1}

Atom   0C    basis set group =>   1
Atom   1C    basis set group =>   1
Atom   2N    basis set group =>   2
Atom   3C    basis set group =>   1
Atom   4O    basis set group =>   3
Atom   5H    basis set group =>   4
Atom   6H    basis set group =>   4
Atom   7H    basis set group =>   4
Atom   8H    basis set group =>   4
Atom   9H    basis set group =>   4
Atom  10H    basis set group =>   4
Atom  11H    basis set group =>   4

Checking for AutoStart:
The File: N_methylacetamide_Z.gbw exists
Trying to determine its content:
     ... Fine, the file contains calculation information
     ... Fine, the calculation information was read
     ... Fine, the file contains a basis set
     ... Fine, the basis set was read
     ... Fine, the file contains a geometry
     ... Fine, the geometry was read
     ... Fine, the file contains a set of orbitals
     ... Fine, the orbitals can be read
     => possible old guess file was deleted
     => GBW file was renamed to GES file
     => GES file is set as startup file
     => Guess is set to MORead
     ... now leaving AutoStart



           ************************************************************
           *        Program running with 4 parallel MPI-processes     *
           *              working on a common directory               *
           ************************************************************
------------------------------------------------------------------------------
                           ORCA GTO INTEGRAL CALCULATION
                           -- RI-GTO INTEGRALS CHOSEN --
------------------------------------------------------------------------------

                         BASIS SET STATISTICS AND STARTUP INFO

Gaussian basis set:
 # of primitive gaussian shells          ...  145
 # of primitive gaussian functions       ...  219
 # of contracted shells                  ...   51
 # of contracted basis functions         ...  105
 Highest angular momentum                ...    2
 Maximum contraction depth               ...    8
Auxiliary gaussian basis set:
 # of primitive gaussian shells          ...  195
 # of primitive gaussian functions       ...  605
 # of contracted shells                  ...  195
 # of contracted aux-basis functions     ...  605
 Highest angular momentum                ...    4
 Maximum contraction depth               ...    1
Ratio of auxiliary to basis functions    ...  5.76
Integral package used                  ... LIBINT
 One Electron integrals                  ... done
 Ordering auxiliary basis shells         ... done
 Integral threshhold             Thresh  ...  2.500e-11
 Primitive cut-off               TCut    ...  2.500e-12
 Pre-screening matrix                    ... done
 Shell pair data                         ... 
 Ordering of the shell pairs             ... done (   0.000 sec) 1325 of 1326 pairs
 Determination of significant pairs      ... done (   0.000 sec)
 Creation of shell pair data             ... done (   0.001 sec)
 Storage of shell pair data              ... done (   0.001 sec)
 Shell pair data done in (   0.001 sec)
 Computing two index integrals           ... done
 Cholesky decomposition of the V-matrix  ... done


Timings:
 Total evaluation time                   ...   1.693 sec (  0.028 min)
 One electron matrix time                ...   1.437 sec (  0.024 min) = 84.9%
 Schwartz matrix evaluation time         ...   0.145 sec (  0.002 min) =  8.6%
 Two index repulsion integral time       ...   0.031 sec (  0.001 min) =  1.9%
 Cholesky decomposition of V             ...   0.051 sec (  0.001 min) =  3.0%
 Three index repulsion integral time     ...   0.000 sec (  0.000 min) =  0.0%



           ************************************************************
           *        Program running with 4 parallel MPI-processes     *
           *              working on a common directory               *
           ************************************************************
-------------------------------------------------------------------------------
                                 ORCA SCF
-------------------------------------------------------------------------------

------------
SCF SETTINGS
------------
Hamiltonian:
 Ab initio Hamiltonian  Method          .... Hartree-Fock(GTOs)
 RI-approximation to the Coulomb term is turned on
   Number of auxiliary basis functions  .... 605
   RI-JK (J+K treated both via RI)      .... on


General Settings:
 Integral files         IntName         .... N_methylacetamide_Z
 Hartree-Fock type      HFTyp           .... RHF
 Total Charge           Charge          ....    0
 Multiplicity           Mult            ....    1
 Number of Electrons    NEL             ....   40
 Basis Dimension        Dim             ....  105
 Nuclear Repulsion      ENuc            ....    179.5173296471 Eh

Convergence Acceleration:
 DIIS                   CNVDIIS         .... off
 Newton-Raphson         CNVNR           .... off
 SOSCF                  CNVSOSCF        .... on
   Start iteration      SOSCFMaxIt      ....   150
   Startup grad/error   SOSCFStart      ....  0.003300
 Level Shifting         CNVShift        .... on
   Level shift para.    LevelShift      ....    0.2000
   Turn off err/grad.   ShiftErr        ....    0.1000
 Zerner damping         CNVZerner       .... off
 Static damping         CNVDamp         .... off
 Fernandez-Rico         CNVRico         .... off

SCF Procedure:
 Maximum # iterations   MaxIter         ....   300
 SCF integral mode      SCFMode         .... Direct
   Integral package                     .... LIBINT
 Reset frequency        DirectResetFreq ....    20
 Integral Threshold     Thresh          ....  2.500e-11 Eh
 Primitive CutOff       TCut            ....  2.500e-12 Eh

Convergence Tolerance:
 Convergence Check Mode ConvCheckMode   .... Total+1el-Energy
 Convergence forced     ConvForced      .... 1
 Energy Change          TolE            ....  1.000e-08 Eh
 1-El. energy change                    ....  1.000e-05 Eh
 Orbital Gradient       TolG            ....  1.000e-05
 Orbital Rotation angle TolX            ....  1.000e-05


Diagonalization of the overlap matrix:
Smallest eigenvalue                        ... 4.289e-03
Time for diagonalization                   ...    0.004 sec
Threshold for overlap eigenvalues          ... 1.000e-08
Number of eigenvalues below threshold      ... 0
Time for construction of square roots      ...    0.016 sec
Total time needed                          ...    0.020 sec

---------------------
INITIAL GUESS: MOREAD
---------------------
Guess MOs are being read from file: N_methylacetamide_Z.ges
Input Geometry matches current geometry (good)
Atom 0: N(Shells)= 6 and 10 - projection required
Input basis set needs projection
NBasis(read)= 248
NBasis(calc)= 105
Basis set overlap was calculated
Using GuessMode=FMatrix for the initial guess
C*T matrix was formed
Effective Fockian was calculated
Effective Fockian was diagonalized
Initial density was built
                      ------------------
                      INITIAL GUESS DONE (   0.0 sec)
                      ------------------
--------------
SCF ITERATIONS
--------------
ITER       Energy         Delta-E        Max-DP      RMS-DP      [F,P]   Gradient Norm
                             ****Turning on KDIIS(Cayley)****
  0   -247.0246601406   0.000000000000 0.00186212  0.00007396  0.0042591   0.006138071
  1   -247.0247747291  -0.000114588493 0.00385872  0.00014554  0.0038584   0.005534256
                      *** Initiating the SOSCF procedure ***
                           *** Shutting down KDIIS ***
                      *** Re-Reading the Fockian *** 
                      *** Removing any level shift *** 
ITER      Energy       Delta-E        Grad      Rot      Max-DP    RMS-DP
  2   -247.02494957  -0.0001748447  0.003102  0.003102  0.006092  0.000241
  3   -247.02516900  -0.0002194297  0.001865  0.001784  0.007770  0.000326
  4   -247.02528689  -0.0001178838  0.000668  0.000384  0.002095  0.000087
  5   -247.02529465  -0.0000077588  0.000321  0.000310  0.000821  0.000030
  6   -247.02529656  -0.0000019127  0.000046  0.000098  0.000159  0.000007
  7   -247.02529668  -0.0000001186  0.000036  0.000072  0.000108  0.000004
  8   -247.02529670  -0.0000000270  0.000009  0.000033  0.000047  0.000002
  9   -247.02529671  -0.0000000036  0.000003  0.000010  0.000011  0.000000
                  ***Gradient check signals convergence***
              ***Rediagonalizing the Fockian in SOSCF/NRSCF***

               *****************************************************
               *                     SUCCESS                       *
               *           SCF CONVERGED AFTER  10 CYCLES          *
               *****************************************************


----------------
TOTAL SCF ENERGY
----------------

Total Energy       :         -247.02529671 Eh           -6721.90006 eV

Components:
Nuclear Repulsion  :          179.51732965 Eh            4884.91488 eV
Electronic Energy  :         -426.54262636 Eh          -11606.81494 eV
One Electron Energy:         -691.60408392 Eh          -18819.50389 eV
Two Electron Energy:          265.06145756 Eh            7212.68895 eV

Virial components:
Potential Energy   :         -493.65298849 Eh          -13432.98074 eV
Kinetic Energy     :          246.62769178 Eh            6711.08068 eV
Virial Ratio       :            2.00161217


---------------
SCF CONVERGENCE
---------------

  Last Energy change         ...   -3.7016e-10  Tolerance :   1.0000e-08
  Last MAX-Density change    ...    4.6767e-06  Tolerance :   1.0000e-07
  Last RMS-Density change    ...    1.5151e-07  Tolerance :   5.0000e-09
  Last Orbital Gradient      ...    2.0576e-06  Tolerance :   1.0000e-05
  Last Orbital Rotation      ...    1.3689e-06  Tolerance :   1.0000e-05

             **** THE GBW FILE WAS UPDATED (N_methylacetamide_Z.gbw) ****
             **** DENSITY FILE WAS UPDATED (N_methylacetamide_Z.scfp.tmp) ****
             **** ENERGY FILE WAS UPDATED (N_methylacetamide_Z.en.tmp) ****
----------------
ORBITAL ENERGIES
----------------

  NO   OCC          E(Eh)            E(eV) 
   0   2.0000     -20.510662      -558.1235 
   1   2.0000     -15.581907      -424.0052 
   2   2.0000     -11.348074      -308.7968 
   3   2.0000     -11.266212      -306.5692 
   4   2.0000     -11.242181      -305.9153 
   5   2.0000      -1.366786       -37.1921 
   6   2.0000      -1.219391       -33.1813 
   7   2.0000      -1.011627       -27.5278 
   8   2.0000      -0.927123       -25.2283 
   9   2.0000      -0.780956       -21.2509 
  10   2.0000      -0.682796       -18.5798 
  11   2.0000      -0.641228       -17.4487 
  12   2.0000      -0.626035       -17.0353 
  13   2.0000      -0.578727       -15.7480 
  14   2.0000      -0.572551       -15.5799 
  15   2.0000      -0.552920       -15.0457 
  16   2.0000      -0.541274       -14.7288 
  17   2.0000      -0.495097       -13.4723 
  18   2.0000      -0.412087       -11.2134 
  19   2.0000      -0.382947       -10.4205 
  20   0.0000       0.168346         4.5809 
  21   0.0000       0.194611         5.2956 
  22   0.0000       0.202991         5.5237 
  23   0.0000       0.222982         6.0676 
  24   0.0000       0.258796         7.0422 
  25   0.0000       0.259918         7.0727 
  26   0.0000       0.273351         7.4383 
  27   0.0000       0.297920         8.1068 
  28   0.0000       0.351574         9.5668 
  29   0.0000       0.396895        10.8001 
  30   0.0000       0.463874        12.6227 
  31   0.0000       0.549852        14.9622 
  32   0.0000       0.605441        16.4749 
  33   0.0000       0.627863        17.0850 
  34   0.0000       0.645525        17.5656 
  35   0.0000       0.661440        17.9987 
  36   0.0000       0.701989        19.1021 
  37   0.0000       0.720472        19.6050 
  38   0.0000       0.760971        20.7071 
  39   0.0000       0.811652        22.0862 
  40   0.0000       0.855135        23.2694 
  41   0.0000       0.855549        23.2807 
  42   0.0000       0.860309        23.4102 
  43   0.0000       0.868389        23.6301 
  44   0.0000       0.893575        24.3154 
  45   0.0000       0.906963        24.6797 
  46   0.0000       0.928121        25.2554 
  47   0.0000       0.968392        26.3513 
  48   0.0000       1.005182        27.3524 
  49   0.0000       1.072330        29.1796 
  50   0.0000       1.077440        29.3186 
  51   0.0000       1.117692        30.4139 
  52   0.0000       1.117956        30.4211 
  53   0.0000       1.212547        32.9951 
  54   0.0000       1.255312        34.1588 
  55   0.0000       1.350839        36.7582 
  56   0.0000       1.359479        36.9933 
  57   0.0000       1.395947        37.9856 
  58   0.0000       1.404663        38.2228 
  59   0.0000       1.450070        39.4584 
  60   0.0000       1.573981        42.8302 
  61   0.0000       1.625241        44.2251 
  62   0.0000       1.630816        44.3768 
  63   0.0000       1.663391        45.2632 
  64   0.0000       1.674029        45.5526 
  65   0.0000       1.711629        46.5758 
  66   0.0000       1.720201        46.8091 
  67   0.0000       1.823107        49.6093 
  68   0.0000       1.858553        50.5738 
  69   0.0000       1.889597        51.4186 
  70   0.0000       1.891967        51.4830 
  71   0.0000       1.908701        51.9384 
  72   0.0000       1.946201        52.9588 
  73   0.0000       1.966280        53.5052 
  74   0.0000       1.991831        54.2005 
  75   0.0000       1.996138        54.3177 
  76   0.0000       2.063032        56.1380 
  77   0.0000       2.114202        57.5304 
  78   0.0000       2.124062        57.7987 
  79   0.0000       2.169887        59.0456 
  80   0.0000       2.250233        61.2320 
  81   0.0000       2.264392        61.6173 
  82   0.0000       2.298865        62.5553 
  83   0.0000       2.331538        63.4444 
  84   0.0000       2.372190        64.5506 
  85   0.0000       2.453613        66.7662 
  86   0.0000       2.463693        67.0405 
  87   0.0000       2.530170        68.8494 
  88   0.0000       2.558978        69.6333 
  89   0.0000       2.593712        70.5785 
  90   0.0000       2.726053        74.1797 
  91   0.0000       2.729416        74.2712 
  92   0.0000       2.758540        75.0637 
  93   0.0000       2.792968        76.0005 
  94   0.0000       2.801177        76.2239 
  95   0.0000       2.819289        76.7167 
  96   0.0000       2.843277        77.3695 
  97   0.0000       3.024668        82.3054 
  98   0.0000       3.076958        83.7283 
  99   0.0000       3.135309        85.3161 
 100   0.0000       3.217373        87.5492 
 101   0.0000       3.427759        93.2741 
 102   0.0000       3.508899        95.4820 
 103   0.0000       3.845506       104.6415 
 104   0.0000       3.884284       105.6967 

                    ********************************
                    * MULLIKEN POPULATION ANALYSIS *
                    ********************************

-----------------------
MULLIKEN ATOMIC CHARGES
-----------------------
   0 C :   -0.032039
   1 C :    0.289084
   2 N :   -0.379763
   3 C :    0.120057
   4 O :   -0.422513
   5 H :    0.115942
   6 H :    0.054685
   7 H :    0.068597
   8 H :    0.054702
   9 H :    0.030280
  10 H :    0.050419
  11 H :    0.050549
Sum of atomic charges:   -0.0000000

--------------------------------
MULLIKEN REDUCED ORBITAL CHARGES
--------------------------------
  0 C s       :     3.014895  s :     3.014895
      pz      :     1.008269  p :     2.965103
      px      :     0.944041
      py      :     1.012793
      dz2     :     0.010176  d :     0.052041
      dxz     :     0.002821
      dyz     :     0.013916
      dx2y2   :     0.008497
      dxy     :     0.016632
  1 C s       :     3.083445  s :     3.083445
      pz      :     0.681825  p :     2.387269
      px      :     0.855926
      py      :     0.849517
      dz2     :     0.009733  d :     0.240203
      dxz     :     0.019013
      dyz     :     0.058688
      dx2y2   :     0.050980
      dxy     :     0.101789
  2 N s       :     3.408620  s :     3.408620
      pz      :     1.739481  p :     3.938274
      px      :     1.121200
      py      :     1.077593
      dz2     :     0.002206  d :     0.032869
      dxz     :     0.005129
      dyz     :     0.001520
      dx2y2   :     0.012139
      dxy     :     0.011876
  3 C s       :     3.001231  s :     3.001231
      pz      :     1.029136  p :     2.794514
      px      :     0.785345
      py      :     0.980033
      dz2     :     0.014923  d :     0.084199
      dxz     :     0.013870
      dyz     :     0.016594
      dx2y2   :     0.015340
      dxy     :     0.023472
  4 O s       :     3.764764  s :     3.764764
      pz      :     1.468452  p :     4.637802
      px      :     1.825896
      py      :     1.343454
      dz2     :     0.002331  d :     0.019947
      dxz     :     0.000053
      dyz     :     0.006059
      dx2y2   :     0.007767
      dxy     :     0.003738
  5 H s       :     0.826616  s :     0.826616
      pz      :     0.015892  p :     0.057442
      px      :     0.005567
      py      :     0.035984
  6 H s       :     0.913672  s :     0.913672
      pz      :     0.015957  p :     0.031643
      px      :     0.004913
      py      :     0.010773
  7 H s       :     0.900025  s :     0.900025
      pz      :     0.005193  p :     0.031378
      px      :     0.012805
      py      :     0.013381
  8 H s       :     0.913655  s :     0.913655
      pz      :     0.015968  p :     0.031643
      px      :     0.004914
      py      :     0.010760
  9 H s       :     0.939640  s :     0.939640
      pz      :     0.005840  p :     0.030080
      px      :     0.010722
      py      :     0.013518
 10 H s       :     0.919659  s :     0.919659
      pz      :     0.015982  p :     0.029922
      px      :     0.003185
      py      :     0.010755
 11 H s       :     0.919525  s :     0.919525
      pz      :     0.015934  p :     0.029926
      px      :     0.003180
      py      :     0.010811


                     *******************************
                     * LOEWDIN POPULATION ANALYSIS *
                     *******************************

----------------------
LOEWDIN ATOMIC CHARGES
----------------------
   0 C :   -0.060404
   1 C :   -0.036001
   2 N :    0.036684
   3 C :    0.002272
   4 O :   -0.180195
   5 H :    0.053238
   6 H :    0.034720
   7 H :    0.041833
   8 H :    0.034733
   9 H :    0.021756
  10 H :    0.025643
  11 H :    0.025722

-------------------------------
LOEWDIN REDUCED ORBITAL CHARGES
-------------------------------
  0 C s       :     2.802939  s :     2.802939
      pz      :     1.050272  p :     3.112548
      px      :     1.013613
      py      :     1.048662
      dz2     :     0.029236  d :     0.144918
      dxz     :     0.007107
      dyz     :     0.040710
      dx2y2   :     0.022214
      dxy     :     0.045651
  1 C s       :     2.828832  s :     2.828832
      pz      :     0.700545  p :     2.679965
      px      :     0.971561
      py      :     1.007859
      dz2     :     0.027398  d :     0.527204
      dxz     :     0.044295
      dyz     :     0.113841
      dx2y2   :     0.118805
      dxy     :     0.222865
  2 N s       :     2.997402  s :     2.997402
      pz      :     1.606197  p :     3.881775
      px      :     1.141666
      py      :     1.133911
      dz2     :     0.005541  d :     0.084139
      dxz     :     0.010234
      dyz     :     0.002901
      dx2y2   :     0.035783
      dxy     :     0.029680
  3 C s       :     2.794366  s :     2.794366
      pz      :     1.072876  p :     2.988957
      px      :     0.876721
      py      :     1.039360
      dz2     :     0.035733  d :     0.214405
      dxz     :     0.037475
      dyz     :     0.049354
      dx2y2   :     0.035351
      dxy     :     0.056493
  4 O s       :     3.502208  s :     3.502208
      pz      :     1.435765  p :     4.646846
      px      :     1.765001
      py      :     1.446079
      dz2     :     0.004494  d :     0.031142
      dxz     :     0.000048
      dyz     :     0.006158
      dx2y2   :     0.014474
      dxy     :     0.005968
  5 H s       :     0.796638  s :     0.796638
      pz      :     0.052139  p :     0.150125
      px      :     0.021292
      py      :     0.076694
  6 H s       :     0.884898  s :     0.884898
      pz      :     0.037053  p :     0.080382
      px      :     0.016304
      py      :     0.027025
  7 H s       :     0.877781  s :     0.877781
      pz      :     0.015424  p :     0.080386
      px      :     0.032889
      py      :     0.032072
  8 H s       :     0.884885  s :     0.884885
      pz      :     0.037076  p :     0.080382
      px      :     0.016307
      py      :     0.026999
  9 H s       :     0.901342  s :     0.901342
      pz      :     0.016524  p :     0.076902
      px      :     0.026842
      py      :     0.033536
 10 H s       :     0.896735  s :     0.896735
      pz      :     0.038787  p :     0.077622
      px      :     0.012202
      py      :     0.026634
 11 H s       :     0.896645  s :     0.896645
      pz      :     0.038692  p :     0.077633
      px      :     0.012191
      py      :     0.026750


                      *****************************
                      * MAYER POPULATION ANALYSIS *
                      *****************************

  NA   - Mulliken gross atomic population
  ZA   - Total nuclear charge
  QA   - Mulliken gross atomic charge
  VA   - Mayer's total valence
  BVA  - Mayer's bonded valence
  FA   - Mayer's free valence

  ATOM       NA         ZA         QA         VA         BVA        FA
  0 C      6.0320     6.0000    -0.0320     3.9127     3.9127     0.0000
  1 C      5.7109     6.0000     0.2891     4.2237     4.2237    -0.0000
  2 N      7.3798     7.0000    -0.3798     3.1375     3.1375    -0.0000
  3 C      5.8799     6.0000     0.1201     3.9364     3.9364     0.0000
  4 O      8.4225     8.0000    -0.4225     2.1057     2.1057     0.0000
  5 H      0.8841     1.0000     0.1159     0.9993     0.9993    -0.0000
  6 H      0.9453     1.0000     0.0547     0.9791     0.9791     0.0000
  7 H      0.9314     1.0000     0.0686     0.9966     0.9966     0.0000
  8 H      0.9453     1.0000     0.0547     0.9791     0.9791     0.0000
  9 H      0.9697     1.0000     0.0303     0.9769     0.9769     0.0000
 10 H      0.9496     1.0000     0.0504     0.9801     0.9801     0.0000
 11 H      0.9495     1.0000     0.0505     0.9802     0.9802     0.0000

  Mayer bond orders larger than 0.1
B(  0-C ,  1-C ) :   1.0211 B(  0-C ,  6-H ) :   0.9691 B(  0-C ,  7-H ) :   0.9784 
B(  0-C ,  8-H ) :   0.9690 B(  1-C ,  2-N ) :   1.1810 B(  1-C ,  4-O ) :   1.9962 
B(  2-N ,  3-C ) :   0.9640 B(  2-N ,  5-H ) :   0.9724 B(  3-C ,  9-H ) :   0.9858 
B(  3-C , 10-H ) :   0.9844 B(  3-C , 11-H ) :   0.9844 

-------
TIMINGS
-------

Total SCF time: 0 days 0 hours 0 min 6 sec 

Total time                  ....       6.145 sec
Sum of individual times     ....       5.951 sec  ( 96.8%)

Fock matrix formation       ....       5.911 sec  ( 96.2%)
Diagonalization             ....       0.004 sec  (  0.1%)
Density matrix formation    ....       0.001 sec  (  0.0%)
Population analysis         ....       0.004 sec  (  0.1%)
Initial guess               ....       0.022 sec  (  0.4%)
Orbital Transformation      ....       0.000 sec  (  0.0%)
Orbital Orthonormalization  ....       0.000 sec  (  0.0%)
DIIS solution               ....       0.000 sec  (  0.0%)
SOSCF solution              ....       0.008 sec  (  0.1%)


           ************************************************************
           *        Program running with 4 parallel MPI-processes     *
           *              working on a common directory               *
           ************************************************************


------------------------------------------------------------------------------- 
                              ORCA-MATRIX DRIVEN CI                            
------------------------------------------------------------------------------- 


Wavefunction type
-----------------
Correlation treatment                      ...      CCSD     
Single excitations                         ... ON
Orbital optimization                       ... OFF
Calculation of Z vector                    ... OFF
Calculation of Brueckner orbitals          ... OFF
Perturbative triple excitations            ... ON
Calculation of F12 correction              ... OFF
Frozen core treatment                      ... chemical core (10 el)
Reference Wavefunction                     ... RHF
  Internal Orbitals:     5 ...   19 ( 15 MO's/ 30 electrons)
  Virtual  Orbitals:    20 ...  104 ( 85 MO's              )
Number of AO's                             ...    105
Number of electrons                        ...     40
Number of correlated electrons             ...     30

Algorithmic settings
--------------------
Integral transformation                    ... All integrals via the RI transformation
K(C) Formation                             ... RI-DLPNO
   PNO-Integral Storage                    ... ON DISK
   PNO occupation number cut-off           ... 1.000e-07
   Singles PNO occupation number cut-off   ... 3.000e-09
   PNO Mulliken prescreening cut-off       ... 1.000e-03
   Domain cut-off (Mulliken population)    ... 1.000e-03
   PNO Normalization                       ...    1
Maximum number of iterations               ...        50
Convergence tolerance (max. residuum)      ... 1.000e-05
Level shift for amplitude update           ... 2.000e-01
Maximum number of DIIS vectors             ...         7
DIIS turned on at iteration                ...         0
Damping before turning on DIIS             ...     0.500
Damping after turning on DIIS              ...     0.000
Pair specific amplitude update             ... OFF
Natural orbital iterations                 ... OFF
Perturbative natural orbital generation    ... OFF
Printlevel                                 ... 2

Singles Fock matrix elements calculated using PNOs.

Memory handling:
----------------
Maximum memory for working arrays          ...   8000 MB
Data storage in matrix containers          ... UNCOMPRESSED
Data type for integral storage             ... DOUBLE
In-Core Storage of quantities:
   Amplitudes+Sigma Vector      ... NO
   J+K operators                ... NO
   DIIS vectors                 ... NO
   3-external integrals         ... NO
   4-external integrals         ... NO

Localization treatment:
-----------------------
Localization option                        ...    6
Localization threshhold                    ... -1.0e+00
Using relative localization threshhold     ... 1.0e-08
Neglect threshold for strong pairs         ... 1.000e-05 Eh
Prescreening threshold for very weak pairs ... 1.000e-07 Eh

Initializing the integral package          ... done
Localizing the valence orbitals
------------------------------------------------------------------------------
                           ORCA ORBITAL LOCALIZATION
------------------------------------------------------------------------------

Input orbitals are from                  ... N_methylacetamide_Z.proc0.gbw
Output orbitals are to                   ... N_methylacetamide_Z.proc0.loc
Max. number of iterations                ... 128
Localizations seeded randomly            ... off
Convergence tolerance                    ... 1.000e-06
Using relative localization threshhold   ... 1.000e-08
Treshold for strong local MOs            ... 9.500e-01
Treshold for bond MOs                    ... 8.500e-01
Operator                                 ... 0
Orbital range for localization           ... 5 to 19
Localization criterion                   ... FOSTER-BOYS (AUGMENTED HESSIAN)
Doing the dipole integrals     ... o.k.
Initial value of the localization sum :   147.820424
ITERATION   0 : L=  156.5102446915 DL=  8.69e+00 (AVERGE_DL)=    0.2876807213 
ITERATION   1 : L=  157.6349128278 DL=  1.12e+00 (AVERGE_DL)=    0.1034945656 
ITERATION   2 : L=  157.6573741257 DL=  2.25e-02 (AVERGE_DL)=    0.0146259059 
ITERATION   3 : L=  157.6619624535 DL=  4.59e-03 (AVERGE_DL)=    0.0066104735 
ITERATION   4 : L=  157.6634995564 DL=  1.54e-03 (AVERGE_DL)=    0.0038261044 
ITERATION   5 : L=  157.6641027581 DL=  6.03e-04 (AVERGE_DL)=    0.0023968267 
ITERATION   6 : L=  157.6643508585 DL=  2.48e-04 (AVERGE_DL)=    0.0015371600 
ITERATION   7 : L=  157.6644545193 DL=  1.04e-04 (AVERGE_DL)=    0.0009936023 
ITERATION   8 : L=  157.6644980938 DL=  4.36e-05 (AVERGE_DL)=    0.0006442010 
ITERATION   9 : L=  157.6645164577 DL=  1.84e-05 (AVERGE_DL)=    0.0004182036 
ITERATION  10 : L=  157.6645242049 DL=  7.75e-06 (AVERGE_DL)=    0.0002716313 
ITERATION  11 : L=  157.6645274752 DL=  3.27e-06 (AVERGE_DL)=    0.0001764798 
ITERATION  12 : L=  157.6645288563 DL=  1.38e-06 (AVERGE_DL)=    0.0001146900 
ITERATION  13 : L=  157.6645294394 DL=  5.83e-07 (AVERGE_DL)=    0.0000745211 
LOCALIZATION SUM CONVERGED

------------------------------------------------------
AUGMENTED HESSIAN OPTIMIZATION OF FOSTER-BOYS ORBITALS
------------------------------------------------------

Spin operator:           0
Orbital window:          5 to 19
Number of iterations:    128
Gradient tolerance:      1.000e-06
Number of pairs:         105
Davidson threshold:      2000
Diagonalization method:  LAPACK
Iter:    0   L: 157.6645294394   Grad. norm: 1.780466e-03
   *** Likely close to a maximum now. ***
       Augmented Hessian eigenvalues:  8.60e-07 -3.51e-01 -1.51e+00 -1.75e+00 ... 
Iter:    1   L: 157.6645298693   Grad. norm: 3.076097e-06
Iter:    2   L: 157.6645298693   Grad. norm: 3.857901e-13
LOCALIZATION HAS CONVERGED.

Eigenvalues of the Hessian:
  0 -3.512e-01
  1 -1.515e+00
  2 -1.753e+00
  3 -2.235e+00
  4 -5.346e+00
  5 -5.830e+00
  6 -6.811e+00
  7 -6.887e+00
  8 -8.499e+00
  9 -1.111e+01
    ...


------------------------------------------------------------------------------- 
                    LOCALIZED MOLECULAR ORBITAL COMPOSITIONS                   
------------------------------------------------------------------------------- 

The Mulliken populations for each LMO on each atom are computed
The LMO`s will be ordered according to atom index and type
  (A) Strongly localized MO`s have populations of >=0.950 on one atom
  (B) Two center bond orbitals have populations of >=0.850 on two atoms
  (C) Other MO`s are considered to be `delocalized`

FOUND  -   0 strongly local MO`s
       -  15 two center bond MO`s
       -   0 significantly delocalized MO`s

Bond-like localized orbitals:
MO  19:  11H  -   0.488195  and   3C  -   0.530029
MO  18:  10H  -   0.488303  and   3C  -   0.529944
MO  17:   9H  -   0.501495  and   3C  -   0.511047
MO  16:   8H  -   0.487750  and   0C  -   0.514237
MO  15:   7H  -   0.473141  and   0C  -   0.533899
MO  14:   6H  -   0.487758  and   0C  -   0.514240
MO  13:   5H  -   0.447634  and   2N  -   0.554753
MO  12:   4O  -   0.663686  and   1C  -   0.343723
MO  11:   4O  -   0.663685  and   1C  -   0.343712
MO  10:   4O  -   0.948146  and   1C  -   0.053386
MO   9:   4O  -   0.948732  and   1C  -   0.051192
MO   8:   3C  -   0.373730  and   2N  -   0.648718
MO   7:   2N  -   0.766451  and   1C  -   0.247409
MO   6:   2N  -   0.768066  and   1C  -   0.245496
MO   5:   1C  -   0.563047  and   0C  -   0.484619
Localized MO's were stored in: N_methylacetamide_Z.proc0.loc

Localizing the core orbitals
------------------------------------------------------------------------------
                           ORCA ORBITAL LOCALIZATION
------------------------------------------------------------------------------

Input orbitals are from                  ... N_methylacetamide_Z.proc0.loc
Output orbitals are to                   ... N_methylacetamide_Z.proc0.loc
Max. number of iterations                ... 128
Localizations seeded randomly            ... off
Convergence tolerance                    ... 1.000e-06
Using relative localization threshhold   ... 1.000e-08
Treshold for strong local MOs            ... 9.500e-01
Treshold for bond MOs                    ... 8.500e-01
Operator                                 ... 0
Orbital range for localization           ... 0 to 4
Localization criterion                   ... FOSTER-BOYS (AUGMENTED HESSIAN)
Doing the dipole integrals     ... o.k.
Initial value of the localization sum :    38.043237
ITERATION   0 : L=   38.0432384770 DL=  1.87e-06 (AVERGE_DL)=    0.0004325828 
ITERATION   1 : L=   38.0432384770 DL=  0.00e+00 (AVERGE_DL)=    0.0000000000 
LOCALIZATION SUM CONVERGED

------------------------------------------------------
AUGMENTED HESSIAN OPTIMIZATION OF FOSTER-BOYS ORBITALS
------------------------------------------------------

Spin operator:           0
Orbital window:          0 to 4
Number of iterations:    128
Gradient tolerance:      1.000e-06
Number of pairs:         10
Davidson threshold:      2000
Diagonalization method:  LAPACK
Iter:    0   L: 38.0432384770   Grad. norm: 1.018967e-06
   *** Likely close to a maximum now. ***
       Augmented Hessian eigenvalues:  9.50e-15 -2.16e+01 -2.67e+01 -3.03e+01 ... 
Iter:    1   L: 38.0432384770   Grad. norm: 2.534852e-20
LOCALIZATION HAS CONVERGED.

Eigenvalues of the Hessian:
  0 -2.156e+01
  1 -2.666e+01
  2 -3.030e+01
  3 -3.310e+01
  4 -7.341e+01
  5 -8.361e+01
  6 -8.533e+01
  7 -8.676e+01
  8 -1.105e+02
  9 -2.084e+02


------------------------------------------------------------------------------- 
                    LOCALIZED MOLECULAR ORBITAL COMPOSITIONS                   
------------------------------------------------------------------------------- 

The Mulliken populations for each LMO on each atom are computed
The LMO`s will be ordered according to atom index and type
  (A) Strongly localized MO`s have populations of >=0.950 on one atom
  (B) Two center bond orbitals have populations of >=0.850 on two atoms
  (C) Other MO`s are considered to be `delocalized`

FOUND  -   5 strongly local MO`s
       -   0 two center bond MO`s
       -   0 significantly delocalized MO`s

Rather strongly localized orbitals:
MO   4:   4O  -   0.999667
MO   3:   3C  -   0.999837
MO   2:   2N  -   0.999505
MO   1:   1C  -   1.000278
MO   0:   0C  -   0.999452
Localized MO's were stored in: N_methylacetamide_Z.proc0.loc

Warning: internal orbitals are localized - no re-canonicalization of internal orbitals

--------------------------
CLOSED-SHELL FOCK OPERATOR
--------------------------

RI-JK section for the Fock operator:
  RHF full Fock operator         ... done
  RHF frozen core Fock operator  ... done
Time needed for Fock operator              ...            0.679 sec
Reference energy                           ...   -247.025296708

--------------
DLPNO SETTINGS (2015 fully linear scaling implementation)
--------------

TCutMKN:           1.000e-03
TCutPAO:           1.000e-03
TCutPNO:           1.000e-07
TCutPNOSingles:    3.000e-09
TCutEN:            9.700e-01
TCutPAOExt:        1.000e-01
TCutPairs:         1.000e-05
TCutPre:           1.000e-07
TCutOSV:           1.000e-06
TCutDOij:          1.000e-05
TCutDO:            5.000e-03
TCutC:             1.000e-04
TCutCPAO:          1.000e-03
TCutCMO:           1.000e-03
TScaleDOMP2PreScr: 2.000e+00
TScaleMKNMP2PreScr:1.000e+01
TScalePNOMP2PreScr:1.000e+00
PAO overlap thresh 1.000e-08
Using PNOs for Singles Fock computation
Use new domains
Use fully linear algorithm
TCutTNO:           1.000e-09
TCutMP2Pairs:      1.000e-06
TCutDOStrong:      2.000e-03
TCutMKNStrong:     1.000e-02
TCutMKNWeak:       1.000e-01
TCutDOWeak:        4.000e-03
NTCutTNO:          1

--------------------------
Calculating differential overlap integrals ... ok
--------------------------
ELECTRON PAIR PRESCREENING
--------------------------

Dipole-based pair screening          .... used

   TCutDOij = 1.000000e-05
   TCutPre  = 1.000000e-07
   .... Finished loop over pairs
Total time spent in the prescreening                  ...     0.000 sec
sum of pair energies estimated for screened out pairs ...       0.000000000000 Eh
Thresholds for map construction and integral transformation for crude MP2:
   TCutMKN                    ...     1.0e-02
   TCutDO                     ...     1.0e-02
   TCutPairs                  ...     1.0e-05
   TCutPNO_CrudeMP2           ...     1.0e-07
   TCutPNOSingles_CrudeMP2    ...     3.0e-09
--------------------------------
LOCAL RI TRANSFORMATION (IAVPAO)
--------------------------------

Orbital window:       5 to 19
Number of PAOs:     105
Basis functions:    105 (51 shells)
Aux. functions:     378 (132 shells)

Processing maps (0.0 sec)
Average map sizes:
   Aux shells -> MOs              15.0
   Aux shells -> PAOs            105.0
   MOs        -> AO shells        50.2
   PAOs       -> AO shells        51.0

Calculating integrals (0.3 sec, 4.546 MB)
Sorting integrals (0.0 sec, 4.542 MB)
Total time for the integral transformation: 0.3 sec
--------------------------------
INITIAL GUESS AND PNO GENERATION
--------------------------------

PNO truncation parameters                   .... 
    PAOOverlapThresh   =        1.000e-08

    TCutPairs          =        1.000e-05
    TCutPNO            =        1.000e-07
    TCutPNOSingles     =        3.000e-09
    TCutMP2Pairs       =        1.000e-06
    TCutMKN            =        1.000e-02
    TCutDO             =        1.000e-02

Pair selection                          .... not used
Type of local MP2 treatment                 .... semi-local MP2
Strategy for PNO selection                  .... occupation number selection
Pair density normalization                  .... MP2 norm
Spin component scaling                      .... not used

   .... Finished loop over pairs
Making pair pair interaction lists          ... done

                       ===========================
                        120 OF  120 PAIRS ARE KEPT CCSD PAIRS
                          0 OF  120 PAIRS ARE KEPT MP2 PAIRS FOR (T)
                          0 OF  120 PAIRS ARE SKIPPED
                       ===========================

Total time spent in the initial guess                 ...     0.156 sec
SL-MP2 correlation energy (all non-screened pairs)    ...      -0.735932426195 Eh

Initial PNO correlation energy                        ...      -0.735690037043 Eh
sum of pair energies prescreened and skipped MP2 pairs...       0.000000000000 Eh
sum of pair energies of crude MP2 skipped pairs only  ...       0.000000000000 Eh
sum of MP2 pair energies for pairs that were not kept ...       0.000000000000 Eh
sum of PNO error estimates for the kept pairs         ...      -0.000242389152 Eh
                                                          --------------------
sum of all corrections                                         -0.000242389152
Initial total correlation energy                               -0.735932426195
Thresholds for map construction and integral transformation for fine MP2 and CCSD(T) calculation:
   TCutMKN   ...     1.0e-03
   TCutDO    ...     5.0e-03
   TCutPairs ...     1.0e-05
   TCutCMO   ...     1.0e-03
   TCutCPAO  ...     1.0e-03

Thresholds for map construction and integral transformation for strong Triples:
   TCutMKN   ...     1.0e-02
   TCutDO    ...     1.0e-02
   TCutCMO   ...     1.0e-03
   TCutCPAO  ...     1.0e-03

Thresholds for map construction and integral transformation for weak Triples:
   TCutMKN   ...     1.0e-01
   TCutDO    ...     2.0e-02
   TCutCMO   ...     1.0e-03
   TCutCPAO  ...     1.0e-03

--------------------------------
LOCAL RI TRANSFORMATION (IAVPAO)
--------------------------------

Orbital window:       5 to 19
Number of PAOs:     105
Basis functions:    105 (51 shells)
Aux. functions:     378 (132 shells)

Processing maps (0.0 sec)
Average map sizes:
   Aux shells -> MOs              15.0
   Aux shells -> PAOs            105.0
   MOs        -> AO shells        50.2
   PAOs       -> AO shells        51.0

Calculating integrals (0.3 sec, 4.546 MB)
Sorting integrals (0.0 sec, 4.542 MB)
Total time for the integral transformation: 0.3 sec
--------------------------------
INITIAL GUESS AND PNO GENERATION
--------------------------------

PNO truncation parameters                   .... 
    ScaleTCutPNO       =        1.000e-02
    PAOOverlapThresh   =        1.000e-08

    TCutPairs          =        1.000e-05
    TCutPNO            =        1.000e-07
    TCutPNOSingles     =        3.000e-09
    TCutMP2Pairs       =        1.000e-06
    TCutMKN            =        1.000e-03
    TCutDO             =        5.000e-03

Pair selection                          .... not used
Type of local MP2 treatment                 .... full local PMP2
Strategy for PNO selection                  .... occupation number selection
Pair density normalization                  .... MP2 norm
Spin component scaling                      .... not used

PASS-1: Formation of initial guess LMP2 amplitudes
Initial amplitudes guess done. Entering LMP2 iteration loop:
   Max. no of iterations          ...  50
   Energy convergence tolerance   ...    1.0e-07
   Residual convergence tolerance ...    5.0e-07
   Fock matrix cutoff             ...    1.0e-05 Eh
   DIIS convergence acceleration parameters:
        Max # vectors in DIIS     ... 7
        Start iteration of DIIS   ... 0
        Levelshift                ... 2.000e-01
        Damping factor 1          ... 5.000e-01
        Damping factor 2          ... 1.000e+00
   L-MP2 PNO cut-off              ...   1.0e-09
   L-MP2 PNO cut-off (core)       ...   1.0e-11
                           *** Turning on DIIS ***
LMP2-Iter=   0:  ELMP2= -0.754410101637  DE=   1.8e-02 RMAX=   1.7e-02
LMP2-Iter=   1:  ELMP2= -0.764199756443  DE=   9.8e-03 RMAX=   8.4e-03
LMP2-Iter=   2:  ELMP2= -0.766079680534  DE=   1.9e-03 RMAX=   3.3e-03
LMP2-Iter=   3:  ELMP2= -0.766334726127  DE=   2.6e-04 RMAX=   1.2e-03
LMP2-Iter=   4:  ELMP2= -0.766336884632  DE=   2.2e-06 RMAX=   3.4e-04
LMP2-Iter=   5:  ELMP2= -0.766331289379  DE=   5.6e-06 RMAX=   7.8e-05
LMP2-Iter=   6:  ELMP2= -0.766329983839  DE=   1.3e-06 RMAX=   1.2e-05
LMP2-Iter=   7:  ELMP2= -0.766329952185  DE=   3.2e-08 RMAX=   2.6e-06
LMP2-Iter=   8:  ELMP2= -0.766329990607  DE=   3.8e-08 RMAX=   4.2e-07
LMP2-Iter=   9:  ELMP2= -0.766329989259  DE=   1.3e-09 RMAX=   1.0e-07
LMP2-Iter=  10:  ELMP2= -0.766329989553  DE=   2.9e-10 RMAX=   2.7e-08 => CONVERGED
PASS-2: Formation of Pair natural orbitals
   .... Finished loop over pairs

 PNO Occupation Number Statistics: 
  | Av. % of trace(Dij) retained        ...  99.729721750702
  | sigma^2 in % of trace(Dij) retained ...   2.25e-01
  | Av. % of trace(Di) retained         ...  99.999889878965
  | sigma^2 in % of trace(Di) retained  ...   3.50e-09
 Distributions of % trace(Dij) recovered:
  |       >= 99.9  ...    66 ( 55.0 % of all pairs)
  |   [90.0, 99.0) ...     9 (  7.5 % of all pairs)
  |   [99.0, 99.9) ...    45 ( 37.5 % of all pairs)
 Distributions of % trace(Di) recovered :
  |       >= 99.9  ...    15 (100.0 % of all I-pairs )

Making pair pair interaction lists          ... done

                       ===========================
                        120 OF  120 PAIRS ARE KEPT
                       ===========================

Total time spent in the initial guess                 ...     1.704 sec
L-MP2 correlation energy (all non-screened pairs)     ...      -0.766329989553 Eh
L-MP2 PNO error correction                            ...      -0.000002769584 Eh
                                                          --------------------
Initial total L-MP2 energy (non-screened pairs)       ...      -0.766332759137 Eh

Initial PNO correlation energy                        ...      -0.766112308013 Eh
sum of pair energies estimated for screened out pairs ...       0.000000000000 Eh
sum of MP2 pair energies for pairs that were not kept ...       0.000000000000 Eh
sum of PNO error estimates for the kept pairs         ...      -0.000220451123 Eh
                                                          --------------------
sum of all corrections                                         -0.000220451123
Initial total correlation energy                               -0.766332759137
Thresholds for map construction and integral transformation for fine MP2 and CCSD(T) calculation:
   TCutMKN   ...     1.0e-03
   TCutDO    ...     5.0e-03
   TCutPairs ...     1.0e-05
   TCutCMO   ...     1.0e-03
   TCutCPAO  ...     1.0e-03

Time for aux screen maps:            0.001
Time for maps after fine MP2:            0.003
-----------------------------
LOCAL RI TRANSFORMATION (IJV)
-----------------------------

Orbital window:       5 to 19
Basis functions:    105 (51 shells)
Aux. functions:     378 (132 shells)

Processing maps (0.0 sec)
Average map sizes:
   Aux shells -> MOs(i)           15.0
   Aux shells -> MOs(j)           15.0
   MOs        -> AO shells        50.2

Calculating integrals (0.3 sec, 0.653 MB)
Sorting integrals (0.0 sec, 0.649 MB)
Total time for the integral transformation: 0.3 sec
--------------------------------
LOCAL RI TRANSFORMATION (VABPAO)
--------------------------------

Number of PAOs:     105
Basis functions:    105 (51 shells)
Aux. functions:     378 (132 shells)

Processing maps (0.0 sec)
Average map sizes:
   Aux shells -> PAOs            105.0
   PAOs       -> AO shells        51.0

Calculating integrals (0.3 sec, 56.280 MB)
Finished


-------------------------------------
Pair Pair Term precalculation with     
RI-(ij|mn) and (im|jn) transformation  
ON THE FLY                             
-------------------------------------

   IBatch   1 (of   1)              ... done (    5.533 sec)
Total EXT                           ...           5.533 sec

---------------------
RI-PNO TRANSFORMATION
---------------------

Total Number of PNOs                   ...  3470
Average number of PNOs per pair        ...    28
Maximal number of PNOs per pair        ...    40
   #pairs with  1 -  5 PNOs   :    0
   #pairs with  6 - 10 PNOs   :    2
   #pairs with 11 - 15 PNOs   :    6
   #pairs with 16 - 20 PNOs   :    6
   #pairs with 21 - 25 PNOs   :   21
   #pairs with 26 - 30 PNOs   :   26
   #pairs with 31 - 35 PNOs   :   40
   #pairs with 36 - 40 PNOs   :   19
   #pairs with 41 - 45 PNOs   :    0
   #pairs with 46 - 50 PNOs   :    0

Generation of (ij|ab)[P] integrals            ... on
Generation of (ia|bc)[P],(ja|bc)[P] integrals ... on
Storage of 3 and 4 external integrals         ... on
Generation of ALL (ka|bc)[P] integrals        ... on
Keep RI integrals in memory                   ... off

Ibatch:  1 (of  1)
Starting 2-4 index PNO integral generation ... done

Timings:
Total PNO integral transformation time     ...          1.656 sec
Size of the 3-external file                ...        26 MB
Size of the 4-external file                ...       112 MB
Size of the IKJL file                      ...         0 MB
Size of the all 3-external file            ...       199 MB
Size of the 1-external file                ...         1 MB

Making pair/pair overlap matrices          ... done (    0.244 sec)
Size of the pair overlap file              ... 63 MB
Redoing the guess amplitudes               ... done (    0.001 sec)

-------------------------
FINAL STARTUP INFORMATION
-------------------------

E(0)                                       ...   -247.025296708
E(L-MP2)                                   ...     -0.766332759
E(L-MP2) including corrections             ...     -0.766332759
Initial E(tot)                             ...   -247.791629467
<T|T>                                      ...      0.216285530
Number of pairs included                   ... 120
Total number of pairs                      ... 120

------------------------------------------------
                  RHF COUPLED CLUSTER ITERATIONS
------------------------------------------------

Number of PNO amplitudes to be optimized   ...       106220
Number of non-PNO amplitudes               ...       867000
Untruncated number of regular amplitudes   ...       867000

Iter       E(tot)           E(Corr)          Delta-E          Residual     Time
  0   -247.761414386     -0.735897227      0.030435532      0.019691539    1.39
                           *** Turning on DIIS ***
  1   -247.805472517     -0.779955357     -0.044058130      0.012087644    1.38
  2   -247.830327026     -0.804809867     -0.024854510      0.006248126    1.39
  3   -247.834822582     -0.809305423     -0.004495556      0.003775071    1.39
  4   -247.836276465     -0.810759306     -0.001453883      0.001824277    1.38
  5   -247.836819586     -0.811302427     -0.000543121      0.000732915    1.38
  6   -247.836952091     -0.811434932     -0.000132505      0.000289037    2.40
  7   -247.836977774     -0.811460615     -0.000025683      0.000106014    1.40
  8   -247.836979141     -0.811461981     -0.000001367      0.000042999    1.39
  9   -247.836976938     -0.811459778      0.000002203      0.000020086    9.50
 10   -247.836976295     -0.811459136      0.000000642      0.000013137    1.41
 11   -247.836975645     -0.811458486      0.000000650      0.000007574    1.42
               --- The Coupled-Cluster iterations have converged ---

----------------------
COUPLED CLUSTER ENERGY
----------------------

E(0)                                       ...   -247.025296708
E(CORR)(strong-pairs)                      ...     -0.811458486
E(CORR)(weak-pairs)                        ...     -0.000220451
E(CORR)(corrected)                         ...     -0.811678937
E(TOT)                                     ...   -247.836975645
Singles Norm <S|S>**1/2                    ...      0.075374756  
T1 diagnostic                              ...      0.013761485  

------------------
LARGEST AMPLITUDES
------------------
  11-> 20  11-> 20       0.049350
  12-> 20  12-> 20       0.049345
  15-> 29  15-> 29       0.042312
  14-> 29  14-> 29       0.042079
  16-> 29  16-> 29       0.042079
  19-> 29  19-> 29       0.041051
  18-> 29  18-> 29       0.040724
  12-> 20  11-> 20       0.040442
  17-> 28  17-> 28       0.036962
  17-> 20  17-> 20       0.036656
  14-> 20  14-> 20       0.033931
  16-> 20  16-> 20       0.033926
  19-> 20  19-> 20       0.033608
  18-> 20  18-> 20       0.033605
  15-> 20  15-> 20       0.033429
  13-> 20  13-> 20       0.033016


-------------------------------------------
DLPNO BASED TRIPLES CORRECTION
-------------------------------------------

Singles multiplier          ...  1.000000
TCutTNO                     ... 1.000e-09
TCutMP2Pairs                ... 1.000e-06
TCutDOStrong                ... 1.000e-02
TCutMKNStrong               ... 1.000e-02
TCutDOWeak                  ... 2.000e-02
TCutMKNWeak                 ... 1.000e-01

Fragment selection                          .... not used
Number of Triples that are to be computed   ...       665

 . . . . . . . . .
10% done  
20% done  
30% done  
40% done  
50% done  
60% done  
70% done  
80% done  
90% done               (      9.764 sec)
Triples timings:
Total time for T0               ...    10.476 sec
Total time for Iterative (T)    ...     0.000 sec
Total time of overall (T)       ...    10.872 sec

Triples List generation         ...     0.000 sec
TNO generation                  ...     0.710 sec
Pair density generation         ...     0.001 sec
Look up tables                  ...     0.000 sec
Generating 3-index integrals    ...     3.942 sec
  Make 4-ind.int. from 3-ind.int...     2.325 sec
  Projecting amplitudes (D + S) ...     0.840 sec
  Downprojecting integrals      ...     0.001 sec
  Energy contr. (sum over a,b,c)...     0.817 sec
Fitting ET(->0)                 ...     0.000 sec

Everything after 3-index        ...     5.822 sec

Timing details:
 TNO integrals                  ...     5.954 sec
   Reading 3-index integrals    ...     0.012 sec
   Sorting integrals            ...     1.435 sec
       Sorting integrals 1      ...     0.000 sec
       Sorting integrals 2      ...     0.320 sec
       Sorting integrals 3      ...     0.082 sec
       Sorting integrals 4      ...     0.009 sec
       Sorting integrals 5      ...     0.019 sec
       Sorting integrals 6      ...     1.006 sec
   Calculating local VM**-1/2   ...     0.064 sec
   Orthogonal. integrals        ...     0.128 sec
   Multipl. 3-index integrals   ...     4.316 sec
   All concerning IRIab (w/TNO) ...     1.027 sec

 Calculate W0/W1                ...     1.836 sec
 W 3-ext contribution           ...     1.042 sec
 W 3-int contribution           ...     0.306 sec
 Sorting W                      ...     0.444 sec

 V exchange contribution        ...     0.330 sec

 Timings for Triples without generation
     of 3-index integrals       ...     5.820 sec
       0 weak pairs             ...     5.820 sec
       1 weak pair              ...     0.000 sec
       2 weak pairs             ...     0.000 sec
       3 weak pairs             ...     0.000 sec
  Extra time for extrapolation  ...     0.000 sec

Number of Triples   (0, 1, 2, 3 weak pairs; overall):    665       0       0       0  (   665)
Number of Atoms     (0, 1, 2, 3 weak pairs; overall):   11.8     0.0     0.0     0.0  (    12)
Number of PAOs      (0, 1, 2, 3 weak pairs; overall):  104.0     0.0     0.0     0.0  (   105)
Number of AuxFcns   (0, 1, 2, 3 weak pairs; overall):  200.9     0.0     0.0     0.0  (   378)
Number of TNOs      (0, 1, 2, 3 weak pairs         ):   58.4     0.0     0.0     0.0
Aver. Number of NTNO, Atoms, PAOs, AuxFcns / Triples:    665    58.4    11.8   104.0   200.9

Triples Correction (T)                     ...     -0.024011215
Final correlation energy                   ...     -0.835690152
E(CCSD)                                    ...   -247.836975645
E(CCSD(T))                                 ...   -247.860986860


Maximum memory used throughout the entire calculation: 2047.3 MB


------------------------------------------------------------------------------- 
                                     TIMINGS                                   
------------------------------------------------------------------------------- 


Total execution time                   ...       48.920 sec

Localization of occupied MO's          ...        0.368 sec (  0.8%)
Fock Matrix Formation                  ...        0.679 sec (  1.4%)
Global overlap, Fock, MKN matrices     ...        0.110 sec (  0.2%)
Differential overlap integrals         ...        0.061 sec (  0.1%)
Organizing maps                        ...        0.011 sec (  0.0%)
RI 3-index integral generations        ...        1.188 sec (  2.4%)
RI-PNO integral transformation         ...        7.683 sec ( 15.7%)
Initial Guess                          ...        1.870 sec (  3.8%)
DIIS Solver                            ...        0.372 sec (  0.8%)
State Vector Update                    ...        0.010 sec (  0.0%)
Sigma-vector construction              ...       25.730 sec ( 52.6%)
  <D|H|D>(0-ext)                       ...        1.067 sec (  4.1% of sigma)
  <D|H|D>(2-ext Fock)                  ...        0.009 sec (  0.0% of sigma)
  <D|H|D>(2-ext)                       ...        2.020 sec (  7.9% of sigma)
  <D|H|D>(4-ext)                       ...        1.476 sec (  5.7% of sigma)
  <D|H|D>(4-ext-corr)                  ...        6.861 sec ( 26.7% of sigma)
  CCSD doubles correction              ...        0.104 sec (  0.4% of sigma)
  <S|H|S>                              ...        0.191 sec (  0.7% of sigma)
  <S|H|D>(1-ext)                       ...        0.145 sec (  0.6% of sigma)
  <D|H|S>(1-ext)                       ...        0.007 sec (  0.0% of sigma)
  <S|H|D>(3-ext)                       ...        0.125 sec (  0.5% of sigma)
  Fock-dressing                        ...       10.764 sec ( 41.8% of sigma)
  Singles amplitudes                   ...        0.122 sec (  0.5% of sigma)
  (ik|jl)-dressing                     ...        1.754 sec (  6.8% of sigma)
  (ij|ab),(ia|jb)-dressing             ...        0.998 sec (  3.9% of sigma)
  Pair energies                        ...        0.004 sec (  0.0% of sigma)
Total Time for computing (T)           ...       10.899 sec ( 22.3% of ALL)


-------------------------   --------------------
FINAL SINGLE POINT ENERGY      -247.860986860484
-------------------------   --------------------


                            ***************************************
                            *     ORCA property calculations      *
                            ***************************************

                                    ---------------------
                                    Active property flags
                                    ---------------------
   (+) Dipole Moment


------------------------------------------------------------------------------
                       ORCA ELECTRIC PROPERTIES CALCULATION
------------------------------------------------------------------------------

Dipole Moment Calculation                       ... on
Quadrupole Moment Calculation                   ... off
Polarizability Calculation                      ... off
GBWName                                         ... N_methylacetamide_Z.gbw
Electron density file                           ... N_methylacetamide_Z.scfp.tmp
The origin for moment calculation is the CENTER OF MASS  = ( 0.023175,  0.094889 -0.000024)

-------------
DIPOLE MOMENT
-------------
                                X             Y             Z
Electronic contribution:      0.73892       2.18518      -0.00069
Nuclear contribution   :     -0.92695      -3.79544       0.00099
                        -----------------------------------------
Total Dipole Moment    :     -0.18803      -1.61026       0.00031
                        -----------------------------------------
Magnitude (a.u.)       :      1.62120
Magnitude (Debye)      :      4.12077



--------------------
Rotational spectrum 
--------------------
 
Rotational constants in cm-1:     0.331891     0.128363     0.095894 
Rotational constants in MHz :  9949.837024  3848.224970  2874.842742 

 Dipole components along the rotational axes: 
x,y,z [a.u.] :    -0.243678    -1.602785     0.000329 
x,y,z [Debye]:    -0.619382    -4.073955     0.000837 

 

Timings for individual modules:

Sum of individual times         ...       57.047 sec (=   0.951 min)
GTO integral calculation        ...        1.782 sec (=   0.030 min)   3.1 %
SCF iterations                  ...        6.226 sec (=   0.104 min)  10.9 %
MDCI module                     ...       49.039 sec (=   0.817 min)  86.0 %
                             ****ORCA TERMINATED NORMALLY****
TOTAL RUN TIME: 0 days 0 hours 0 minutes 57 seconds 264 msec
N_methylacetamide_Z.gbw -> /home1/pantazis/klk/VDZ/Nitrogen_compounds/N_methylacetamide_Z.gbw
N_methylacetamide_Z.ges -> /home1/pantazis/klk/VDZ/Nitrogen_compounds/N_methylacetamide_Z.ges
N_methylacetamide_Z.job -> /home1/pantazis/klk/VDZ/Nitrogen_compounds/N_methylacetamide_Z.job
N_methylacetamide_Z.loc -> /home1/pantazis/klk/VDZ/Nitrogen_compounds/N_methylacetamide_Z.loc
N_methylacetamide_Z.nodes -> /home1/pantazis/klk/VDZ/Nitrogen_compounds/N_methylacetamide_Z.nodes
N_methylacetamide_Z.prop -> /home1/pantazis/klk/VDZ/Nitrogen_compounds/N_methylacetamide_Z.prop
N_methylacetamide_Z_property.txt -> /home1/pantazis/klk/VDZ/Nitrogen_compounds/N_methylacetamide_Z_property.txt
N_methylacetamide_Z.xyz -> /home1/pantazis/klk/VDZ/Nitrogen_compounds/N_methylacetamide_Z.xyz
cp: cannot stat N_methylacetamide_Z.asa.inp: No such file or directory
