! Job execution by suborca V 6.07 on ZEUS !
Job started from zeus1, running /scratch/pantazis/N_Me_piperidine_eq__QYWzlN/orca/orca copied from /opt/orca on zeussn149 in /scratch/pantazis/N_Me_piperidine_eq__QYWzlN
Job execution start: Sat Jun 29 11:33:48 CEST 2019
Shared library path: /scratch/pantazis/N_Me_piperidine_eq__QYWzlN/orca:/opt/openmpi_1.10.2/lib:/opt/intel/mkl/lib/intel64:/opt/intel/lib/intel64:
PBS Job ID is: 158855.icqc
izeussn149
izeussn149
izeussn149
izeussn149

                                 *****************
                                 * O   R   C   A *
                                 *****************

           --- An Ab Initio, DFT and Semiempirical electronic structure package ---

                  #######################################################
                  #                        -***-                        #
                  #          Department of theory and spectroscopy      #
                  #               Directorship: Frank Neese             #
                  #        Max Planck Institute fuer Kohlenforschung    #
                  #                Kaiser Wilhelm Platz 1               #
                  #                 D-45470 Muelheim/Ruhr               #
                  #                      Germany                        #
                  #                                                     #
                  #                  All rights reserved                #
                  #                        -***-                        #
                  #######################################################


                         Program Version 4.1.x  -  STABLE  -
                                (SVN: $Rev: 14094$)
                ($Date: 2019-06-14 15:01:15 +0200 (Fri, 14 Jun 2019) $)

                         (BUILD: $Sun Jun 23 06:18:31 CEST 2019$)


 With contributions from (in alphabetic order):
   Daniel Aravena         : Magnetic Properties
   Michael Atanasov       : Ab Initio Ligand Field Theory
   Alexander A. Auer      : GIAO ZORA
   Ute Becker             : Parallelization
   Giovanni Bistoni       : ED, Open-shell LED
   Martin Brehm           : Molecular dynamics
   Dmytro Bykov           : SCF Hessian
   Vijay G. Chilkuri      : MRCI spin determinant printing
   Dipayan Datta          : RHF DLPNO-CCSD density
   Achintya Kumar Dutta   : EOM-CC, STEOM-CC
   Dmitry Ganyushin       : Spin-Orbit,Spin-Spin,Magnetic field MRCI
   Miquel Garcia          : C-PCM Hessian
   Yang Guo               : DLPNO-NEVPT2, CIM, IAO-localization
   Andreas Hansen         : Spin unrestricted coupled pair/coupled cluster methods
   Benjamin Helmich-Paris : CASSCF linear response (MC-RPA)
   Lee Huntington         : MR-EOM, pCC
   Robert Izsak           : Overlap fitted RIJCOSX, COSX-SCS-MP3, EOM
   Christian Kollmar      : KDIIS, OOCD, Brueckner-CCSD(T), CCSD density
   Simone Kossmann        : Meta GGA functionals, TD-DFT gradient, OOMP2, MP2 Hessian
   Martin Krupicka        : AUTO-CI
   Lucas Lang             : DCDCAS
   Dagmar Lenk            : GEPOL surface, SMD
   Dimitrios Liakos       : Extrapolation schemes; parallel MDCI
   Dimitrios Manganas     : ROCIS; embedding schemes
   Dimitrios Pantazis     : SARC Basis sets
   Taras Petrenko         : DFT Hessian,TD-DFT gradient, ASA, ECA, R-Raman, ABS, FL, XAS/XES, NRVS
   Peter Pinski           : DLPNO-MP2, DLPNO-MP2 Gradient
   Christoph Reimann      : Effective Core Potentials
   Marius Retegan         : Local ZFS, SOC
   Christoph Riplinger    : Optimizer, TS searches, QM/MM, DLPNO-CCSD(T), (RO)-DLPNO pert. Triples
   Tobias Risthaus        : Range-separated hybrids, TD-DFT gradient, RPA, STAB
   Michael Roemelt        : Restricted open shell CIS
   Masaaki Saitow         : Open-shell DLPNO
   Barbara Sandhoefer     : DKH picture change effects
   Avijit Sen             : IP-ROCIS
   Kantharuban Sivalingam : CASSCF convergence, NEVPT2, FIC-MRCI
   Bernardo de Souza      : ESD, SOC TD-DFT
   Georgi Stoychev        : AutoAux, RI-MP2 NMR
   Willem Van den Heuvel  : Paramagnetic NMR
   Boris Wezisla          : Elementary symmetry handling
   Frank Wennmohs         : Technical directorship


 We gratefully acknowledge several colleagues who have allowed us to
 interface, adapt or use parts of their codes:
   Stefan Grimme, W. Hujo, H. Kruse,             : VdW corrections, initial TS optimization,
                  C. Bannwarth                     DFT functionals, gCP, sTDA/sTD-DF
   Ed Valeev                                     : LibInt (2-el integral package), F12 methods
   Garnet Chan, S. Sharma, J. Yang, R. Olivares  : DMRG
   Ulf Ekstrom                                   : XCFun DFT Library
   Mihaly Kallay                                 : mrcc  (arbitrary order and MRCC methods)
   Andreas Klamt, Michael Diedenhofen            : otool_cosmo (COSMO solvation model)
   Jiri Pittner, Ondrej Demel                    : Mk-CCSD
   Frank Weinhold                                : gennbo (NPA and NBO analysis)
   Christopher J. Cramer and Donald G. Truhlar   : smd solvation model
   Lars Goerigk                                  : TD-DFT with DH, B97 family of functionals
   V. Asgeirsson, H. Jonsson                     : NEB implementation
   FAccTs GmbH                                   : IRC, NEB, NEB-TS, Multilevel


 Your calculation uses the libint2 library for the computation of 2-el integrals
 For citations please refer to: http://libint.valeyev.net

 This ORCA versions uses:
   CBLAS   interface :  Fast vector & matrix operations
   LAPACKE interface :  Fast linear algebra routines
   SCALAPACK package :  Parallel linear algebra routines




***************************************
The coordinates will be read from file: N_Me_piperidine_eq.xyz
***************************************


----- Orbital basis set information -----
Your calculation utilizes the basis: cc-pVDZ 
       H, B-Ne : Obtained from the ccRepo (grant-hill.group.shef.ac.uk/ccrepo) Feb. 2017
                 T. H. Dunning, Jr., J. Chem. Phys. 90, 1007 (1989)
            He : Obtained from the ccRepo (grant-hill.group.shef.ac.uk/ccrepo) Feb. 2017
                 D. E. Woon, T. H. Dunning, Jr., J. Chem. Phys. 100, 2975 (1994)
  Li-Be, Na-Mg : Obtained from the ccRepo (grant-hill.group.shef.ac.uk/ccrepo) Feb. 2017
                 B. P. Prascher, D. E. Woon, K. A. Peterson, T. H. Dunning, Jr., A. K. Wilson, Theor. Chem. Acc. 128, 69 (2011)
         Al-Ar : Obtained from the ccRepo (grant-hill.group.shef.ac.uk/ccrepo) Feb. 2017
                 D. E. Woon, T. H. Dunning, Jr., J. Chem. Phys. 98, 1358 (1993)
            Ca : Obtained from the Peterson Research Group Website (tyr0.chem.wsu.edu/~kipeters) Feb. 2017
                 J. Koput, K. A. Peterson, J. Phys. Chem. 106, 9595 (2002)
         Sc-Zn : Obtained from the ccRepo (grant-hill.group.shef.ac.uk/ccrepo) Feb. 2017
                 N. B. Balabanov, K. A. Peterson, J. Chem. Phys. 123, 064107 (2005)
                 N. B. Balabanov, K. A. Peterson, J. Chem. Phys. 125, 074110 (2006)
         Ga-Kr : Obtained from the ccRepo (grant-hill.group.shef.ac.uk/ccrepo) Feb. 2017
                 A. K. Wilson, D. E. Woon, K. A. Peterson, T. H. Dunning, Jr., J. Chem. Phys. 110, 7667 (1999)

----- AuxC basis set information -----
Your calculation utilizes the auxiliary basis: cc-pVDZ/C 
  H-He, B, Ne, Al-Ar, Ga-Br : Obtained from the EMSL Basis Set Exchange (bse.pnl.gov) Feb. 2017
                              F. Weigend, A. Kohn, C. Hattig, J. Chem. Phys. 116, 3175 (2002)
               Li-Be, Na-Mg : Obtained from the EMSL Basis Set Exchange (bse.pnl.gov) Feb. 2017
                              C. Haettig, Phys. Chem. Chem. Phys. 7, 59 (2005)
                        C-F : Obtained from the EMSL Basis Set Exchange (bse.pnl.gov) Feb. 2017
                              C. Haettig, Phys. Chem. Chem. Phys. 7, 59 (2005)
                              F. Weigend, A. Kohn, C. Hattig, J. Chem. Phys. 116, 3175 (2002)
                         Kr : Obtained from the TURBOMOLE 7.0 basis set library
                              F. Weigend, A. Kohn, C. Hattig, J. Chem. Phys. 116, 3175 (2002)
                              S function revised in Sep. 2009

----- AuxJK basis set information -----
Your calculation utilizes the auxiliary basis: cc-pVTZ/JK 
  H, B-F, Al-Cl, Ga-Br : Obtained from the TURBOMOLE 7.0 basis set library

================================================================================
                                        WARNINGS
                       Please study these warnings very carefully!
================================================================================


WARNING: MDCI localization with Augmented Hessian Foster-Boys
  ===> : Switching off randomization!

WARNING: Post HF methods need fully converged wavefunctions
  ===> : Setting SCFConvForced true
         You can overwrite this default with %scf ConvForced false 


INFO   : the flag for use of LIBINT has been found!

================================================================================
                                       INPUT FILE
================================================================================
NAME = N_Me_piperidine_eq.inp
|  1> ! RHF DLPNO-CCSD(T) cc-pVDZ RIJK cc-pVTZ/JK cc-pVDZ/C
|  2> ! KDIIS SOSCF TightSCF TightPNO
|  3> 
|  4> %pal nprocs 4 end
|  5> 
|  6> %maxcore 8000
|  7> 
|  8> %scf maxiter 300
|  9>      shift shift 0.2 erroff 0.1 end
| 10> end
| 11> 
| 12> * xyzfile 0 1 N_Me_piperidine_eq.xyz 
| 13> 
| 14> 
| 15>                          ****END OF INPUT****
================================================================================

                       ****************************
                       * Single Point Calculation *
                       ****************************

---------------------------------
CARTESIAN COORDINATES (ANGSTROEM)
---------------------------------
  C      1.900080    0.000000    0.240050
  C      1.156670   -1.259180   -0.226900
  C     -0.317070   -1.211620    0.188750
  N     -0.972740   -0.000010   -0.307660
  C     -0.317100    1.211610    0.188750
  C      1.156640    1.259220   -0.226900
  C     -2.398710   -0.000020   -0.015690
  H     -0.851980   -2.079080   -0.214880
  H     -0.389150   -1.274000    1.296650
  H     -0.389180    1.274000    1.296650
  H     -0.852030    2.079060   -0.214880
  H      1.212260   -1.336390   -1.320320
  H      1.622180   -2.161410    0.188400
  H      1.622130    2.161450    0.188400
  H      1.212230    1.336410   -1.320320
  H      1.960930    0.000010    1.338120
  H      2.931410   -0.000010   -0.132700
  H     -2.867440    0.886360   -0.455540
  H     -2.867450   -0.886380   -0.455560
  H     -2.617720   -0.000030    1.071290

----------------------------
CARTESIAN COORDINATES (A.U.)
----------------------------
  NO LB      ZA    FRAG     MASS         X           Y           Z
   0 C     6.0000    0    12.011    3.590631    0.000000    0.453629
   1 C     6.0000    0    12.011    2.185790   -2.379505   -0.428779
   2 C     6.0000    0    12.011   -0.599175   -2.289630    0.356686
   3 N     7.0000    0    14.007   -1.838212   -0.000019   -0.581393
   4 C     6.0000    0    12.011   -0.599232    2.289611    0.356686
   5 C     6.0000    0    12.011    2.185733    2.379581   -0.428779
   6 C     6.0000    0    12.011   -4.532905   -0.000038   -0.029650
   7 H     1.0000    0     1.008   -1.610009   -3.928892   -0.406064
   8 H     1.0000    0     1.008   -0.735387   -2.407511    2.450313
   9 H     1.0000    0     1.008   -0.735444    2.407511    2.450313
  10 H     1.0000    0     1.008   -1.610103    3.928854   -0.406064
  11 H     1.0000    0     1.008    2.290839   -2.525411   -2.495043
  12 H     1.0000    0     1.008    3.065476   -4.084473    0.356024
  13 H     1.0000    0     1.008    3.065381    4.084549    0.356024
  14 H     1.0000    0     1.008    2.290783    2.525449   -2.495043
  15 H     1.0000    0     1.008    3.705621    0.000019    2.528680
  16 H     1.0000    0     1.008    5.539562   -0.000019   -0.250767
  17 H     1.0000    0     1.008   -5.418676    1.674978   -0.860846
  18 H     1.0000    0     1.008   -5.418695   -1.675015   -0.860884
  19 H     1.0000    0     1.008   -4.946774   -0.000057    2.024445

--------------------------------
INTERNAL COORDINATES (ANGSTROEM)
--------------------------------
 C      0   0   0     0.000000000000     0.00000000     0.00000000
 C      1   0   0     1.535003258303     0.00000000     0.00000000
 C      2   1   0     1.531971430445   110.97096528     0.00000000
 N      3   2   1     1.464351333902   111.37350807    55.76543053
 C      4   3   2     1.464346175636   111.66693754   301.14549000
 C      5   4   3     1.531972983509   111.37402632    58.85480473
 C      4   3   2     1.455553819651   111.75564530   175.13388333
 H      3   2   1     1.096144487100   110.17989289   175.77676295
 H      3   2   1     1.111993345664   109.32544111   292.98718284
 H      5   4   3     1.111993906683   110.80266413   296.92735087
 H      5   4   3     1.096146333434   108.14709280   180.06001362
 H      2   1   3     1.097551333014   109.64756137   120.13862426
 H      2   1   3     1.096901373415   110.73341877   238.38634325
 H      6   5   4     1.096892885837   109.33422192   181.80491588
 H      6   5   4     1.097549926245   108.73584086    64.91240982
 H      1   2   3     1.099754721517   109.30153124    67.58986210
 H      1   2   3     1.096623969964   110.61346436   184.78511379
 H      7   4   3     1.094917960306   109.80429315   183.61630786
 H      7   4   3     1.094914085260   109.80536531   302.34489192
 H      7   4   3     1.108824107151   112.96319365    62.98107797

---------------------------
INTERNAL COORDINATES (A.U.)
---------------------------
 C      0   0   0     0.000000000000     0.00000000     0.00000000
 C      1   0   0     2.900735772869     0.00000000     0.00000000
 C      2   1   0     2.895006448533   110.97096528     0.00000000
 N      3   2   1     2.767222984917   111.37350807    55.76543053
 C      4   3   2     2.767213237207   111.66693754   301.14549000
 C      5   4   3     2.895009383397   111.37402632    58.85480473
 C      4   3   2     2.750598092323   111.75564530   175.13388333
 H      3   2   1     2.071412883827   110.17989289   175.77676295
 H      3   2   1     2.101362886047   109.32544111   292.98718284
 H      5   4   3     2.101363946220   110.80266413   296.92735087
 H      5   4   3     2.071416372891   108.14709280   180.06001362
 H      2   1   3     2.074071437316   109.64756137   120.13862426
 H      2   1   3     2.072843191677   110.73341877   238.38634325
 H      6   5   4     2.072827152479   109.33422192   181.80491588
 H      6   5   4     2.074068778908   108.73584086    64.91240982
 H      1   2   3     2.078235238155   109.30153124    67.58986210
 H      1   2   3     2.072318975126   110.61346436   184.78511379
 H      7   4   3     2.069095084089   109.80429315   183.61630786
 H      7   4   3     2.069087761314   109.80536531   302.34489192
 H      7   4   3     2.095373893206   112.96319365    62.98107797

---------------------
BASIS SET INFORMATION
---------------------
There are 3 groups of distinct atoms

 Group   1 Type C   : 17s4p1d contracted to 3s2p1d pattern {881/31/1}
 Group   2 Type N   : 17s4p1d contracted to 3s2p1d pattern {881/31/1}
 Group   3 Type H   : 4s1p contracted to 2s1p pattern {31/1}

Atom   0C    basis set group =>   1
Atom   1C    basis set group =>   1
Atom   2C    basis set group =>   1
Atom   3N    basis set group =>   2
Atom   4C    basis set group =>   1
Atom   5C    basis set group =>   1
Atom   6C    basis set group =>   1
Atom   7H    basis set group =>   3
Atom   8H    basis set group =>   3
Atom   9H    basis set group =>   3
Atom  10H    basis set group =>   3
Atom  11H    basis set group =>   3
Atom  12H    basis set group =>   3
Atom  13H    basis set group =>   3
Atom  14H    basis set group =>   3
Atom  15H    basis set group =>   3
Atom  16H    basis set group =>   3
Atom  17H    basis set group =>   3
Atom  18H    basis set group =>   3
Atom  19H    basis set group =>   3
-------------------------------
AUXILIARY BASIS SET INFORMATION
-------------------------------
There are 3 groups of distinct atoms

 Group   1 Type C   : 7s5p4d2f contracted to 7s5p4d2f pattern {1111111/11111/1111/11}
 Group   2 Type N   : 7s5p4d2f contracted to 7s5p4d2f pattern {1111111/11111/1111/11}
 Group   3 Type H   : 3s2p1d contracted to 3s2p1d pattern {111/11/1}

Atom   0C    basis set group =>   1
Atom   1C    basis set group =>   1
Atom   2C    basis set group =>   1
Atom   3N    basis set group =>   2
Atom   4C    basis set group =>   1
Atom   5C    basis set group =>   1
Atom   6C    basis set group =>   1
Atom   7H    basis set group =>   3
Atom   8H    basis set group =>   3
Atom   9H    basis set group =>   3
Atom  10H    basis set group =>   3
Atom  11H    basis set group =>   3
Atom  12H    basis set group =>   3
Atom  13H    basis set group =>   3
Atom  14H    basis set group =>   3
Atom  15H    basis set group =>   3
Atom  16H    basis set group =>   3
Atom  17H    basis set group =>   3
Atom  18H    basis set group =>   3
Atom  19H    basis set group =>   3
-------------------------------
AUXILIARY BASIS SET INFORMATION
-------------------------------
There are 3 groups of distinct atoms

 Group   1 Type C   : 10s7p5d2f1g contracted to 10s7p5d2f1g pattern {1111111111/1111111/11111/11/1}
 Group   2 Type N   : 10s7p5d2f1g contracted to 10s7p5d2f1g pattern {1111111111/1111111/11111/11/1}
 Group   3 Type H   : 4s3p2d1f contracted to 4s3p2d1f pattern {1111/111/11/1}

Atom   0C    basis set group =>   1
Atom   1C    basis set group =>   1
Atom   2C    basis set group =>   1
Atom   3N    basis set group =>   2
Atom   4C    basis set group =>   1
Atom   5C    basis set group =>   1
Atom   6C    basis set group =>   1
Atom   7H    basis set group =>   3
Atom   8H    basis set group =>   3
Atom   9H    basis set group =>   3
Atom  10H    basis set group =>   3
Atom  11H    basis set group =>   3
Atom  12H    basis set group =>   3
Atom  13H    basis set group =>   3
Atom  14H    basis set group =>   3
Atom  15H    basis set group =>   3
Atom  16H    basis set group =>   3
Atom  17H    basis set group =>   3
Atom  18H    basis set group =>   3
Atom  19H    basis set group =>   3

Checking for AutoStart:
The File: N_Me_piperidine_eq.gbw exists
Trying to determine its content:
     ... Fine, the file contains calculation information
     ... Fine, the calculation information was read
     ... Fine, the file contains a basis set
     ... Fine, the basis set was read
     ... Fine, the file contains a geometry
     ... Fine, the geometry was read
     ... Fine, the file contains a set of orbitals
     ... Fine, the orbitals can be read
     => possible old guess file was deleted
     => GBW file was renamed to GES file
     => GES file is set as startup file
     => Guess is set to MORead
     ... now leaving AutoStart



           ************************************************************
           *        Program running with 4 parallel MPI-processes     *
           *              working on a common directory               *
           ************************************************************
------------------------------------------------------------------------------
                           ORCA GTO INTEGRAL CALCULATION
                           -- RI-GTO INTEGRALS CHOSEN --
------------------------------------------------------------------------------

                         BASIS SET STATISTICS AND STARTUP INFO

Gaussian basis set:
 # of primitive gaussian shells          ...  219
 # of primitive gaussian functions       ...  329
 # of contracted shells                  ...   81
 # of contracted basis functions         ...  163
 Highest angular momentum                ...    2
 Maximum contraction depth               ...    8
Auxiliary gaussian basis set:
 # of primitive gaussian shells          ...  305
 # of primitive gaussian functions       ...  943
 # of contracted shells                  ...  305
 # of contracted aux-basis functions     ...  943
 Highest angular momentum                ...    4
 Maximum contraction depth               ...    1
Ratio of auxiliary to basis functions    ...  5.79
Integral package used                  ... LIBINT
 One Electron integrals                  ... done
 Ordering auxiliary basis shells         ... done
 Integral threshhold             Thresh  ...  2.500e-11
 Primitive cut-off               TCut    ...  2.500e-12
 Pre-screening matrix                    ... done
 Shell pair data                         ... 
 Ordering of the shell pairs             ... done (   0.001 sec) 3294 of 3321 pairs
 Determination of significant pairs      ... done (   0.000 sec)
 Creation of shell pair data             ... done (   0.001 sec)
 Storage of shell pair data              ... done (   0.001 sec)
 Shell pair data done in (   0.003 sec)
 Computing two index integrals           ... done
 Cholesky decomposition of the V-matrix  ... done


Timings:
 Total evaluation time                   ...   0.403 sec (  0.007 min)
 One electron matrix time                ...   0.036 sec (  0.001 min) =  9.0%
 Schwartz matrix evaluation time         ...   0.177 sec (  0.003 min) = 43.9%
 Two index repulsion integral time       ...   0.073 sec (  0.001 min) = 18.1%
 Cholesky decomposition of V             ...   0.088 sec (  0.001 min) = 21.7%
 Three index repulsion integral time     ...   0.000 sec (  0.000 min) =  0.0%



           ************************************************************
           *        Program running with 4 parallel MPI-processes     *
           *              working on a common directory               *
           ************************************************************
-------------------------------------------------------------------------------
                                 ORCA SCF
-------------------------------------------------------------------------------

------------
SCF SETTINGS
------------
Hamiltonian:
 Ab initio Hamiltonian  Method          .... Hartree-Fock(GTOs)
 RI-approximation to the Coulomb term is turned on
   Number of auxiliary basis functions  .... 943
   RI-JK (J+K treated both via RI)      .... on


General Settings:
 Integral files         IntName         .... N_Me_piperidine_eq
 Hartree-Fock type      HFTyp           .... RHF
 Total Charge           Charge          ....    0
 Multiplicity           Mult            ....    1
 Number of Electrons    NEL             ....   56
 Basis Dimension        Dim             ....  163
 Nuclear Repulsion      ENuc            ....    333.6166420478 Eh

Convergence Acceleration:
 DIIS                   CNVDIIS         .... off
 Newton-Raphson         CNVNR           .... off
 SOSCF                  CNVSOSCF        .... on
   Start iteration      SOSCFMaxIt      ....   150
   Startup grad/error   SOSCFStart      ....  0.003300
 Level Shifting         CNVShift        .... on
   Level shift para.    LevelShift      ....    0.2000
   Turn off err/grad.   ShiftErr        ....    0.1000
 Zerner damping         CNVZerner       .... off
 Static damping         CNVDamp         .... off
 Fernandez-Rico         CNVRico         .... off

SCF Procedure:
 Maximum # iterations   MaxIter         ....   300
 SCF integral mode      SCFMode         .... Direct
   Integral package                     .... LIBINT
 Reset frequency        DirectResetFreq ....    20
 Integral Threshold     Thresh          ....  2.500e-11 Eh
 Primitive CutOff       TCut            ....  2.500e-12 Eh

Convergence Tolerance:
 Convergence Check Mode ConvCheckMode   .... Total+1el-Energy
 Convergence forced     ConvForced      .... 1
 Energy Change          TolE            ....  1.000e-08 Eh
 1-El. energy change                    ....  1.000e-05 Eh
 Orbital Gradient       TolG            ....  1.000e-05
 Orbital Rotation angle TolX            ....  1.000e-05


Diagonalization of the overlap matrix:
Smallest eigenvalue                        ... 3.088e-03
Time for diagonalization                   ...    0.007 sec
Threshold for overlap eigenvalues          ... 1.000e-08
Number of eigenvalues below threshold      ... 0
Time for construction of square roots      ...    0.006 sec
Total time needed                          ...    0.012 sec

---------------------
INITIAL GUESS: MOREAD
---------------------
Guess MOs are being read from file: N_Me_piperidine_eq.ges
Input Geometry matches current geometry (good)
Atom 0: N(Shells)= 6 and 10 - projection required
Input basis set needs projection
NBasis(read)= 392
NBasis(calc)= 163
Basis set overlap was calculated
Using GuessMode=FMatrix for the initial guess
C*T matrix was formed
Effective Fockian was calculated
Effective Fockian was diagonalized
Initial density was built
                      ------------------
                      INITIAL GUESS DONE (   0.1 sec)
                      ------------------
--------------
SCF ITERATIONS
--------------
ITER       Energy         Delta-E        Max-DP      RMS-DP      [F,P]   Gradient Norm
                             ****Turning on KDIIS(Cayley)****
  0   -289.2384553248   0.000000000000 0.00117751  0.00005268  0.0041293   0.005511763
  1   -289.2385758218  -0.000120496995 0.00234204  0.00010179  0.0037446   0.005007157
                      *** Initiating the SOSCF procedure ***
                           *** Shutting down KDIIS ***
                      *** Re-Reading the Fockian *** 
                      *** Removing any level shift *** 
ITER      Energy       Delta-E        Grad      Rot      Max-DP    RMS-DP
  2   -289.23878073  -0.0002049033  0.002999  0.002999  0.003737  0.000165
  3   -289.23902241  -0.0002416894  0.001797  0.000576  0.005140  0.000229
  4   -289.23915550  -0.0001330813  0.000214  0.000312  0.000730  0.000031
  5   -289.23915928  -0.0000037818  0.000075  0.000073  0.000345  0.000008
  6   -289.23915964  -0.0000003648  0.000023  0.000027  0.000058  0.000002
  7   -289.23915967  -0.0000000270  0.000007  0.000017  0.000025  0.000001
                  ***Gradient check signals convergence***
              ***Rediagonalizing the Fockian in SOSCF/NRSCF***

               *****************************************************
               *                     SUCCESS                       *
               *           SCF CONVERGED AFTER   8 CYCLES          *
               *****************************************************


----------------
TOTAL SCF ENERGY
----------------

Total Energy       :         -289.23915967 Eh           -7870.59767 eV

Components:
Nuclear Repulsion  :          333.61664205 Eh            9078.17036 eV
Electronic Energy  :         -622.85580172 Eh          -16948.76802 eV
One Electron Energy:        -1051.83765459 Eh          -28621.95769 eV
Two Electron Energy:          428.98185287 Eh           11673.18967 eV

Virial components:
Potential Energy   :         -578.06628978 Eh          -15729.98344 eV
Kinetic Energy     :          288.82713011 Eh            7859.38577 eV
Virial Ratio       :            2.00142656


---------------
SCF CONVERGENCE
---------------

  Last Energy change         ...   -1.7285e-09  Tolerance :   1.0000e-08
  Last MAX-Density change    ...    1.0091e-05  Tolerance :   1.0000e-07
  Last RMS-Density change    ...    2.2966e-07  Tolerance :   5.0000e-09
  Last Orbital Gradient      ...    1.9285e-06  Tolerance :   1.0000e-05
  Last Orbital Rotation      ...    5.9697e-06  Tolerance :   1.0000e-05

             **** THE GBW FILE WAS UPDATED (N_Me_piperidine_eq.gbw) ****
             **** DENSITY FILE WAS UPDATED (N_Me_piperidine_eq.scfp.tmp) ****
             **** ENERGY FILE WAS UPDATED (N_Me_piperidine_eq.en.tmp) ****
----------------
ORBITAL ENERGIES
----------------

  NO   OCC          E(Eh)            E(eV) 
   0   2.0000     -15.540646      -422.8825 
   1   2.0000     -11.246848      -306.0423 
   2   2.0000     -11.246832      -306.0419 
   3   2.0000     -11.245378      -306.0023 
   4   2.0000     -11.221609      -305.3555 
   5   2.0000     -11.220073      -305.3137 
   6   2.0000     -11.219949      -305.3103 
   7   2.0000      -1.225148       -33.3380 
   8   2.0000      -1.065977       -29.0067 
   9   2.0000      -1.009591       -27.4724 
  10   2.0000      -0.930030       -25.3074 
  11   2.0000      -0.843672       -22.9575 
  12   2.0000      -0.828597       -22.5473 
  13   2.0000      -0.748349       -20.3636 
  14   2.0000      -0.653119       -17.7723 
  15   2.0000      -0.619505       -16.8576 
  16   2.0000      -0.619417       -16.8552 
  17   2.0000      -0.603755       -16.4290 
  18   2.0000      -0.573454       -15.6045 
  19   2.0000      -0.548008       -14.9120 
  20   2.0000      -0.530755       -14.4426 
  21   2.0000      -0.528562       -14.3829 
  22   2.0000      -0.497572       -13.5396 
  23   2.0000      -0.483606       -13.1596 
  24   2.0000      -0.460586       -12.5332 
  25   2.0000      -0.440435       -11.9848 
  26   2.0000      -0.439084       -11.9481 
  27   2.0000      -0.346443        -9.4272 
  28   0.0000       0.181801         4.9470 
  29   0.0000       0.201119         5.4727 
  30   0.0000       0.211790         5.7631 
  31   0.0000       0.213875         5.8198 
  32   0.0000       0.248866         6.7720 
  33   0.0000       0.252216         6.8631 
  34   0.0000       0.263120         7.1599 
  35   0.0000       0.273696         7.4476 
  36   0.0000       0.280101         7.6219 
  37   0.0000       0.280491         7.6326 
  38   0.0000       0.289611         7.8807 
  39   0.0000       0.311600         8.4791 
  40   0.0000       0.313689         8.5359 
  41   0.0000       0.332571         9.0497 
  42   0.0000       0.393445        10.7062 
  43   0.0000       0.398210        10.8358 
  44   0.0000       0.420444        11.4409 
  45   0.0000       0.434778        11.8309 
  46   0.0000       0.442965        12.0537 
  47   0.0000       0.450218        12.2510 
  48   0.0000       0.591583        16.0978 
  49   0.0000       0.601289        16.3619 
  50   0.0000       0.624561        16.9952 
  51   0.0000       0.635818        17.3015 
  52   0.0000       0.645674        17.5697 
  53   0.0000       0.670180        18.2365 
  54   0.0000       0.685971        18.6662 
  55   0.0000       0.749100        20.3841 
  56   0.0000       0.785265        21.3682 
  57   0.0000       0.790285        21.5047 
  58   0.0000       0.832446        22.6520 
  59   0.0000       0.838455        22.8155 
  60   0.0000       0.856509        23.3068 
  61   0.0000       0.858236        23.3538 
  62   0.0000       0.871831        23.7237 
  63   0.0000       0.874236        23.7892 
  64   0.0000       0.882513        24.0144 
  65   0.0000       0.887329        24.1455 
  66   0.0000       0.902657        24.5626 
  67   0.0000       0.911027        24.7903 
  68   0.0000       0.911161        24.7939 
  69   0.0000       0.914702        24.8903 
  70   0.0000       0.921730        25.0816 
  71   0.0000       0.924465        25.1560 
  72   0.0000       0.940183        25.5837 
  73   0.0000       0.944267        25.6948 
  74   0.0000       0.949736        25.8436 
  75   0.0000       0.973084        26.4790 
  76   0.0000       0.980649        26.6848 
  77   0.0000       0.989703        26.9312 
  78   0.0000       1.069669        29.1072 
  79   0.0000       1.085750        29.5448 
  80   0.0000       1.103959        30.0403 
  81   0.0000       1.163260        31.6539 
  82   0.0000       1.189837        32.3771 
  83   0.0000       1.249426        33.9986 
  84   0.0000       1.322478        35.9865 
  85   0.0000       1.337558        36.3968 
  86   0.0000       1.373126        37.3647 
  87   0.0000       1.422352        38.7042 
  88   0.0000       1.449375        39.4395 
  89   0.0000       1.481930        40.3254 
  90   0.0000       1.523532        41.4574 
  91   0.0000       1.533952        41.7410 
  92   0.0000       1.571294        42.7571 
  93   0.0000       1.591300        43.3015 
  94   0.0000       1.608981        43.7826 
  95   0.0000       1.672098        45.5001 
  96   0.0000       1.680504        45.7288 
  97   0.0000       1.691104        46.0173 
  98   0.0000       1.691465        46.0271 
  99   0.0000       1.766874        48.0791 
 100   0.0000       1.804843        49.1123 
 101   0.0000       1.808754        49.2187 
 102   0.0000       1.840958        50.0950 
 103   0.0000       1.872075        50.9417 
 104   0.0000       1.882001        51.2118 
 105   0.0000       1.894996        51.5655 
 106   0.0000       1.905879        51.8616 
 107   0.0000       1.927607        52.4529 
 108   0.0000       1.935882        52.6780 
 109   0.0000       1.949446        53.0471 
 110   0.0000       1.951432        53.1012 
 111   0.0000       1.958349        53.2894 
 112   0.0000       1.965716        53.4899 
 113   0.0000       1.968851        53.5752 
 114   0.0000       1.984855        54.0107 
 115   0.0000       2.002695        54.4961 
 116   0.0000       2.003853        54.5276 
 117   0.0000       2.016165        54.8626 
 118   0.0000       2.050560        55.7986 
 119   0.0000       2.055951        55.9453 
 120   0.0000       2.056054        55.9481 
 121   0.0000       2.065890        56.2157 
 122   0.0000       2.096099        57.0377 
 123   0.0000       2.117392        57.6172 
 124   0.0000       2.151714        58.5511 
 125   0.0000       2.177649        59.2568 
 126   0.0000       2.198295        59.8186 
 127   0.0000       2.228927        60.6522 
 128   0.0000       2.277050        61.9617 
 129   0.0000       2.286505        62.2190 
 130   0.0000       2.310803        62.8801 
 131   0.0000       2.327717        63.3404 
 132   0.0000       2.333863        63.5076 
 133   0.0000       2.375110        64.6300 
 134   0.0000       2.382620        64.8344 
 135   0.0000       2.412128        65.6373 
 136   0.0000       2.433041        66.2064 
 137   0.0000       2.462534        67.0090 
 138   0.0000       2.474539        67.3356 
 139   0.0000       2.519268        68.5528 
 140   0.0000       2.545170        69.2576 
 141   0.0000       2.553314        69.4792 
 142   0.0000       2.581110        70.2356 
 143   0.0000       2.609715        71.0140 
 144   0.0000       2.666214        72.5514 
 145   0.0000       2.699191        73.4487 
 146   0.0000       2.717125        73.9367 
 147   0.0000       2.748902        74.8014 
 148   0.0000       2.782851        75.7252 
 149   0.0000       2.794089        76.0310 
 150   0.0000       2.811681        76.5097 
 151   0.0000       2.827737        76.9466 
 152   0.0000       2.880056        78.3703 
 153   0.0000       2.898329        78.8675 
 154   0.0000       2.901935        78.9657 
 155   0.0000       2.952315        80.3366 
 156   0.0000       2.957996        80.4912 
 157   0.0000       2.985147        81.2300 
 158   0.0000       3.043092        82.8067 
 159   0.0000       3.110047        84.6287 
 160   0.0000       3.136411        85.3461 
 161   0.0000       3.148698        85.6804 
 162   0.0000       3.224012        87.7298 

                    ********************************
                    * MULLIKEN POPULATION ANALYSIS *
                    ********************************

-----------------------
MULLIKEN ATOMIC CHARGES
-----------------------
   0 C :   -0.061722
   1 C :   -0.022131
   2 C :    0.114283
   3 N :   -0.512943
   4 C :    0.114280
   5 C :   -0.022134
   6 C :    0.115098
   7 H :    0.026645
   8 H :    0.000542
   9 H :    0.000542
  10 H :    0.026645
  11 H :    0.031856
  12 H :    0.022565
  13 H :    0.022566
  14 H :    0.031857
  15 H :    0.021984
  16 H :    0.026128
  17 H :    0.031129
  18 H :    0.031129
  19 H :    0.001680
Sum of atomic charges:   -0.0000000

--------------------------------
MULLIKEN REDUCED ORBITAL CHARGES
--------------------------------
  0 C s       :     3.078198  s :     3.078198
      pz      :     0.981440  p :     2.899996
      px      :     0.979379
      py      :     0.939178
      dz2     :     0.023481  d :     0.083528
      dxz     :     0.007692
      dyz     :     0.012510
      dx2y2   :     0.021567
      dxy     :     0.018279
  1 C s       :     3.055235  s :     3.055235
      pz      :     0.991682  p :     2.885355
      px      :     0.935364
      py      :     0.958309
      dz2     :     0.022414  d :     0.081541
      dxz     :     0.011081
      dyz     :     0.009955
      dx2y2   :     0.020070
      dxy     :     0.018020
  2 C s       :     3.023094  s :     3.023094
      pz      :     0.943267  p :     2.754219
      px      :     0.949119
      py      :     0.861832
      dz2     :     0.029545  d :     0.108404
      dxz     :     0.013075
      dyz     :     0.017014
      dx2y2   :     0.022321
      dxy     :     0.026450
  3 N s       :     3.555760  s :     3.555760
      pz      :     1.704546  p :     3.909369
      px      :     1.104340
      py      :     1.100483
      dz2     :     0.003939  d :     0.047814
      dxz     :     0.008227
      dyz     :     0.010173
      dx2y2   :     0.013796
      dxy     :     0.011679
  4 C s       :     3.023094  s :     3.023094
      pz      :     0.943267  p :     2.754220
      px      :     0.949123
      py      :     0.861830
      dz2     :     0.029546  d :     0.108405
      dxz     :     0.013074
      dyz     :     0.017014
      dx2y2   :     0.022321
      dxy     :     0.026450
  5 C s       :     3.055244  s :     3.055244
      pz      :     0.991682  p :     2.885352
      px      :     0.935362
      py      :     0.958309
      dz2     :     0.022414  d :     0.081538
      dxz     :     0.011081
      dyz     :     0.009954
      dx2y2   :     0.020069
      dxy     :     0.018020
  6 C s       :     3.008977  s :     3.008977
      pz      :     0.970317  p :     2.789538
      px      :     0.814279
      py      :     1.004941
      dz2     :     0.020520  d :     0.086386
      dxz     :     0.020692
      dyz     :     0.006782
      dx2y2   :     0.021722
      dxy     :     0.016670
  7 H s       :     0.945096  s :     0.945096
      pz      :     0.007041  p :     0.028259
      px      :     0.007470
      py      :     0.013747
  8 H s       :     0.972470  s :     0.972470
      pz      :     0.020501  p :     0.026988
      px      :     0.003322
      py      :     0.003166
  9 H s       :     0.972470  s :     0.972470
      pz      :     0.020501  p :     0.026988
      px      :     0.003322
      py      :     0.003166
 10 H s       :     0.945096  s :     0.945096
      pz      :     0.007041  p :     0.028259
      px      :     0.007471
      py      :     0.013747
 11 H s       :     0.939243  s :     0.939243
      pz      :     0.020746  p :     0.028901
      px      :     0.003880
      py      :     0.004275
 12 H s       :     0.948016  s :     0.948016
      pz      :     0.007079  p :     0.029420
      px      :     0.007138
      py      :     0.015203
 13 H s       :     0.948014  s :     0.948014
      pz      :     0.007079  p :     0.029420
      px      :     0.007138
      py      :     0.015203
 14 H s       :     0.939242  s :     0.939242
      pz      :     0.020746  p :     0.028901
      px      :     0.003880
      py      :     0.004275
 15 H s       :     0.949311  s :     0.949311
      pz      :     0.020514  p :     0.028705
      px      :     0.004484
      py      :     0.003708
 16 H s       :     0.944495  s :     0.944495
      pz      :     0.006750  p :     0.029376
      px      :     0.018705
      py      :     0.003922
 17 H s       :     0.939350  s :     0.939350
      pz      :     0.008012  p :     0.029521
      px      :     0.005995
      py      :     0.015514
 18 H s       :     0.939350  s :     0.939350
      pz      :     0.008012  p :     0.029521
      px      :     0.005995
      py      :     0.015513
 19 H s       :     0.969465  s :     0.969465
      pz      :     0.020389  p :     0.028856
      px      :     0.003434
      py      :     0.005033


                     *******************************
                     * LOEWDIN POPULATION ANALYSIS *
                     *******************************

----------------------
LOEWDIN ATOMIC CHARGES
----------------------
   0 C :   -0.034983
   1 C :   -0.033079
   2 C :   -0.007705
   3 N :   -0.040756
   4 C :   -0.007708
   5 C :   -0.033073
   6 C :   -0.019626
   7 H :    0.017202
   8 H :   -0.004171
   9 H :   -0.004171
  10 H :    0.017202
  11 H :    0.019917
  12 H :    0.020351
  13 H :    0.020349
  14 H :    0.019916
  15 H :    0.015818
  16 H :    0.019426
  17 H :    0.018124
  18 H :    0.018123
  19 H :   -0.001155

-------------------------------
LOEWDIN REDUCED ORBITAL CHARGES
-------------------------------
  0 C s       :     2.792967  s :     2.792967
      pz      :     1.027200  p :     3.036134
      px      :     1.012798
      py      :     0.996136
      dz2     :     0.059922  d :     0.205882
      dxz     :     0.019146
      dyz     :     0.028150
      dx2y2   :     0.054816
      dxy     :     0.043848
  1 C s       :     2.792416  s :     2.792416
      pz      :     1.032389  p :     3.037505
      px      :     0.998004
      py      :     1.007113
      dz2     :     0.057386  d :     0.203158
      dxz     :     0.025753
      dyz     :     0.024217
      dx2y2   :     0.049447
      dxy     :     0.046355
  2 C s       :     2.798280  s :     2.798280
      pz      :     1.015377  p :     2.944069
      px      :     0.993138
      py      :     0.935554
      dz2     :     0.075501  d :     0.265355
      dxz     :     0.030329
      dyz     :     0.043190
      dx2y2   :     0.053078
      dxy     :     0.063257
  3 N s       :     3.078369  s :     3.078369
      pz      :     1.637468  p :     3.862077
      px      :     1.110749
      py      :     1.113859
      dz2     :     0.008748  d :     0.100311
      dxz     :     0.014279
      dyz     :     0.017711
      dx2y2   :     0.031793
      dxy     :     0.027780
  4 C s       :     2.798280  s :     2.798280
      pz      :     1.015377  p :     2.944071
      px      :     0.993141
      py      :     0.935553
      dz2     :     0.075501  d :     0.265358
      dxz     :     0.030328
      dyz     :     0.043192
      dx2y2   :     0.053079
      dxy     :     0.063258
  5 C s       :     2.792424  s :     2.792424
      pz      :     1.032391  p :     3.037503
      px      :     0.998003
      py      :     1.007108
      dz2     :     0.057384  d :     0.203147
      dxz     :     0.025752
      dyz     :     0.024215
      dx2y2   :     0.049444
      dxy     :     0.046352
  6 C s       :     2.802712  s :     2.802712
      pz      :     1.041234  p :     2.992869
      px      :     0.896730
      py      :     1.054905
      dz2     :     0.053819  d :     0.224044
      dxz     :     0.055394
      dyz     :     0.018913
      dx2y2   :     0.049534
      dxy     :     0.046385
  7 H s       :     0.906450  s :     0.906450
      pz      :     0.019265  p :     0.076349
      px      :     0.023000
      py      :     0.034083
  8 H s       :     0.928898  s :     0.928898
      pz      :     0.047716  p :     0.075273
      px      :     0.014859
      py      :     0.012698
  9 H s       :     0.928899  s :     0.928899
      pz      :     0.047715  p :     0.075273
      px      :     0.014859
      py      :     0.012698
 10 H s       :     0.906450  s :     0.906450
      pz      :     0.019265  p :     0.076348
      px      :     0.023001
      py      :     0.034082
 11 H s       :     0.901289  s :     0.901289
      pz      :     0.047230  p :     0.078794
      px      :     0.015899
      py      :     0.015665
 12 H s       :     0.901340  s :     0.901340
      pz      :     0.019941  p :     0.078309
      px      :     0.021721
      py      :     0.036647
 13 H s       :     0.901340  s :     0.901340
      pz      :     0.019942  p :     0.078311
      px      :     0.021721
      py      :     0.036648
 14 H s       :     0.901290  s :     0.901290
      pz      :     0.047230  p :     0.078795
      px      :     0.015899
      py      :     0.015665
 15 H s       :     0.906186  s :     0.906186
      pz      :     0.046358  p :     0.077997
      px      :     0.015529
      py      :     0.016110
 16 H s       :     0.902101  s :     0.902101
      pz      :     0.019019  p :     0.078473
      px      :     0.043101
      py      :     0.016353
 17 H s       :     0.905819  s :     0.905819
      pz      :     0.020684  p :     0.076058
      px      :     0.018356
      py      :     0.037018
 18 H s       :     0.905819  s :     0.905819
      pz      :     0.020685  p :     0.076059
      px      :     0.018357
      py      :     0.037017
 19 H s       :     0.925996  s :     0.925996
      pz      :     0.047016  p :     0.075158
      px      :     0.013289
      py      :     0.014853


                      *****************************
                      * MAYER POPULATION ANALYSIS *
                      *****************************

  NA   - Mulliken gross atomic population
  ZA   - Total nuclear charge
  QA   - Mulliken gross atomic charge
  VA   - Mayer's total valence
  BVA  - Mayer's bonded valence
  FA   - Mayer's free valence

  ATOM       NA         ZA         QA         VA         BVA        FA
  0 C      6.0617     6.0000    -0.0617     4.0114     4.0114    -0.0000
  1 C      6.0221     6.0000    -0.0221     4.0075     4.0075     0.0000
  2 C      5.8857     6.0000     0.1143     3.9492     3.9492    -0.0000
  3 N      7.5129     7.0000    -0.5129     2.9978     2.9978    -0.0000
  4 C      5.8857     6.0000     0.1143     3.9492     3.9492     0.0000
  5 C      6.0221     6.0000    -0.0221     4.0075     4.0075     0.0000
  6 C      5.8849     6.0000     0.1151     3.9437     3.9437    -0.0000
  7 H      0.9734     1.0000     0.0266     0.9730     0.9730    -0.0000
  8 H      0.9995     1.0000     0.0005     0.9673     0.9673     0.0000
  9 H      0.9995     1.0000     0.0005     0.9673     0.9673     0.0000
 10 H      0.9734     1.0000     0.0266     0.9730     0.9730     0.0000
 11 H      0.9681     1.0000     0.0319     0.9705     0.9705     0.0000
 12 H      0.9774     1.0000     0.0226     0.9698     0.9698    -0.0000
 13 H      0.9774     1.0000     0.0226     0.9698     0.9698    -0.0000
 14 H      0.9681     1.0000     0.0319     0.9705     0.9705     0.0000
 15 H      0.9780     1.0000     0.0220     0.9657     0.9657    -0.0000
 16 H      0.9739     1.0000     0.0261     0.9696     0.9696    -0.0000
 17 H      0.9689     1.0000     0.0311     0.9810     0.9810    -0.0000
 18 H      0.9689     1.0000     0.0311     0.9810     0.9810    -0.0000
 19 H      0.9983     1.0000     0.0017     0.9746     0.9746    -0.0000

  Mayer bond orders larger than 0.1
B(  0-C ,  1-C ) :   1.0470 B(  0-C ,  5-C ) :   1.0470 B(  0-C , 15-H ) :   0.9640 
B(  0-C , 16-H ) :   0.9743 B(  1-C ,  2-C ) :   1.0565 B(  1-C , 11-H ) :   0.9604 
B(  1-C , 12-H ) :   0.9695 B(  2-C ,  3-N ) :   0.9835 B(  2-C ,  7-H ) :   0.9737 
B(  2-C ,  8-H ) :   0.9535 B(  3-N ,  4-C ) :   0.9835 B(  3-N ,  6-C ) :   1.0129 
B(  4-C ,  5-C ) :   1.0565 B(  4-C ,  9-H ) :   0.9535 B(  4-C , 10-H ) :   0.9737 
B(  5-C , 13-H ) :   0.9696 B(  5-C , 14-H ) :   0.9604 B(  6-C , 17-H ) :   0.9876 
B(  6-C , 18-H ) :   0.9876 B(  6-C , 19-H ) :   0.9702 

-------
TIMINGS
-------

Total SCF time: 0 days 0 hours 0 min 7 sec 

Total time                  ....       7.313 sec
Sum of individual times     ....       7.120 sec  ( 97.4%)

Fock matrix formation       ....       7.031 sec  ( 96.2%)
Diagonalization             ....       0.010 sec  (  0.1%)
Density matrix formation    ....       0.002 sec  (  0.0%)
Population analysis         ....       0.008 sec  (  0.1%)
Initial guess               ....       0.053 sec  (  0.7%)
Orbital Transformation      ....       0.000 sec  (  0.0%)
Orbital Orthonormalization  ....       0.000 sec  (  0.0%)
DIIS solution               ....       0.000 sec  (  0.0%)
SOSCF solution              ....       0.015 sec  (  0.2%)


           ************************************************************
           *        Program running with 4 parallel MPI-processes     *
           *              working on a common directory               *
           ************************************************************


------------------------------------------------------------------------------- 
                              ORCA-MATRIX DRIVEN CI                            
------------------------------------------------------------------------------- 


Wavefunction type
-----------------
Correlation treatment                      ...      CCSD     
Single excitations                         ... ON
Orbital optimization                       ... OFF
Calculation of Z vector                    ... OFF
Calculation of Brueckner orbitals          ... OFF
Perturbative triple excitations            ... ON
Calculation of F12 correction              ... OFF
Frozen core treatment                      ... chemical core (14 el)
Reference Wavefunction                     ... RHF
  Internal Orbitals:     7 ...   27 ( 21 MO's/ 42 electrons)
  Virtual  Orbitals:    28 ...  162 (135 MO's              )
Number of AO's                             ...    163
Number of electrons                        ...     56
Number of correlated electrons             ...     42

Algorithmic settings
--------------------
Integral transformation                    ... All integrals via the RI transformation
K(C) Formation                             ... RI-DLPNO
   PNO-Integral Storage                    ... ON DISK
   PNO occupation number cut-off           ... 1.000e-07
   Singles PNO occupation number cut-off   ... 3.000e-09
   PNO Mulliken prescreening cut-off       ... 1.000e-03
   Domain cut-off (Mulliken population)    ... 1.000e-03
   PNO Normalization                       ...    1
Maximum number of iterations               ...        50
Convergence tolerance (max. residuum)      ... 1.000e-05
Level shift for amplitude update           ... 2.000e-01
Maximum number of DIIS vectors             ...         7
DIIS turned on at iteration                ...         0
Damping before turning on DIIS             ...     0.500
Damping after turning on DIIS              ...     0.000
Pair specific amplitude update             ... OFF
Natural orbital iterations                 ... OFF
Perturbative natural orbital generation    ... OFF
Printlevel                                 ... 2

Singles Fock matrix elements calculated using PNOs.

Memory handling:
----------------
Maximum memory for working arrays          ...   8000 MB
Data storage in matrix containers          ... UNCOMPRESSED
Data type for integral storage             ... DOUBLE
In-Core Storage of quantities:
   Amplitudes+Sigma Vector      ... NO
   J+K operators                ... NO
   DIIS vectors                 ... NO
   3-external integrals         ... NO
   4-external integrals         ... NO

Localization treatment:
-----------------------
Localization option                        ...    6
Localization threshhold                    ... -1.0e+00
Using relative localization threshhold     ... 1.0e-08
Neglect threshold for strong pairs         ... 1.000e-05 Eh
Prescreening threshold for very weak pairs ... 1.000e-07 Eh

Initializing the integral package          ... done
Localizing the valence orbitals
------------------------------------------------------------------------------
                           ORCA ORBITAL LOCALIZATION
------------------------------------------------------------------------------

Input orbitals are from                  ... N_Me_piperidine_eq.proc0.gbw
Output orbitals are to                   ... N_Me_piperidine_eq.proc0.loc
Max. number of iterations                ... 128
Localizations seeded randomly            ... off
Convergence tolerance                    ... 1.000e-06
Using relative localization threshhold   ... 1.000e-08
Treshold for strong local MOs            ... 9.500e-01
Treshold for bond MOs                    ... 8.500e-01
Operator                                 ... 0
Orbital range for localization           ... 7 to 27
Localization criterion                   ... FOSTER-BOYS (AUGMENTED HESSIAN)
Doing the dipole integrals     ... o.k.
Initial value of the localization sum :   269.567879
ITERATION   0 : L=  285.9786247790 DL=  1.64e+01 (AVERGE_DL)=    0.2795467874 
ITERATION   1 : L=  288.2275550425 DL=  2.25e+00 (AVERGE_DL)=    0.1034852247 
ITERATION   2 : L=  288.2580830142 DL=  3.05e-02 (AVERGE_DL)=    0.0120570019 
ITERATION   3 : L=  288.2582682435 DL=  1.85e-04 (AVERGE_DL)=    0.0009391720 
ITERATION   4 : L=  288.2582690688 DL=  8.25e-07 (AVERGE_DL)=    0.0000626895 
LOCALIZATION SUM CONVERGED

------------------------------------------------------
AUGMENTED HESSIAN OPTIMIZATION OF FOSTER-BOYS ORBITALS
------------------------------------------------------

Spin operator:           0
Orbital window:          7 to 27
Number of iterations:    128
Gradient tolerance:      1.000e-06
Number of pairs:         210
Davidson threshold:      2000
Diagonalization method:  LAPACK
Iter:    0   L: 288.2582690688   Grad. norm: 1.160118e-03
   *** Likely close to a maximum now. ***
       Augmented Hessian eigenvalues:  1.92e-08 -6.24e+00 -6.37e+00 -9.06e+00 ... 
Iter:    1   L: 288.2582690784   Grad. norm: 4.401147e-09
LOCALIZATION HAS CONVERGED.

Eigenvalues of the Hessian:
  0 -6.244e+00
  1 -6.372e+00
  2 -9.063e+00
  3 -1.268e+01
  4 -1.636e+01
  5 -1.650e+01
  6 -1.779e+01
  7 -1.796e+01
  8 -1.796e+01
  9 -1.806e+01
    ...


------------------------------------------------------------------------------- 
                    LOCALIZED MOLECULAR ORBITAL COMPOSITIONS                   
------------------------------------------------------------------------------- 

The Mulliken populations for each LMO on each atom are computed
The LMO`s will be ordered according to atom index and type
  (A) Strongly localized MO`s have populations of >=0.950 on one atom
  (B) Two center bond orbitals have populations of >=0.850 on two atoms
  (C) Other MO`s are considered to be `delocalized`

FOUND  -   1 strongly local MO`s
       -  20 two center bond MO`s
       -   0 significantly delocalized MO`s

Rather strongly localized orbitals:
MO   7:   3N  -   0.970772
Bond-like localized orbitals:
MO  27:  19H  -   0.517239  and   6C  -   0.503004
MO  26:  18H  -   0.499357  and   6C  -   0.516090
MO  25:  17H  -   0.499357  and   6C  -   0.516090
MO  24:  16H  -   0.505846  and   0C  -   0.506344
MO  23:  15H  -   0.510417  and   0C  -   0.502451
MO  22:  14H  -   0.503095  and   5C  -   0.506705
MO  21:  13H  -   0.508074  and   5C  -   0.501113
MO  20:  12H  -   0.508076  and   1C  -   0.501112
MO  19:  11H  -   0.503095  and   1C  -   0.506705
MO  18:  10H  -   0.503925  and   4C  -   0.508274
MO  17:   9H  -   0.520817  and   4C  -   0.497028
MO  16:   8H  -   0.520816  and   2C  -   0.497028
MO  15:   7H  -   0.503925  and   2C  -   0.508274
MO  14:   6C  -   0.421757  and   3N  -   0.614047
MO  13:   5C  -   0.503380  and   4C  -   0.542357
MO  12:   5C  -   0.523834  and   0C  -   0.522806
MO  11:   4C  -   0.423415  and   3N  -   0.613327
MO  10:   3N  -   0.613329  and   2C  -   0.423414
MO   9:   2C  -   0.542357  and   1C  -   0.503380
MO   8:   1C  -   0.523834  and   0C  -   0.522803
Localized MO's were stored in: N_Me_piperidine_eq.proc0.loc

Localizing the core orbitals
------------------------------------------------------------------------------
                           ORCA ORBITAL LOCALIZATION
------------------------------------------------------------------------------

Input orbitals are from                  ... N_Me_piperidine_eq.proc0.loc
Output orbitals are to                   ... N_Me_piperidine_eq.proc0.loc
Max. number of iterations                ... 128
Localizations seeded randomly            ... off
Convergence tolerance                    ... 1.000e-06
Using relative localization threshhold   ... 1.000e-08
Treshold for strong local MOs            ... 9.500e-01
Treshold for bond MOs                    ... 8.500e-01
Operator                                 ... 0
Orbital range for localization           ... 0 to 6
Localization criterion                   ... FOSTER-BOYS (AUGMENTED HESSIAN)
Doing the dipole integrals     ... o.k.
Initial value of the localization sum :    70.067131
ITERATION   0 : L=   70.0671414098 DL=  1.00e-05 (AVERGE_DL)=    0.0006907006 
ITERATION   1 : L=   70.0671414098 DL=  0.00e+00 (AVERGE_DL)=    0.0000000000 
LOCALIZATION SUM CONVERGED

------------------------------------------------------
AUGMENTED HESSIAN OPTIMIZATION OF FOSTER-BOYS ORBITALS
------------------------------------------------------

Spin operator:           0
Orbital window:          0 to 6
Number of iterations:    128
Gradient tolerance:      1.000e-06
Number of pairs:         21
Davidson threshold:      2000
Diagonalization method:  LAPACK
Iter:    0   L: 70.0671414098   Grad. norm: 3.482717e-06
   *** Likely close to a maximum now. ***
       Augmented Hessian eigenvalues:  1.28e-13 -3.03e+01 -3.06e+01 -3.06e+01 ... 
Iter:    1   L: 70.0671414098   Grad. norm: 3.212418e-19
LOCALIZATION HAS CONVERGED.

Eigenvalues of the Hessian:
  0 -3.026e+01
  1 -3.063e+01
  2 -3.063e+01
  3 -3.353e+01
  4 -3.353e+01
  5 -3.366e+01
  6 -3.366e+01
  7 -8.346e+01
  8 -8.346e+01
  9 -8.387e+01
    ...


------------------------------------------------------------------------------- 
                    LOCALIZED MOLECULAR ORBITAL COMPOSITIONS                   
------------------------------------------------------------------------------- 

The Mulliken populations for each LMO on each atom are computed
The LMO`s will be ordered according to atom index and type
  (A) Strongly localized MO`s have populations of >=0.950 on one atom
  (B) Two center bond orbitals have populations of >=0.850 on two atoms
  (C) Other MO`s are considered to be `delocalized`

FOUND  -   7 strongly local MO`s
       -   0 two center bond MO`s
       -   0 significantly delocalized MO`s

Rather strongly localized orbitals:
MO   6:   6C  -   0.999773
MO   5:   5C  -   0.999144
MO   4:   4C  -   0.999438
MO   3:   3N  -   0.999444
MO   2:   2C  -   0.999438
MO   1:   1C  -   0.999144
MO   0:   0C  -   0.999233
Localized MO's were stored in: N_Me_piperidine_eq.proc0.loc

Warning: internal orbitals are localized - no re-canonicalization of internal orbitals

--------------------------
CLOSED-SHELL FOCK OPERATOR
--------------------------

RI-JK section for the Fock operator:
  RHF full Fock operator         ... done
  RHF frozen core Fock operator  ... done
Time needed for Fock operator              ...            1.573 sec
Reference energy                           ...   -289.239159671

--------------
DLPNO SETTINGS (2015 fully linear scaling implementation)
--------------

TCutMKN:           1.000e-03
TCutPAO:           1.000e-03
TCutPNO:           1.000e-07
TCutPNOSingles:    3.000e-09
TCutEN:            9.700e-01
TCutPAOExt:        1.000e-01
TCutPairs:         1.000e-05
TCutPre:           1.000e-07
TCutOSV:           1.000e-06
TCutDOij:          1.000e-05
TCutDO:            5.000e-03
TCutC:             1.000e-04
TCutCPAO:          1.000e-03
TCutCMO:           1.000e-03
TScaleDOMP2PreScr: 2.000e+00
TScaleMKNMP2PreScr:1.000e+01
TScalePNOMP2PreScr:1.000e+00
PAO overlap thresh 1.000e-08
Using PNOs for Singles Fock computation
Use new domains
Use fully linear algorithm
TCutTNO:           1.000e-09
TCutMP2Pairs:      1.000e-06
TCutDOStrong:      2.000e-03
TCutMKNStrong:     1.000e-02
TCutMKNWeak:       1.000e-01
TCutDOWeak:        4.000e-03
NTCutTNO:          1

--------------------------
Calculating differential overlap integrals ... ok
--------------------------
ELECTRON PAIR PRESCREENING
--------------------------

Dipole-based pair screening          .... used

   TCutDOij = 1.000000e-05
   TCutPre  = 1.000000e-07
   .... Finished loop over pairs
Total time spent in the prescreening                  ...     0.000 sec
sum of pair energies estimated for screened out pairs ...       0.000000000000 Eh
Thresholds for map construction and integral transformation for crude MP2:
   TCutMKN                    ...     1.0e-02
   TCutDO                     ...     1.0e-02
   TCutPairs                  ...     1.0e-05
   TCutPNO_CrudeMP2           ...     1.0e-07
   TCutPNOSingles_CrudeMP2    ...     3.0e-09
--------------------------------
LOCAL RI TRANSFORMATION (IAVPAO)
--------------------------------

Orbital window:       7 to 27
Number of PAOs:     163
Basis functions:    163 (81 shells)
Aux. functions:     574 (204 shells)

Processing maps (0.0 sec)
Average map sizes:
   Aux shells -> MOs              21.0
   Aux shells -> PAOs            163.0
   MOs        -> AO shells        79.1
   PAOs       -> AO shells        81.0

Calculating integrals (0.4 sec, 14.997 MB)
Sorting integrals (0.0 sec, 14.990 MB)
Total time for the integral transformation: 0.5 sec
--------------------------------
INITIAL GUESS AND PNO GENERATION
--------------------------------

PNO truncation parameters                   .... 
    PAOOverlapThresh   =        1.000e-08

    TCutPairs          =        1.000e-05
    TCutPNO            =        1.000e-07
    TCutPNOSingles     =        3.000e-09
    TCutMP2Pairs       =        1.000e-06
    TCutMKN            =        1.000e-02
    TCutDO             =        1.000e-02

Pair selection                          .... not used
Type of local MP2 treatment                 .... semi-local MP2
Strategy for PNO selection                  .... occupation number selection
Pair density normalization                  .... MP2 norm
Spin component scaling                      .... not used

   .... Finished loop over pairs
Making pair pair interaction lists          ... done

                       ===========================
                        231 OF  231 PAIRS ARE KEPT CCSD PAIRS
                          0 OF  231 PAIRS ARE KEPT MP2 PAIRS FOR (T)
                          0 OF  231 PAIRS ARE SKIPPED
                       ===========================

Total time spent in the initial guess                 ...     0.770 sec
SL-MP2 correlation energy (all non-screened pairs)    ...      -0.991654804550 Eh

Initial PNO correlation energy                        ...      -0.991133174486 Eh
sum of pair energies prescreened and skipped MP2 pairs...       0.000000000000 Eh
sum of pair energies of crude MP2 skipped pairs only  ...       0.000000000000 Eh
sum of MP2 pair energies for pairs that were not kept ...       0.000000000000 Eh
sum of PNO error estimates for the kept pairs         ...      -0.000521630064 Eh
                                                          --------------------
sum of all corrections                                         -0.000521630064
Initial total correlation energy                               -0.991654804550
Thresholds for map construction and integral transformation for fine MP2 and CCSD(T) calculation:
   TCutMKN   ...     1.0e-03
   TCutDO    ...     5.0e-03
   TCutPairs ...     1.0e-05
   TCutCMO   ...     1.0e-03
   TCutCPAO  ...     1.0e-03

Thresholds for map construction and integral transformation for strong Triples:
   TCutMKN   ...     1.0e-02
   TCutDO    ...     1.0e-02
   TCutCMO   ...     1.0e-03
   TCutCPAO  ...     1.0e-03

Thresholds for map construction and integral transformation for weak Triples:
   TCutMKN   ...     1.0e-01
   TCutDO    ...     2.0e-02
   TCutCMO   ...     1.0e-03
   TCutCPAO  ...     1.0e-03

--------------------------------
LOCAL RI TRANSFORMATION (IAVPAO)
--------------------------------

Orbital window:       7 to 27
Number of PAOs:     163
Basis functions:    163 (81 shells)
Aux. functions:     574 (204 shells)

Processing maps (0.0 sec)
Average map sizes:
   Aux shells -> MOs              21.0
   Aux shells -> PAOs            163.0
   MOs        -> AO shells        79.1
   PAOs       -> AO shells        81.0

Calculating integrals (0.4 sec, 14.997 MB)
Sorting integrals (0.0 sec, 14.990 MB)
Total time for the integral transformation: 0.5 sec
--------------------------------
INITIAL GUESS AND PNO GENERATION
--------------------------------

PNO truncation parameters                   .... 
    ScaleTCutPNO       =        1.000e-02
    PAOOverlapThresh   =        1.000e-08

    TCutPairs          =        1.000e-05
    TCutPNO            =        1.000e-07
    TCutPNOSingles     =        3.000e-09
    TCutMP2Pairs       =        1.000e-06
    TCutMKN            =        1.000e-03
    TCutDO             =        5.000e-03

Pair selection                          .... not used
Type of local MP2 treatment                 .... full local PMP2
Strategy for PNO selection                  .... occupation number selection
Pair density normalization                  .... MP2 norm
Spin component scaling                      .... not used

PASS-1: Formation of initial guess LMP2 amplitudes
Initial amplitudes guess done. Entering LMP2 iteration loop:
   Max. no of iterations          ...  50
   Energy convergence tolerance   ...    1.0e-07
   Residual convergence tolerance ...    5.0e-07
   Fock matrix cutoff             ...    1.0e-05 Eh
   DIIS convergence acceleration parameters:
        Max # vectors in DIIS     ... 7
        Start iteration of DIIS   ... 0
        Levelshift                ... 2.000e-01
        Damping factor 1          ... 5.000e-01
        Damping factor 2          ... 1.000e+00
   L-MP2 PNO cut-off              ...   1.0e-09
   L-MP2 PNO cut-off (core)       ...   1.0e-11
                           *** Turning on DIIS ***
LMP2-Iter=   0:  ELMP2= -1.013075615150  DE=   2.1e-02 RMAX=   4.4e-03
LMP2-Iter=   1:  ELMP2= -1.023514028299  DE=   1.0e-02 RMAX=   1.9e-03
LMP2-Iter=   2:  ELMP2= -1.025074141901  DE=   1.6e-03 RMAX=   3.3e-04
LMP2-Iter=   3:  ELMP2= -1.025193792671  DE=   1.2e-04 RMAX=   1.1e-04
LMP2-Iter=   4:  ELMP2= -1.025196836241  DE=   3.0e-06 RMAX=   2.7e-05
LMP2-Iter=   5:  ELMP2= -1.025195578666  DE=   1.3e-06 RMAX=   9.4e-06
LMP2-Iter=   6:  ELMP2= -1.025195499833  DE=   7.9e-08 RMAX=   1.8e-06
LMP2-Iter=   7:  ELMP2= -1.025195508130  DE=   8.3e-09 RMAX=   5.0e-07
LMP2-Iter=   8:  ELMP2= -1.025195512793  DE=   4.7e-09 RMAX=   5.7e-08 => CONVERGED
PASS-2: Formation of Pair natural orbitals
   .... Finished loop over pairs

 PNO Occupation Number Statistics: 
  | Av. % of trace(Dij) retained        ...  99.602099679521
  | sigma^2 in % of trace(Dij) retained ...   3.32e-01
  | Av. % of trace(Di) retained         ...  99.999843917759
  | sigma^2 in % of trace(Di) retained  ...   2.55e-09
 Distributions of % trace(Dij) recovered:
  |       >= 99.9  ...   108 ( 46.8 % of all pairs)
  |   [90.0, 99.0) ...    35 ( 15.2 % of all pairs)
  |   [99.0, 99.9) ...    88 ( 38.1 % of all pairs)
 Distributions of % trace(Di) recovered :
  |       >= 99.9  ...    21 (100.0 % of all I-pairs )

Making pair pair interaction lists          ... done

                       ===========================
                        231 OF  231 PAIRS ARE KEPT
                       ===========================

Total time spent in the initial guess                 ...     6.960 sec
L-MP2 correlation energy (all non-screened pairs)     ...      -1.025195512793 Eh
L-MP2 PNO error correction                            ...      -0.000008553490 Eh
                                                          --------------------
Initial total L-MP2 energy (non-screened pairs)       ...      -1.025204066283 Eh

Initial PNO correlation energy                        ...      -1.024735725998 Eh
sum of pair energies estimated for screened out pairs ...       0.000000000000 Eh
sum of MP2 pair energies for pairs that were not kept ...       0.000000000000 Eh
sum of PNO error estimates for the kept pairs         ...      -0.000468340285 Eh
                                                          --------------------
sum of all corrections                                         -0.000468340285
Initial total correlation energy                               -1.025204066283
Thresholds for map construction and integral transformation for fine MP2 and CCSD(T) calculation:
   TCutMKN   ...     1.0e-03
   TCutDO    ...     5.0e-03
   TCutPairs ...     1.0e-05
   TCutCMO   ...     1.0e-03
   TCutCPAO  ...     1.0e-03

Time for aux screen maps:            0.003
Time for maps after fine MP2:            0.011
-----------------------------
LOCAL RI TRANSFORMATION (IJV)
-----------------------------

Orbital window:       7 to 27
Basis functions:    163 (81 shells)
Aux. functions:     574 (204 shells)

Processing maps (0.0 sec)
Average map sizes:
   Aux shells -> MOs(i)           21.0
   Aux shells -> MOs(j)           21.0
   MOs        -> AO shells        79.1

Calculating integrals (0.4 sec, 1.938 MB)
Sorting integrals (0.0 sec, 1.931 MB)
Total time for the integral transformation: 0.4 sec
--------------------------------
LOCAL RI TRANSFORMATION (VABPAO)
--------------------------------

Number of PAOs:     163
Basis functions:    163 (81 shells)
Aux. functions:     574 (204 shells)

Processing maps (0.0 sec)
Average map sizes:
   Aux shells -> PAOs            163.0
   PAOs       -> AO shells        81.0

Calculating integrals (0.6 sec, 206.568 MB)
Finished


-------------------------------------
Pair Pair Term precalculation with     
RI-(ij|mn) and (im|jn) transformation  
ON THE FLY                             
-------------------------------------

   IBatch   1 (of   1)              ... done (   28.201 sec)
Total EXT                           ...          28.201 sec

---------------------
RI-PNO TRANSFORMATION
---------------------

Total Number of PNOs                   ...  6664
Average number of PNOs per pair        ...    28
Maximal number of PNOs per pair        ...    44
   #pairs with  1 -  5 PNOs   :    0
   #pairs with  6 - 10 PNOs   :   10
   #pairs with 11 - 15 PNOs   :   19
   #pairs with 16 - 20 PNOs   :   11
   #pairs with 21 - 25 PNOs   :   41
   #pairs with 26 - 30 PNOs   :   37
   #pairs with 31 - 35 PNOs   :   46
   #pairs with 36 - 40 PNOs   :   56
   #pairs with 41 - 45 PNOs   :   11
   #pairs with 46 - 50 PNOs   :    0

Generation of (ij|ab)[P] integrals            ... on
Generation of (ia|bc)[P],(ja|bc)[P] integrals ... on
Storage of 3 and 4 external integrals         ... on
Generation of ALL (ka|bc)[P] integrals        ... on
Keep RI integrals in memory                   ... off

Ibatch:  1 (of  1)
Starting 2-4 index PNO integral generation ... done

Timings:
Total PNO integral transformation time     ...          7.587 sec
Size of the 3-external file                ...        56 MB
Size of the 4-external file                ...       252 MB
Size of the IKJL file                      ...         0 MB
Size of the all 3-external file            ...       588 MB
Size of the 1-external file                ...         3 MB

Making pair/pair overlap matrices          ... done (    1.386 sec)
Size of the pair overlap file              ... 225 MB
Redoing the guess amplitudes               ... done (    0.002 sec)

-------------------------
FINAL STARTUP INFORMATION
-------------------------

E(0)                                       ...   -289.239159671
E(L-MP2)                                   ...     -1.025204066
E(L-MP2) including corrections             ...     -1.025204066
Initial E(tot)                             ...   -290.264363738
<T|T>                                      ...      0.316771185
Number of pairs included                   ... 231
Total number of pairs                      ... 231

------------------------------------------------
                  RHF COUPLED CLUSTER ITERATIONS
------------------------------------------------

Number of PNO amplitudes to be optimized   ...       211796
Number of non-PNO amplitudes               ...      4209975
Untruncated number of regular amplitudes   ...      4209975

Iter       E(tot)           E(Corr)          Delta-E          Residual     Time
  0   -290.231087721     -0.991459710      0.033744357      0.020152685    4.44
                           *** Turning on DIIS ***
  1   -290.306790304     -1.067162293     -0.075702583      0.007511359    4.44
  2   -290.342088555     -1.102460544     -0.035298251      0.002301984    4.42
  3   -290.346684989     -1.107056977     -0.004596433      0.000825906    4.43
  4   -290.347664698     -1.108036687     -0.000979710      0.000597222    4.46
  5   -290.347831980     -1.108203969     -0.000167282      0.000244672    6.77
  6   -290.347873120     -1.108245109     -0.000041140      0.000148228    4.46
  7   -290.347880939     -1.108252928     -0.000007819      0.000060732    4.44
  8   -290.347883408     -1.108255397     -0.000002469      0.000021072    4.44
  9   -290.347883723     -1.108255711     -0.000000315      0.000004812    4.43
               --- The Coupled-Cluster iterations have converged ---

----------------------
COUPLED CLUSTER ENERGY
----------------------

E(0)                                       ...   -289.239159671
E(CORR)(strong-pairs)                      ...     -1.108255711
E(CORR)(weak-pairs)                        ...     -0.000468340
E(CORR)(corrected)                         ...     -1.108724052
E(TOT)                                     ...   -290.347883723
Singles Norm <S|S>**1/2                    ...      0.052192827  
T1 diagnostic                              ...      0.008053528  

------------------
LARGEST AMPLITUDES
------------------
  25-> 36  25-> 36       0.041260
  26-> 36  26-> 36       0.041260
  24-> 37  24-> 37       0.041218
  16-> 36  16-> 36       0.040536
  17-> 36  17-> 36       0.040536
  23-> 37  23-> 37       0.039176
  21-> 37  21-> 37       0.039136
  20-> 37  20-> 37       0.039132
  17-> 28  17-> 28       0.038875
  16-> 28  16-> 28       0.038875
  23-> 28  23-> 28       0.037751
  20-> 28  20-> 28       0.037371
  21-> 28  21-> 28       0.037370
  19-> 28  19-> 28       0.037149
  22-> 28  22-> 28       0.037149
  18-> 28  18-> 28       0.037119


-------------------------------------------
DLPNO BASED TRIPLES CORRECTION
-------------------------------------------

Singles multiplier          ...  1.000000
TCutTNO                     ... 1.000e-09
TCutMP2Pairs                ... 1.000e-06
TCutDOStrong                ... 1.000e-02
TCutMKNStrong               ... 1.000e-02
TCutDOWeak                  ... 2.000e-02
TCutMKNWeak                 ... 1.000e-01

Fragment selection                          .... not used
Number of Triples that are to be computed   ...      1750

 . . . . . . . . .
10% done  
20% done  
30% done  
40% done  
50% done  
60% done  
70% done  
80% done  
90% done               (     56.234 sec)
Triples timings:
Total time for T0               ...    60.629 sec
Total time for Iterative (T)    ...     0.000 sec
Total time of overall (T)       ...    63.990 sec

Triples List generation         ...     0.000 sec
TNO generation                  ...     4.391 sec
Pair density generation         ...     0.003 sec
Look up tables                  ...     0.000 sec
Generating 3-index integrals    ...    28.753 sec
  Make 4-ind.int. from 3-ind.int...    10.064 sec
  Projecting amplitudes (D + S) ...     5.965 sec
  Downprojecting integrals      ...     0.003 sec
  Energy contr. (sum over a,b,c)...     3.348 sec
Fitting ET(->0)                 ...     0.000 sec

Everything after 3-index        ...    27.481 sec

Timing details:
 TNO integrals                  ...    37.564 sec
   Reading 3-index integrals    ...     0.043 sec
   Sorting integrals            ...     7.181 sec
       Sorting integrals 1      ...     0.002 sec
       Sorting integrals 2      ...     2.425 sec
       Sorting integrals 3      ...     0.340 sec
       Sorting integrals 4      ...     0.036 sec
       Sorting integrals 5      ...     0.096 sec
       Sorting integrals 6      ...     4.282 sec
   Calculating local VM**-1/2   ...     0.308 sec
   Orthogonal. integrals        ...     0.579 sec
   Multipl. 3-index integrals   ...    29.453 sec
   All concerning IRIab (w/TNO) ...     4.506 sec

 Calculate W0/W1                ...     8.089 sec
 W 3-ext contribution           ...     4.523 sec
 W 3-int contribution           ...     1.450 sec
 Sorting W                      ...     1.943 sec

 V exchange contribution        ...     1.353 sec

 Timings for Triples without generation
     of 3-index integrals       ...    27.476 sec
       0 weak pairs             ...    27.476 sec
       1 weak pair              ...     0.000 sec
       2 weak pairs             ...     0.000 sec
       3 weak pairs             ...     0.000 sec
  Extra time for extrapolation  ...     0.000 sec

Number of Triples   (0, 1, 2, 3 weak pairs; overall):   1750       0       0       0  (  1750)
Number of Atoms     (0, 1, 2, 3 weak pairs; overall):   19.2     0.0     0.0     0.0  (    20)
Number of PAOs      (0, 1, 2, 3 weak pairs; overall):  158.1     0.0     0.0     0.0  (   163)
Number of AuxFcns   (0, 1, 2, 3 weak pairs; overall):  251.4     0.0     0.0     0.0  (   574)
Number of TNOs      (0, 1, 2, 3 weak pairs         ):   67.2     0.0     0.0     0.0
Aver. Number of NTNO, Atoms, PAOs, AuxFcns / Triples:   1750    67.2    19.2   158.1   251.4

Triples Correction (T)                     ...     -0.033842896
Final correlation energy                   ...     -1.142566947
E(CCSD)                                    ...   -290.347883723
E(CCSD(T))                                 ...   -290.381726619


Maximum memory used throughout the entire calculation: 7048.7 MB


------------------------------------------------------------------------------- 
                                     TIMINGS                                   
------------------------------------------------------------------------------- 


Total execution time                   ...      160.883 sec

Localization of occupied MO's          ...        0.439 sec (  0.3%)
Fock Matrix Formation                  ...        1.573 sec (  1.0%)
Global overlap, Fock, MKN matrices     ...        0.133 sec (  0.1%)
Differential overlap integrals         ...        0.140 sec (  0.1%)
Organizing maps                        ...        0.033 sec (  0.0%)
RI 3-index integral generations        ...        1.993 sec (  1.2%)
RI-PNO integral transformation         ...       37.702 sec ( 23.4%)
Initial Guess                          ...        7.748 sec (  4.8%)
DIIS Solver                            ...        0.724 sec (  0.5%)
State Vector Update                    ...        0.016 sec (  0.0%)
Sigma-vector construction              ...       46.555 sec ( 28.9%)
  <D|H|D>(0-ext)                       ...        3.021 sec (  6.5% of sigma)
  <D|H|D>(2-ext Fock)                  ...        0.015 sec (  0.0% of sigma)
  <D|H|D>(2-ext)                       ...        6.760 sec ( 14.5% of sigma)
  <D|H|D>(4-ext)                       ...        3.162 sec (  6.8% of sigma)
  <D|H|D>(4-ext-corr)                  ...       16.988 sec ( 36.5% of sigma)
  CCSD doubles correction              ...        0.259 sec (  0.6% of sigma)
  <S|H|S>                              ...        0.422 sec (  0.9% of sigma)
  <S|H|D>(1-ext)                       ...        0.370 sec (  0.8% of sigma)
  <D|H|S>(1-ext)                       ...        0.015 sec (  0.0% of sigma)
  <S|H|D>(3-ext)                       ...        0.223 sec (  0.5% of sigma)
  Fock-dressing                        ...        7.723 sec ( 16.6% of sigma)
  Singles amplitudes                   ...        0.288 sec (  0.6% of sigma)
  (ik|jl)-dressing                     ...        4.669 sec ( 10.0% of sigma)
  (ij|ab),(ia|jb)-dressing             ...        2.194 sec (  4.7% of sigma)
  Pair energies                        ...        0.006 sec (  0.0% of sigma)
Total Time for computing (T)           ...       64.070 sec ( 39.8% of ALL)


-------------------------   --------------------
FINAL SINGLE POINT ENERGY      -290.381726618563
-------------------------   --------------------


                            ***************************************
                            *     ORCA property calculations      *
                            ***************************************

                                    ---------------------
                                    Active property flags
                                    ---------------------
   (+) Dipole Moment


------------------------------------------------------------------------------
                       ORCA ELECTRIC PROPERTIES CALCULATION
------------------------------------------------------------------------------

Dipole Moment Calculation                       ... on
Quadrupole Moment Calculation                   ... off
Polarizability Calculation                      ... off
GBWName                                         ... N_Me_piperidine_eq.gbw
Electron density file                           ... N_Me_piperidine_eq.scfp.tmp
The origin for moment calculation is the CENTER OF MASS  = ( 0.005296, -0.000001 -0.023925)

-------------
DIPOLE MOMENT
-------------
                                X             Y             Z
Electronic contribution:      0.30358      -0.00000      -1.14118
Nuclear contribution   :     -0.29643      -0.00001       1.33987
                        -----------------------------------------
Total Dipole Moment    :      0.00715      -0.00001       0.19868
                        -----------------------------------------
Magnitude (a.u.)       :      0.19881
Magnitude (Debye)      :      0.50534



--------------------
Rotational spectrum 
--------------------
 
Rotational constants in cm-1:     0.147229     0.076314     0.055039 
Rotational constants in MHz :  4413.827562  2287.821804  1650.026309 

 Dipole components along the rotational axes: 
x,y,z [a.u.] :    -0.008374    -0.000006     0.198636 
x,y,z [Debye]:    -0.021284    -0.000015     0.504894 

 

Timings for individual modules:

Sum of individual times         ...      168.962 sec (=   2.816 min)
GTO integral calculation        ...        0.502 sec (=   0.008 min)   0.3 %
SCF iterations                  ...        7.395 sec (=   0.123 min)   4.4 %
MDCI module                     ...      161.065 sec (=   2.684 min)  95.3 %
                             ****ORCA TERMINATED NORMALLY****
TOTAL RUN TIME: 0 days 0 hours 2 minutes 49 seconds 203 msec
N_Me_piperidine_eq.gbw -> /home1/pantazis/klk/VDZ/Nitrogen_compounds/N_Me_piperidine_eq.gbw
N_Me_piperidine_eq.ges -> /home1/pantazis/klk/VDZ/Nitrogen_compounds/N_Me_piperidine_eq.ges
N_Me_piperidine_eq.job -> /home1/pantazis/klk/VDZ/Nitrogen_compounds/N_Me_piperidine_eq.job
N_Me_piperidine_eq.loc -> /home1/pantazis/klk/VDZ/Nitrogen_compounds/N_Me_piperidine_eq.loc
N_Me_piperidine_eq.nodes -> /home1/pantazis/klk/VDZ/Nitrogen_compounds/N_Me_piperidine_eq.nodes
N_Me_piperidine_eq.prop -> /home1/pantazis/klk/VDZ/Nitrogen_compounds/N_Me_piperidine_eq.prop
N_Me_piperidine_eq_property.txt -> /home1/pantazis/klk/VDZ/Nitrogen_compounds/N_Me_piperidine_eq_property.txt
N_Me_piperidine_eq.xyz -> /home1/pantazis/klk/VDZ/Nitrogen_compounds/N_Me_piperidine_eq.xyz
cp: cannot stat N_Me_piperidine_eq.asa.inp: No such file or directory
