! Job execution by suborca V 6.07 on ZEUS !
Job started from zeus1, running /scratch/pantazis/N_methylformamide_Z__dZzNAw/orca/orca copied from /opt/orca on zeussn129 in /scratch/pantazis/N_methylformamide_Z__dZzNAw
Job execution start: Sat Jun 29 11:36:12 CEST 2019
Shared library path: /scratch/pantazis/N_methylformamide_Z__dZzNAw/orca:/opt/openmpi_1.10.2/lib:/opt/intel/mkl/lib/intel64:/opt/intel/lib/intel64:
PBS Job ID is: 158861.icqc
izeussn129
izeussn129
izeussn129
izeussn129

                                 *****************
                                 * O   R   C   A *
                                 *****************

           --- An Ab Initio, DFT and Semiempirical electronic structure package ---

                  #######################################################
                  #                        -***-                        #
                  #          Department of theory and spectroscopy      #
                  #               Directorship: Frank Neese             #
                  #        Max Planck Institute fuer Kohlenforschung    #
                  #                Kaiser Wilhelm Platz 1               #
                  #                 D-45470 Muelheim/Ruhr               #
                  #                      Germany                        #
                  #                                                     #
                  #                  All rights reserved                #
                  #                        -***-                        #
                  #######################################################


                         Program Version 4.1.x  -  STABLE  -
                                (SVN: $Rev: 14094$)
                ($Date: 2019-06-14 15:01:15 +0200 (Fri, 14 Jun 2019) $)

                         (BUILD: $Sun Jun 23 06:18:31 CEST 2019$)


 With contributions from (in alphabetic order):
   Daniel Aravena         : Magnetic Properties
   Michael Atanasov       : Ab Initio Ligand Field Theory
   Alexander A. Auer      : GIAO ZORA
   Ute Becker             : Parallelization
   Giovanni Bistoni       : ED, Open-shell LED
   Martin Brehm           : Molecular dynamics
   Dmytro Bykov           : SCF Hessian
   Vijay G. Chilkuri      : MRCI spin determinant printing
   Dipayan Datta          : RHF DLPNO-CCSD density
   Achintya Kumar Dutta   : EOM-CC, STEOM-CC
   Dmitry Ganyushin       : Spin-Orbit,Spin-Spin,Magnetic field MRCI
   Miquel Garcia          : C-PCM Hessian
   Yang Guo               : DLPNO-NEVPT2, CIM, IAO-localization
   Andreas Hansen         : Spin unrestricted coupled pair/coupled cluster methods
   Benjamin Helmich-Paris : CASSCF linear response (MC-RPA)
   Lee Huntington         : MR-EOM, pCC
   Robert Izsak           : Overlap fitted RIJCOSX, COSX-SCS-MP3, EOM
   Christian Kollmar      : KDIIS, OOCD, Brueckner-CCSD(T), CCSD density
   Simone Kossmann        : Meta GGA functionals, TD-DFT gradient, OOMP2, MP2 Hessian
   Martin Krupicka        : AUTO-CI
   Lucas Lang             : DCDCAS
   Dagmar Lenk            : GEPOL surface, SMD
   Dimitrios Liakos       : Extrapolation schemes; parallel MDCI
   Dimitrios Manganas     : ROCIS; embedding schemes
   Dimitrios Pantazis     : SARC Basis sets
   Taras Petrenko         : DFT Hessian,TD-DFT gradient, ASA, ECA, R-Raman, ABS, FL, XAS/XES, NRVS
   Peter Pinski           : DLPNO-MP2, DLPNO-MP2 Gradient
   Christoph Reimann      : Effective Core Potentials
   Marius Retegan         : Local ZFS, SOC
   Christoph Riplinger    : Optimizer, TS searches, QM/MM, DLPNO-CCSD(T), (RO)-DLPNO pert. Triples
   Tobias Risthaus        : Range-separated hybrids, TD-DFT gradient, RPA, STAB
   Michael Roemelt        : Restricted open shell CIS
   Masaaki Saitow         : Open-shell DLPNO
   Barbara Sandhoefer     : DKH picture change effects
   Avijit Sen             : IP-ROCIS
   Kantharuban Sivalingam : CASSCF convergence, NEVPT2, FIC-MRCI
   Bernardo de Souza      : ESD, SOC TD-DFT
   Georgi Stoychev        : AutoAux, RI-MP2 NMR
   Willem Van den Heuvel  : Paramagnetic NMR
   Boris Wezisla          : Elementary symmetry handling
   Frank Wennmohs         : Technical directorship


 We gratefully acknowledge several colleagues who have allowed us to
 interface, adapt or use parts of their codes:
   Stefan Grimme, W. Hujo, H. Kruse,             : VdW corrections, initial TS optimization,
                  C. Bannwarth                     DFT functionals, gCP, sTDA/sTD-DF
   Ed Valeev                                     : LibInt (2-el integral package), F12 methods
   Garnet Chan, S. Sharma, J. Yang, R. Olivares  : DMRG
   Ulf Ekstrom                                   : XCFun DFT Library
   Mihaly Kallay                                 : mrcc  (arbitrary order and MRCC methods)
   Andreas Klamt, Michael Diedenhofen            : otool_cosmo (COSMO solvation model)
   Jiri Pittner, Ondrej Demel                    : Mk-CCSD
   Frank Weinhold                                : gennbo (NPA and NBO analysis)
   Christopher J. Cramer and Donald G. Truhlar   : smd solvation model
   Lars Goerigk                                  : TD-DFT with DH, B97 family of functionals
   V. Asgeirsson, H. Jonsson                     : NEB implementation
   FAccTs GmbH                                   : IRC, NEB, NEB-TS, Multilevel


 Your calculation uses the libint2 library for the computation of 2-el integrals
 For citations please refer to: http://libint.valeyev.net

 This ORCA versions uses:
   CBLAS   interface :  Fast vector & matrix operations
   LAPACKE interface :  Fast linear algebra routines
   SCALAPACK package :  Parallel linear algebra routines




***************************************
The coordinates will be read from file: N_methylformamide_Z.xyz
***************************************


----- Orbital basis set information -----
Your calculation utilizes the basis: cc-pVDZ 
       H, B-Ne : Obtained from the ccRepo (grant-hill.group.shef.ac.uk/ccrepo) Feb. 2017
                 T. H. Dunning, Jr., J. Chem. Phys. 90, 1007 (1989)
            He : Obtained from the ccRepo (grant-hill.group.shef.ac.uk/ccrepo) Feb. 2017
                 D. E. Woon, T. H. Dunning, Jr., J. Chem. Phys. 100, 2975 (1994)
  Li-Be, Na-Mg : Obtained from the ccRepo (grant-hill.group.shef.ac.uk/ccrepo) Feb. 2017
                 B. P. Prascher, D. E. Woon, K. A. Peterson, T. H. Dunning, Jr., A. K. Wilson, Theor. Chem. Acc. 128, 69 (2011)
         Al-Ar : Obtained from the ccRepo (grant-hill.group.shef.ac.uk/ccrepo) Feb. 2017
                 D. E. Woon, T. H. Dunning, Jr., J. Chem. Phys. 98, 1358 (1993)
            Ca : Obtained from the Peterson Research Group Website (tyr0.chem.wsu.edu/~kipeters) Feb. 2017
                 J. Koput, K. A. Peterson, J. Phys. Chem. 106, 9595 (2002)
         Sc-Zn : Obtained from the ccRepo (grant-hill.group.shef.ac.uk/ccrepo) Feb. 2017
                 N. B. Balabanov, K. A. Peterson, J. Chem. Phys. 123, 064107 (2005)
                 N. B. Balabanov, K. A. Peterson, J. Chem. Phys. 125, 074110 (2006)
         Ga-Kr : Obtained from the ccRepo (grant-hill.group.shef.ac.uk/ccrepo) Feb. 2017
                 A. K. Wilson, D. E. Woon, K. A. Peterson, T. H. Dunning, Jr., J. Chem. Phys. 110, 7667 (1999)

----- AuxC basis set information -----
Your calculation utilizes the auxiliary basis: cc-pVDZ/C 
  H-He, B, Ne, Al-Ar, Ga-Br : Obtained from the EMSL Basis Set Exchange (bse.pnl.gov) Feb. 2017
                              F. Weigend, A. Kohn, C. Hattig, J. Chem. Phys. 116, 3175 (2002)
               Li-Be, Na-Mg : Obtained from the EMSL Basis Set Exchange (bse.pnl.gov) Feb. 2017
                              C. Haettig, Phys. Chem. Chem. Phys. 7, 59 (2005)
                        C-F : Obtained from the EMSL Basis Set Exchange (bse.pnl.gov) Feb. 2017
                              C. Haettig, Phys. Chem. Chem. Phys. 7, 59 (2005)
                              F. Weigend, A. Kohn, C. Hattig, J. Chem. Phys. 116, 3175 (2002)
                         Kr : Obtained from the TURBOMOLE 7.0 basis set library
                              F. Weigend, A. Kohn, C. Hattig, J. Chem. Phys. 116, 3175 (2002)
                              S function revised in Sep. 2009

----- AuxJK basis set information -----
Your calculation utilizes the auxiliary basis: cc-pVTZ/JK 
  H, B-F, Al-Cl, Ga-Br : Obtained from the TURBOMOLE 7.0 basis set library

================================================================================
                                        WARNINGS
                       Please study these warnings very carefully!
================================================================================


WARNING: MDCI localization with Augmented Hessian Foster-Boys
  ===> : Switching off randomization!

WARNING: Post HF methods need fully converged wavefunctions
  ===> : Setting SCFConvForced true
         You can overwrite this default with %scf ConvForced false 


INFO   : the flag for use of LIBINT has been found!

================================================================================
                                       INPUT FILE
================================================================================
NAME = N_methylformamide_Z.inp
|  1> ! RHF DLPNO-CCSD(T) cc-pVDZ RIJK cc-pVTZ/JK cc-pVDZ/C
|  2> ! KDIIS SOSCF TightSCF TightPNO
|  3> 
|  4> %pal nprocs 4 end
|  5> 
|  6> %maxcore 8000
|  7> 
|  8> %scf maxiter 300
|  9>      shift shift 0.2 erroff 0.1 end
| 10> end
| 11> 
| 12> * xyzfile 0 1 N_methylformamide_Z.xyz 
| 13> 
| 14> 
| 15>                          ****END OF INPUT****
================================================================================

                       ****************************
                       * Single Point Calculation *
                       ****************************

---------------------------------
CARTESIAN COORDINATES (ANGSTROEM)
---------------------------------
  C     -1.435440   -0.440610    0.000140
  N     -0.472750    0.654060   -0.000610
  C      0.867870    0.435580    0.000150
  O      1.389530   -0.670920    0.000000
  H     -0.801520    1.608400    0.002230
  H     -2.443650   -0.023020   -0.016120
  H     -1.295270   -1.078320   -0.877870
  H     -1.316740   -1.061060    0.893810
  H      1.455610    1.373090    0.000430

----------------------------
CARTESIAN COORDINATES (A.U.)
----------------------------
  NO LB      ZA    FRAG     MASS         X           Y           Z
   0 C     6.0000    0    12.011   -2.712588   -0.832632    0.000265
   1 N     7.0000    0    14.007   -0.893368    1.235994   -0.001153
   2 C     6.0000    0    12.011    1.640037    0.823127    0.000283
   3 O     8.0000    0    15.999    2.625831   -1.267855    0.000000
   4 H     1.0000    0     1.008   -1.514653    3.039436    0.004214
   5 H     1.0000    0     1.008   -4.617829   -0.043501   -0.030462
   6 H     1.0000    0     1.008   -2.447706   -2.037729   -1.658934
   7 H     1.0000    0     1.008   -2.488278   -2.005113    1.689056
   8 H     1.0000    0     1.008    2.750704    2.594764    0.000813

--------------------------------
INTERNAL COORDINATES (ANGSTROEM)
--------------------------------
 C      0   0   0     0.000000000000     0.00000000     0.00000000
 N      1   0   0     1.457763700845     0.00000000     0.00000000
 C      2   1   0     1.358306324950   122.07338001     0.00000000
 O      3   2   1     1.223303489777   124.49763238     0.08543251
 H      2   1   3     1.009387246848   119.66145308   180.25860893
 H      1   2   3     1.091390489147   108.82803670   180.85565976
 H      1   2   3     1.094176966080   110.64903937   300.88192918
 H      1   2   3     1.094392051049   110.76395807    60.76672226
 H      3   2   1     1.106509550840   112.82817517   180.05711307

---------------------------
INTERNAL COORDINATES (A.U.)
---------------------------
 C      0   0   0     0.000000000000     0.00000000     0.00000000
 N      1   0   0     2.754774162568     0.00000000     0.00000000
 C      2   1   0     2.566826960129   122.07338001     0.00000000
 O      3   2   1     2.311708574348   124.49763238     0.08543251
 H      2   1   3     1.907465459616   119.66145308   180.25860893
 H      1   2   3     2.062429129654   108.82803670   180.85565976
 H      1   2   3     2.067694807936   110.64903937   300.88192918
 H      1   2   3     2.068101259624   110.76395807    60.76672226
 H      3   2   1     2.091000015656   112.82817517   180.05711307

---------------------
BASIS SET INFORMATION
---------------------
There are 4 groups of distinct atoms

 Group   1 Type C   : 17s4p1d contracted to 3s2p1d pattern {881/31/1}
 Group   2 Type N   : 17s4p1d contracted to 3s2p1d pattern {881/31/1}
 Group   3 Type O   : 17s4p1d contracted to 3s2p1d pattern {881/31/1}
 Group   4 Type H   : 4s1p contracted to 2s1p pattern {31/1}

Atom   0C    basis set group =>   1
Atom   1N    basis set group =>   2
Atom   2C    basis set group =>   1
Atom   3O    basis set group =>   3
Atom   4H    basis set group =>   4
Atom   5H    basis set group =>   4
Atom   6H    basis set group =>   4
Atom   7H    basis set group =>   4
Atom   8H    basis set group =>   4
-------------------------------
AUXILIARY BASIS SET INFORMATION
-------------------------------
There are 4 groups of distinct atoms

 Group   1 Type C   : 7s5p4d2f contracted to 7s5p4d2f pattern {1111111/11111/1111/11}
 Group   2 Type N   : 7s5p4d2f contracted to 7s5p4d2f pattern {1111111/11111/1111/11}
 Group   3 Type O   : 7s5p4d2f contracted to 7s5p4d2f pattern {1111111/11111/1111/11}
 Group   4 Type H   : 3s2p1d contracted to 3s2p1d pattern {111/11/1}

Atom   0C    basis set group =>   1
Atom   1N    basis set group =>   2
Atom   2C    basis set group =>   1
Atom   3O    basis set group =>   3
Atom   4H    basis set group =>   4
Atom   5H    basis set group =>   4
Atom   6H    basis set group =>   4
Atom   7H    basis set group =>   4
Atom   8H    basis set group =>   4
-------------------------------
AUXILIARY BASIS SET INFORMATION
-------------------------------
There are 4 groups of distinct atoms

 Group   1 Type C   : 10s7p5d2f1g contracted to 10s7p5d2f1g pattern {1111111111/1111111/11111/11/1}
 Group   2 Type N   : 10s7p5d2f1g contracted to 10s7p5d2f1g pattern {1111111111/1111111/11111/11/1}
 Group   3 Type O   : 10s7p5d2f1g contracted to 10s7p5d2f1g pattern {1111111111/1111111/11111/11/1}
 Group   4 Type H   : 4s3p2d1f contracted to 4s3p2d1f pattern {1111/111/11/1}

Atom   0C    basis set group =>   1
Atom   1N    basis set group =>   2
Atom   2C    basis set group =>   1
Atom   3O    basis set group =>   3
Atom   4H    basis set group =>   4
Atom   5H    basis set group =>   4
Atom   6H    basis set group =>   4
Atom   7H    basis set group =>   4
Atom   8H    basis set group =>   4

Checking for AutoStart:
The File: N_methylformamide_Z.gbw exists
Trying to determine its content:
     ... Fine, the file contains calculation information
     ... Fine, the calculation information was read
     ... Fine, the file contains a basis set
     ... Fine, the basis set was read
     ... Fine, the file contains a geometry
     ... Fine, the geometry was read
     ... Fine, the file contains a set of orbitals
     ... Fine, the orbitals can be read
     => possible old guess file was deleted
     => GBW file was renamed to GES file
     => GES file is set as startup file
     => Guess is set to MORead
     ... now leaving AutoStart



           ************************************************************
           *        Program running with 4 parallel MPI-processes     *
           *              working on a common directory               *
           ************************************************************
------------------------------------------------------------------------------
                           ORCA GTO INTEGRAL CALCULATION
                           -- RI-GTO INTEGRALS CHOSEN --
------------------------------------------------------------------------------

                         BASIS SET STATISTICS AND STARTUP INFO

Gaussian basis set:
 # of primitive gaussian shells          ...  113
 # of primitive gaussian functions       ...  171
 # of contracted shells                  ...   39
 # of contracted basis functions         ...   81
 Highest angular momentum                ...    2
 Maximum contraction depth               ...    8
Auxiliary gaussian basis set:
 # of primitive gaussian shells          ...  150
 # of primitive gaussian functions       ...  466
 # of contracted shells                  ...  150
 # of contracted aux-basis functions     ...  466
 Highest angular momentum                ...    4
 Maximum contraction depth               ...    1
Ratio of auxiliary to basis functions    ...  5.75
Integral package used                  ... LIBINT
 One Electron integrals                  ... done
 Ordering auxiliary basis shells         ... done
 Integral threshhold             Thresh  ...  2.500e-11
 Primitive cut-off               TCut    ...  2.500e-12
 Pre-screening matrix                    ... done
 Shell pair data                         ... 
 Ordering of the shell pairs             ... done (   0.000 sec) 780 of 780 pairs
 Determination of significant pairs      ... done (   0.000 sec)
 Creation of shell pair data             ... done (   0.000 sec)
 Storage of shell pair data              ... done (   0.008 sec)
 Shell pair data done in (   0.009 sec)
 Computing two index integrals           ... done
 Cholesky decomposition of the V-matrix  ... done


Timings:
 Total evaluation time                   ...   0.244 sec (  0.004 min)
 One electron matrix time                ...   0.012 sec (  0.000 min) =  5.1%
 Schwartz matrix evaluation time         ...   0.137 sec (  0.002 min) = 56.2%
 Two index repulsion integral time       ...   0.029 sec (  0.000 min) = 12.0%
 Cholesky decomposition of V             ...   0.030 sec (  0.001 min) = 12.4%
 Three index repulsion integral time     ...   0.000 sec (  0.000 min) =  0.0%



           ************************************************************
           *        Program running with 4 parallel MPI-processes     *
           *              working on a common directory               *
           ************************************************************
-------------------------------------------------------------------------------
                                 ORCA SCF
-------------------------------------------------------------------------------

------------
SCF SETTINGS
------------
Hamiltonian:
 Ab initio Hamiltonian  Method          .... Hartree-Fock(GTOs)
 RI-approximation to the Coulomb term is turned on
   Number of auxiliary basis functions  .... 466
   RI-JK (J+K treated both via RI)      .... on


General Settings:
 Integral files         IntName         .... N_methylformamide_Z
 Hartree-Fock type      HFTyp           .... RHF
 Total Charge           Charge          ....    0
 Multiplicity           Mult            ....    1
 Number of Electrons    NEL             ....   32
 Basis Dimension        Dim             ....   81
 Nuclear Repulsion      ENuc            ....    121.1486107492 Eh

Convergence Acceleration:
 DIIS                   CNVDIIS         .... off
 Newton-Raphson         CNVNR           .... off
 SOSCF                  CNVSOSCF        .... on
   Start iteration      SOSCFMaxIt      ....   150
   Startup grad/error   SOSCFStart      ....  0.003300
 Level Shifting         CNVShift        .... on
   Level shift para.    LevelShift      ....    0.2000
   Turn off err/grad.   ShiftErr        ....    0.1000
 Zerner damping         CNVZerner       .... off
 Static damping         CNVDamp         .... off
 Fernandez-Rico         CNVRico         .... off

SCF Procedure:
 Maximum # iterations   MaxIter         ....   300
 SCF integral mode      SCFMode         .... Direct
   Integral package                     .... LIBINT
 Reset frequency        DirectResetFreq ....    20
 Integral Threshold     Thresh          ....  2.500e-11 Eh
 Primitive CutOff       TCut            ....  2.500e-12 Eh

Convergence Tolerance:
 Convergence Check Mode ConvCheckMode   .... Total+1el-Energy
 Convergence forced     ConvForced      .... 1
 Energy Change          TolE            ....  1.000e-08 Eh
 1-El. energy change                    ....  1.000e-05 Eh
 Orbital Gradient       TolG            ....  1.000e-05
 Orbital Rotation angle TolX            ....  1.000e-05


Diagonalization of the overlap matrix:
Smallest eigenvalue                        ... 7.737e-03
Time for diagonalization                   ...    0.004 sec
Threshold for overlap eigenvalues          ... 1.000e-08
Number of eigenvalues below threshold      ... 0
Time for construction of square roots      ...    0.004 sec
Total time needed                          ...    0.007 sec

---------------------
INITIAL GUESS: MOREAD
---------------------
Guess MOs are being read from file: N_methylformamide_Z.ges
Input Geometry matches current geometry (good)
Atom 0: N(Shells)= 6 and 10 - projection required
Input basis set needs projection
NBasis(read)= 190
NBasis(calc)= 81
Basis set overlap was calculated
Using GuessMode=FMatrix for the initial guess
C*T matrix was formed
Effective Fockian was calculated
Effective Fockian was diagonalized
Initial density was built
                      ------------------
                      INITIAL GUESS DONE (   0.0 sec)
                      ------------------
--------------
SCF ITERATIONS
--------------
ITER       Energy         Delta-E        Max-DP      RMS-DP      [F,P]   Gradient Norm
                             ****Turning on KDIIS(Cayley)****
  0   -207.9774733258   0.000000000000 0.00193072  0.00008206  0.0051063   0.006065387
  1   -207.9775666523  -0.000093326489 0.00413638  0.00016557  0.0046244   0.005470981
  2   -207.9777097163  -0.000143063938 0.00670491  0.00027985  0.0037169   0.004444704
                      *** Initiating the SOSCF procedure ***
                           *** Shutting down KDIIS ***
                      *** Re-Reading the Fockian *** 
                      *** Removing any level shift *** 
ITER      Energy       Delta-E        Grad      Rot      Max-DP    RMS-DP
  3   -207.97789159  -0.0001818710  0.002232  0.002232  0.009964  0.000430
  4   -207.97799816  -0.0001065731  0.000109  0.000186  0.000242  0.000007
  5   -207.97799828  -0.0000001148  0.000040  0.000132  0.000127  0.000006
  6   -207.97799833  -0.0000000541  0.000014  0.000055  0.000066  0.000002
  7   -207.97799833  -0.0000000043  0.000006  0.000004  0.000010  0.000000
                 **** Energy Check signals convergence ****
              ***Rediagonalizing the Fockian in SOSCF/NRSCF***

               *****************************************************
               *                     SUCCESS                       *
               *           SCF CONVERGED AFTER   8 CYCLES          *
               *****************************************************


----------------
TOTAL SCF ENERGY
----------------

Total Energy       :         -207.97799833 Eh           -5659.36905 eV

Components:
Nuclear Repulsion  :          121.14861075 Eh            3296.62130 eV
Electronic Energy  :         -329.12660908 Eh           -8955.99035 eV
One Electron Energy:         -523.12852851 Eh          -14235.05096 eV
Two Electron Energy:          194.00191943 Eh            5279.06061 eV

Virial components:
Potential Energy   :         -415.61338489 Eh          -11309.41516 eV
Kinetic Energy     :          207.63538656 Eh            5650.04611 eV
Virial Ratio       :            2.00165006


---------------
SCF CONVERGENCE
---------------

  Last Energy change         ...   -5.3507e-10  Tolerance :   1.0000e-08
  Last MAX-Density change    ...    4.3995e-06  Tolerance :   1.0000e-07
  Last RMS-Density change    ...    1.5243e-07  Tolerance :   5.0000e-09
  Last Orbital Gradient      ...    1.2456e-06  Tolerance :   1.0000e-05
  Last Orbital Rotation      ...    1.2256e-06  Tolerance :   1.0000e-05

             **** THE GBW FILE WAS UPDATED (N_methylformamide_Z.gbw) ****
             **** DENSITY FILE WAS UPDATED (N_methylformamide_Z.scfp.tmp) ****
             **** ENERGY FILE WAS UPDATED (N_methylformamide_Z.en.tmp) ****
----------------
ORBITAL ENERGIES
----------------

  NO   OCC          E(Eh)            E(eV) 
   0   2.0000     -20.519450      -558.3626 
   1   2.0000     -15.591528      -424.2671 
   2   2.0000     -11.351723      -308.8961 
   3   2.0000     -11.272632      -306.7439 
   4   2.0000      -1.371255       -37.3138 
   5   2.0000      -1.228054       -33.4170 
   6   2.0000      -0.962747       -26.1977 
   7   2.0000      -0.803444       -21.8628 
   8   2.0000      -0.735747       -20.0207 
   9   2.0000      -0.634280       -17.2596 
  10   2.0000      -0.619852       -16.8670 
  11   2.0000      -0.585127       -15.9221 
  12   2.0000      -0.554400       -15.0860 
  13   2.0000      -0.521983       -14.2039 
  14   2.0000      -0.421563       -11.4713 
  15   2.0000      -0.388566       -10.5734 
  16   0.0000       0.170134         4.6296 
  17   0.0000       0.195713         5.3256 
  18   0.0000       0.203067         5.5257 
  19   0.0000       0.235528         6.4090 
  20   0.0000       0.261721         7.1218 
  21   0.0000       0.279286         7.5998 
  22   0.0000       0.361749         9.8437 
  23   0.0000       0.417583        11.3630 
  24   0.0000       0.531319        14.4579 
  25   0.0000       0.600534        16.3413 
  26   0.0000       0.623844        16.9756 
  27   0.0000       0.678225        18.4554 
  28   0.0000       0.696313        18.9477 
  29   0.0000       0.708753        19.2862 
  30   0.0000       0.803376        21.8610 
  31   0.0000       0.854502        23.2522 
  32   0.0000       0.872077        23.7304 
  33   0.0000       0.887019        24.1370 
  34   0.0000       0.907120        24.6840 
  35   0.0000       0.962365        26.1873 
  36   0.0000       0.975370        26.5412 
  37   0.0000       1.052303        28.6346 
  38   0.0000       1.055466        28.7207 
  39   0.0000       1.119222        30.4556 
  40   0.0000       1.162493        31.6330 
  41   0.0000       1.247586        33.9485 
  42   0.0000       1.271889        34.6098 
  43   0.0000       1.354899        36.8687 
  44   0.0000       1.355979        36.8981 
  45   0.0000       1.400869        38.1196 
  46   0.0000       1.443431        39.2778 
  47   0.0000       1.577663        42.9304 
  48   0.0000       1.664359        45.2895 
  49   0.0000       1.667043        45.3625 
  50   0.0000       1.698143        46.2088 
  51   0.0000       1.764121        48.0042 
  52   0.0000       1.780696        48.4552 
  53   0.0000       1.886068        51.3225 
  54   0.0000       1.891533        51.4712 
  55   0.0000       1.959203        53.3126 
  56   0.0000       1.973220        53.6940 
  57   0.0000       1.994813        54.2816 
  58   0.0000       2.003775        54.5255 
  59   0.0000       2.066173        56.2234 
  60   0.0000       2.114106        57.5278 
  61   0.0000       2.153045        58.5873 
  62   0.0000       2.297714        62.5240 
  63   0.0000       2.298602        62.5481 
  64   0.0000       2.359823        64.2140 
  65   0.0000       2.421615        65.8955 
  66   0.0000       2.498924        67.9992 
  67   0.0000       2.540577        69.1326 
  68   0.0000       2.733811        74.3908 
  69   0.0000       2.735117        74.4263 
  70   0.0000       2.751732        74.8784 
  71   0.0000       2.807496        76.3958 
  72   0.0000       2.834672        77.1354 
  73   0.0000       2.982090        81.1468 
  74   0.0000       3.067030        83.4581 
  75   0.0000       3.105979        84.5180 
  76   0.0000       3.200627        87.0935 
  77   0.0000       3.404186        92.6326 
  78   0.0000       3.489391        94.9512 
  79   0.0000       3.874570       105.4324 
  80   0.0000       3.890184       105.8573 

                    ********************************
                    * MULLIKEN POPULATION ANALYSIS *
                    ********************************

-----------------------
MULLIKEN ATOMIC CHARGES
-----------------------
   0 C :    0.114220
   1 N :   -0.377625
   2 C :    0.388554
   3 O :   -0.415604
   4 H :    0.121266
   5 H :    0.035400
   6 H :    0.055252
   7 H :    0.054355
   8 H :    0.024183
Sum of atomic charges:    0.0000000

--------------------------------
MULLIKEN REDUCED ORBITAL CHARGES
--------------------------------
  0 C s       :     3.005188  s :     3.005188
      pz      :     1.031016  p :     2.797161
      px      :     0.885838
      py      :     0.880307
      dz2     :     0.014890  d :     0.083431
      dxz     :     0.005708
      dyz     :     0.024223
      dx2y2   :     0.013051
      dxy     :     0.025559
  1 N s       :     3.405701  s :     3.405701
      pz      :     1.724307  p :     3.938302
      px      :     1.114407
      py      :     1.099588
      dz2     :     0.002272  d :     0.033622
      dxz     :     0.004724
      dyz     :     0.002145
      dx2y2   :     0.014049
      dxy     :     0.010432
  2 C s       :     3.012258  s :     3.012258
      pz      :     0.690746  p :     2.379678
      px      :     0.800403
      py      :     0.888529
      dz2     :     0.007476  d :     0.219510
      dxz     :     0.035407
      dyz     :     0.034064
      dx2y2   :     0.074356
      dxy     :     0.068208
  3 O s       :     3.770658  s :     3.770658
      pz      :     1.460480  p :     4.624603
      px      :     1.739368
      py      :     1.424755
      dz2     :     0.002373  d :     0.020344
      dxz     :     0.001155
      dyz     :     0.005106
      dx2y2   :     0.005344
      dxy     :     0.006367
  4 H s       :     0.821282  s :     0.821282
      pz      :     0.015688  p :     0.057452
      px      :     0.008862
      py      :     0.032902
  5 H s       :     0.934400  s :     0.934400
      pz      :     0.005833  p :     0.030201
      px      :     0.018735
      py      :     0.005632
  6 H s       :     0.914751  s :     0.914751
      pz      :     0.015852  p :     0.029997
      px      :     0.004350
      py      :     0.009795
  7 H s       :     0.915685  s :     0.915685
      pz      :     0.016234  p :     0.029961
      px      :     0.004254
      py      :     0.009473
  8 H s       :     0.947037  s :     0.947037
      pz      :     0.002808  p :     0.028780
      px      :     0.008972
      py      :     0.016999


                     *******************************
                     * LOEWDIN POPULATION ANALYSIS *
                     *******************************

----------------------
LOEWDIN ATOMIC CHARGES
----------------------
   0 C :    0.002854
   1 N :    0.038836
   2 C :   -0.005887
   3 O :   -0.173272
   4 H :    0.057526
   5 H :    0.023922
   6 H :    0.027702
   7 H :    0.027146
   8 H :    0.001173

-------------------------------
LOEWDIN REDUCED ORBITAL CHARGES
-------------------------------
  0 C s       :     2.795170  s :     2.795170
      pz      :     1.073538  p :     2.989521
      px      :     0.961372
      py      :     0.954610
      dz2     :     0.035810  d :     0.212456
      dxz     :     0.013696
      dyz     :     0.071597
      dx2y2   :     0.032622
      dxy     :     0.058732
  1 N s       :     3.001243  s :     3.001243
      pz      :     1.589690  p :     3.874936
      px      :     1.153791
      py      :     1.131455
      dz2     :     0.005587  d :     0.084985
      dxz     :     0.009426
      dyz     :     0.004054
      dx2y2   :     0.037021
      dxy     :     0.028898
  2 C s       :     2.838874  s :     2.838874
      pz      :     0.709979  p :     2.669266
      px      :     0.945933
      py      :     1.013354
      dz2     :     0.025458  d :     0.497747
      dxz     :     0.079138
      dyz     :     0.062258
      dx2y2   :     0.175466
      dxy     :     0.155427
  3 O s       :     3.505806  s :     3.505806
      pz      :     1.423361  p :     4.635836
      px      :     1.701984
      py      :     1.510491
      dz2     :     0.004573  d :     0.031630
      dxz     :     0.001196
      dyz     :     0.005193
      dx2y2   :     0.009372
      dxy     :     0.011297
  4 H s       :     0.793363  s :     0.793363
      pz      :     0.051226  p :     0.149111
      px      :     0.025954
      py      :     0.071931
  5 H s       :     0.898873  s :     0.898873
      pz      :     0.016537  p :     0.077204
      px      :     0.043202
      py      :     0.017466
  6 H s       :     0.894391  s :     0.894391
      pz      :     0.038552  p :     0.077907
      px      :     0.013826
      py      :     0.025528
  7 H s       :     0.895039  s :     0.895039
      pz      :     0.039307  p :     0.077815
      px      :     0.013636
      py      :     0.024872
  8 H s       :     0.926280  s :     0.926280
      pz      :     0.008696  p :     0.072547
      px      :     0.022856
      py      :     0.040995


                      *****************************
                      * MAYER POPULATION ANALYSIS *
                      *****************************

  NA   - Mulliken gross atomic population
  ZA   - Total nuclear charge
  QA   - Mulliken gross atomic charge
  VA   - Mayer's total valence
  BVA  - Mayer's bonded valence
  FA   - Mayer's free valence

  ATOM       NA         ZA         QA         VA         BVA        FA
  0 C      5.8858     6.0000     0.1142     3.9258     3.9258     0.0000
  1 N      7.3776     7.0000    -0.3776     3.1787     3.1787     0.0000
  2 C      5.6114     6.0000     0.3886     4.2006     4.2006    -0.0000
  3 O      8.4156     8.0000    -0.4156     2.1108     2.1108     0.0000
  4 H      0.8787     1.0000     0.1213     0.9975     0.9975     0.0000
  5 H      0.9646     1.0000     0.0354     0.9776     0.9776     0.0000
  6 H      0.9447     1.0000     0.0553     0.9797     0.9797     0.0000
  7 H      0.9456     1.0000     0.0544     0.9789     0.9789    -0.0000
  8 H      0.9758     1.0000     0.0242     0.9739     0.9739     0.0000

  Mayer bond orders larger than 0.1
B(  0-C ,  1-N ) :   0.9516 B(  0-C ,  5-H ) :   0.9864 B(  0-C ,  6-H ) :   0.9841 
B(  0-C ,  7-H ) :   0.9843 B(  1-N ,  2-C ) :   1.2243 B(  1-N ,  4-H ) :   0.9716 
B(  2-C ,  3-O ) :   2.0006 B(  2-C ,  8-H ) :   0.9637 

-------
TIMINGS
-------

Total SCF time: 0 days 0 hours 0 min 2 sec 

Total time                  ....       2.060 sec
Sum of individual times     ....       1.927 sec  ( 93.5%)

Fock matrix formation       ....       1.868 sec  ( 90.7%)
Diagonalization             ....       0.019 sec  (  0.9%)
Density matrix formation    ....       0.001 sec  (  0.0%)
Population analysis         ....       0.003 sec  (  0.1%)
Initial guess               ....       0.014 sec  (  0.7%)
Orbital Transformation      ....       0.000 sec  (  0.0%)
Orbital Orthonormalization  ....       0.000 sec  (  0.0%)
DIIS solution               ....       0.000 sec  (  0.0%)
SOSCF solution              ....       0.022 sec  (  1.1%)


           ************************************************************
           *        Program running with 4 parallel MPI-processes     *
           *              working on a common directory               *
           ************************************************************


------------------------------------------------------------------------------- 
                              ORCA-MATRIX DRIVEN CI                            
------------------------------------------------------------------------------- 


Wavefunction type
-----------------
Correlation treatment                      ...      CCSD     
Single excitations                         ... ON
Orbital optimization                       ... OFF
Calculation of Z vector                    ... OFF
Calculation of Brueckner orbitals          ... OFF
Perturbative triple excitations            ... ON
Calculation of F12 correction              ... OFF
Frozen core treatment                      ... chemical core (8 el)
Reference Wavefunction                     ... RHF
  Internal Orbitals:     4 ...   15 ( 12 MO's/ 24 electrons)
  Virtual  Orbitals:    16 ...   80 ( 65 MO's              )
Number of AO's                             ...     81
Number of electrons                        ...     32
Number of correlated electrons             ...     24

Algorithmic settings
--------------------
Integral transformation                    ... All integrals via the RI transformation
K(C) Formation                             ... RI-DLPNO
   PNO-Integral Storage                    ... ON DISK
   PNO occupation number cut-off           ... 1.000e-07
   Singles PNO occupation number cut-off   ... 3.000e-09
   PNO Mulliken prescreening cut-off       ... 1.000e-03
   Domain cut-off (Mulliken population)    ... 1.000e-03
   PNO Normalization                       ...    1
Maximum number of iterations               ...        50
Convergence tolerance (max. residuum)      ... 1.000e-05
Level shift for amplitude update           ... 2.000e-01
Maximum number of DIIS vectors             ...         7
DIIS turned on at iteration                ...         0
Damping before turning on DIIS             ...     0.500
Damping after turning on DIIS              ...     0.000
Pair specific amplitude update             ... OFF
Natural orbital iterations                 ... OFF
Perturbative natural orbital generation    ... OFF
Printlevel                                 ... 2

Singles Fock matrix elements calculated using PNOs.

Memory handling:
----------------
Maximum memory for working arrays          ...   8000 MB
Data storage in matrix containers          ... UNCOMPRESSED
Data type for integral storage             ... DOUBLE
In-Core Storage of quantities:
   Amplitudes+Sigma Vector      ... NO
   J+K operators                ... NO
   DIIS vectors                 ... NO
   3-external integrals         ... NO
   4-external integrals         ... NO

Localization treatment:
-----------------------
Localization option                        ...    6
Localization threshhold                    ... -1.0e+00
Using relative localization threshhold     ... 1.0e-08
Neglect threshold for strong pairs         ... 1.000e-05 Eh
Prescreening threshold for very weak pairs ... 1.000e-07 Eh

Initializing the integral package          ... done
Localizing the valence orbitals
------------------------------------------------------------------------------
                           ORCA ORBITAL LOCALIZATION
------------------------------------------------------------------------------

Input orbitals are from                  ... N_methylformamide_Z.proc0.gbw
Output orbitals are to                   ... N_methylformamide_Z.proc0.loc
Max. number of iterations                ... 128
Localizations seeded randomly            ... off
Convergence tolerance                    ... 1.000e-06
Using relative localization threshhold   ... 1.000e-08
Treshold for strong local MOs            ... 9.500e-01
Treshold for bond MOs                    ... 8.500e-01
Operator                                 ... 0
Orbital range for localization           ... 4 to 15
Localization criterion                   ... FOSTER-BOYS (AUGMENTED HESSIAN)
Doing the dipole integrals     ... o.k.
Initial value of the localization sum :    81.021319
ITERATION   0 : L=   89.2289063420 DL=  8.21e+00 (AVERGE_DL)=    0.3526434147 
ITERATION   1 : L=   90.8128439983 DL=  1.58e+00 (AVERGE_DL)=    0.1549162851 
ITERATION   2 : L=   90.8853956702 DL=  7.26e-02 (AVERGE_DL)=    0.0331552071 
ITERATION   3 : L=   90.8926889902 DL=  7.29e-03 (AVERGE_DL)=    0.0105121287 
ITERATION   4 : L=   90.8942575357 DL=  1.57e-03 (AVERGE_DL)=    0.0048750221 
ITERATION   5 : L=   90.8946160965 DL=  3.59e-04 (AVERGE_DL)=    0.0023308236 
ITERATION   6 : L=   90.8947104115 DL=  9.43e-05 (AVERGE_DL)=    0.0011954145 
ITERATION   7 : L=   90.8947369761 DL=  2.66e-05 (AVERGE_DL)=    0.0006344243 
ITERATION   8 : L=   90.8947447405 DL=  7.76e-06 (AVERGE_DL)=    0.0003429894 
ITERATION   9 : L=   90.8947470431 DL=  2.30e-06 (AVERGE_DL)=    0.0001867847 
ITERATION  10 : L=   90.8947477293 DL=  6.86e-07 (AVERGE_DL)=    0.0001019637 
LOCALIZATION SUM CONVERGED

------------------------------------------------------
AUGMENTED HESSIAN OPTIMIZATION OF FOSTER-BOYS ORBITALS
------------------------------------------------------

Spin operator:           0
Orbital window:          4 to 15
Number of iterations:    128
Gradient tolerance:      1.000e-06
Number of pairs:         66
Davidson threshold:      2000
Diagonalization method:  LAPACK
Iter:    0   L: 90.8947477293   Grad. norm: 1.533960e-03
   *** Likely close to a maximum now. ***
       Augmented Hessian eigenvalues:  5.86e-07 -5.34e-01 -1.29e+00 -1.80e+00 ... 
Iter:    1   L: 90.8947480222   Grad. norm: 1.332719e-06
Iter:    2   L: 90.8947480222   Grad. norm: 9.786592e-14
LOCALIZATION HAS CONVERGED.

Eigenvalues of the Hessian:
  0 -5.342e-01
  1 -1.285e+00
  2 -1.797e+00
  3 -2.150e+00
  4 -5.148e+00
  5 -5.836e+00
  6 -6.727e+00
  7 -6.984e+00
  8 -8.637e+00
  9 -1.107e+01
    ...


------------------------------------------------------------------------------- 
                    LOCALIZED MOLECULAR ORBITAL COMPOSITIONS                   
------------------------------------------------------------------------------- 

The Mulliken populations for each LMO on each atom are computed
The LMO`s will be ordered according to atom index and type
  (A) Strongly localized MO`s have populations of >=0.950 on one atom
  (B) Two center bond orbitals have populations of >=0.850 on two atoms
  (C) Other MO`s are considered to be `delocalized`

FOUND  -   2 strongly local MO`s
       -  10 two center bond MO`s
       -   0 significantly delocalized MO`s

Rather strongly localized orbitals:
MO   5:   3O  -   0.952493
MO   4:   3O  -   0.950058
Bond-like localized orbitals:
MO  15:   8H  -   0.501606  and   2C  -   0.519707
MO  14:   7H  -   0.486512  and   0C  -   0.531447
MO  13:   6H  -   0.485726  and   0C  -   0.532061
MO  12:   5H  -   0.498349  and   0C  -   0.514052
MO  11:   4H  -   0.445048  and   1N  -   0.555815
MO  10:   3O  -   0.657574  and   2C  -   0.346624
MO   9:   3O  -   0.657609  and   2C  -   0.346673
MO   8:   2C  -   0.250725  and   1N  -   0.761085
MO   7:   2C  -   0.244543  and   1N  -   0.766276
MO   6:   1N  -   0.647008  and   0C  -   0.372777
Localized MO's were stored in: N_methylformamide_Z.proc0.loc

Localizing the core orbitals
------------------------------------------------------------------------------
                           ORCA ORBITAL LOCALIZATION
------------------------------------------------------------------------------

Input orbitals are from                  ... N_methylformamide_Z.proc0.loc
Output orbitals are to                   ... N_methylformamide_Z.proc0.loc
Max. number of iterations                ... 128
Localizations seeded randomly            ... off
Convergence tolerance                    ... 1.000e-06
Using relative localization threshhold   ... 1.000e-08
Treshold for strong local MOs            ... 9.500e-01
Treshold for bond MOs                    ... 8.500e-01
Operator                                 ... 0
Orbital range for localization           ... 0 to 3
Localization criterion                   ... FOSTER-BOYS (AUGMENTED HESSIAN)
Doing the dipole integrals     ... o.k.
Initial value of the localization sum :    22.244897
ITERATION   0 : L=   22.2448976878 DL=  4.62e-07 (AVERGE_DL)=    0.0002775509 
LOCALIZATION SUM CONVERGED

------------------------------------------------------
AUGMENTED HESSIAN OPTIMIZATION OF FOSTER-BOYS ORBITALS
------------------------------------------------------

Spin operator:           0
Orbital window:          0 to 3
Number of iterations:    128
Gradient tolerance:      1.000e-06
Number of pairs:         6
Davidson threshold:      2000
Diagonalization method:  LAPACK
Iter:    0   L: 22.2448976878   Grad. norm: 3.394807e-08
   *** Likely close to a maximum now. ***
       Augmented Hessian eigenvalues:  3.73e-17 -2.14e+01 -2.64e+01 -3.04e+01 ... 
Iter:    1   L: 22.2448976878   Grad. norm: 1.187602e-20
LOCALIZATION HAS CONVERGED.

Eigenvalues of the Hessian:
  0 -2.137e+01
  1 -2.635e+01
  2 -3.035e+01
  3 -7.461e+01
  4 -8.674e+01
  5 -1.147e+02


------------------------------------------------------------------------------- 
                    LOCALIZED MOLECULAR ORBITAL COMPOSITIONS                   
------------------------------------------------------------------------------- 

The Mulliken populations for each LMO on each atom are computed
The LMO`s will be ordered according to atom index and type
  (A) Strongly localized MO`s have populations of >=0.950 on one atom
  (B) Two center bond orbitals have populations of >=0.850 on two atoms
  (C) Other MO`s are considered to be `delocalized`

FOUND  -   4 strongly local MO`s
       -   0 two center bond MO`s
       -   0 significantly delocalized MO`s

Rather strongly localized orbitals:
MO   3:   3O  -   0.999757
MO   2:   2C  -   1.000563
MO   1:   1N  -   0.999637
MO   0:   0C  -   0.999826
Localized MO's were stored in: N_methylformamide_Z.proc0.loc

Warning: internal orbitals are localized - no re-canonicalization of internal orbitals

--------------------------
CLOSED-SHELL FOCK OPERATOR
--------------------------

RI-JK section for the Fock operator:
  RHF full Fock operator         ... done
  RHF frozen core Fock operator  ... done
Time needed for Fock operator              ...            0.516 sec
Reference energy                           ...   -207.977998334

--------------
DLPNO SETTINGS (2015 fully linear scaling implementation)
--------------

TCutMKN:           1.000e-03
TCutPAO:           1.000e-03
TCutPNO:           1.000e-07
TCutPNOSingles:    3.000e-09
TCutEN:            9.700e-01
TCutPAOExt:        1.000e-01
TCutPairs:         1.000e-05
TCutPre:           1.000e-07
TCutOSV:           1.000e-06
TCutDOij:          1.000e-05
TCutDO:            5.000e-03
TCutC:             1.000e-04
TCutCPAO:          1.000e-03
TCutCMO:           1.000e-03
TScaleDOMP2PreScr: 2.000e+00
TScaleMKNMP2PreScr:1.000e+01
TScalePNOMP2PreScr:1.000e+00
PAO overlap thresh 1.000e-08
Using PNOs for Singles Fock computation
Use new domains
Use fully linear algorithm
TCutTNO:           1.000e-09
TCutMP2Pairs:      1.000e-06
TCutDOStrong:      2.000e-03
TCutMKNStrong:     1.000e-02
TCutMKNWeak:       1.000e-01
TCutDOWeak:        4.000e-03
NTCutTNO:          1

--------------------------
Calculating differential overlap integrals ... ok
--------------------------
ELECTRON PAIR PRESCREENING
--------------------------

Dipole-based pair screening          .... used

   TCutDOij = 1.000000e-05
   TCutPre  = 1.000000e-07
   .... Finished loop over pairs
Total time spent in the prescreening                  ...     0.000 sec
sum of pair energies estimated for screened out pairs ...       0.000000000000 Eh
Thresholds for map construction and integral transformation for crude MP2:
   TCutMKN                    ...     1.0e-02
   TCutDO                     ...     1.0e-02
   TCutPairs                  ...     1.0e-05
   TCutPNO_CrudeMP2           ...     1.0e-07
   TCutPNOSingles_CrudeMP2    ...     3.0e-09
--------------------------------
LOCAL RI TRANSFORMATION (IAVPAO)
--------------------------------

Orbital window:       4 to 15
Number of PAOs:      81
Basis functions:     81 (39 shells)
Aux. functions:     294 (102 shells)

Processing maps (0.0 sec)
Average map sizes:
   Aux shells -> MOs              12.0
   Aux shells -> PAOs             81.0
   MOs        -> AO shells        39.0
   PAOs       -> AO shells        39.0

Calculating integrals (0.2 sec, 2.184 MB)
Sorting integrals (0.0 sec, 2.180 MB)
Total time for the integral transformation: 0.2 sec
--------------------------------
INITIAL GUESS AND PNO GENERATION
--------------------------------

PNO truncation parameters                   .... 
    PAOOverlapThresh   =        1.000e-08

    TCutPairs          =        1.000e-05
    TCutPNO            =        1.000e-07
    TCutPNOSingles     =        3.000e-09
    TCutMP2Pairs       =        1.000e-06
    TCutMKN            =        1.000e-02
    TCutDO             =        1.000e-02

Pair selection                          .... not used
Type of local MP2 treatment                 .... semi-local MP2
Strategy for PNO selection                  .... occupation number selection
Pair density normalization                  .... MP2 norm
Spin component scaling                      .... not used

   .... Finished loop over pairs
Making pair pair interaction lists          ... done

                       ===========================
                         78 OF   78 PAIRS ARE KEPT CCSD PAIRS
                          0 OF   78 PAIRS ARE KEPT MP2 PAIRS FOR (T)
                          0 OF   78 PAIRS ARE SKIPPED
                       ===========================

Total time spent in the initial guess                 ...     0.069 sec
SL-MP2 correlation energy (all non-screened pairs)    ...      -0.598904294027 Eh

Initial PNO correlation energy                        ...      -0.598759974941 Eh
sum of pair energies prescreened and skipped MP2 pairs...       0.000000000000 Eh
sum of pair energies of crude MP2 skipped pairs only  ...       0.000000000000 Eh
sum of MP2 pair energies for pairs that were not kept ...       0.000000000000 Eh
sum of PNO error estimates for the kept pairs         ...      -0.000144319086 Eh
                                                          --------------------
sum of all corrections                                         -0.000144319086
Initial total correlation energy                               -0.598904294027
Thresholds for map construction and integral transformation for fine MP2 and CCSD(T) calculation:
   TCutMKN   ...     1.0e-03
   TCutDO    ...     5.0e-03
   TCutPairs ...     1.0e-05
   TCutCMO   ...     1.0e-03
   TCutCPAO  ...     1.0e-03

Thresholds for map construction and integral transformation for strong Triples:
   TCutMKN   ...     1.0e-02
   TCutDO    ...     1.0e-02
   TCutCMO   ...     1.0e-03
   TCutCPAO  ...     1.0e-03

Thresholds for map construction and integral transformation for weak Triples:
   TCutMKN   ...     1.0e-01
   TCutDO    ...     2.0e-02
   TCutCMO   ...     1.0e-03
   TCutCPAO  ...     1.0e-03

--------------------------------
LOCAL RI TRANSFORMATION (IAVPAO)
--------------------------------

Orbital window:       4 to 15
Number of PAOs:      81
Basis functions:     81 (39 shells)
Aux. functions:     294 (102 shells)

Processing maps (0.0 sec)
Average map sizes:
   Aux shells -> MOs              12.0
   Aux shells -> PAOs             81.0
   MOs        -> AO shells        39.0
   PAOs       -> AO shells        39.0

Calculating integrals (0.2 sec, 2.184 MB)
Sorting integrals (0.0 sec, 2.180 MB)
Total time for the integral transformation: 0.2 sec
--------------------------------
INITIAL GUESS AND PNO GENERATION
--------------------------------

PNO truncation parameters                   .... 
    ScaleTCutPNO       =        1.000e-02
    PAOOverlapThresh   =        1.000e-08

    TCutPairs          =        1.000e-05
    TCutPNO            =        1.000e-07
    TCutPNOSingles     =        3.000e-09
    TCutMP2Pairs       =        1.000e-06
    TCutMKN            =        1.000e-03
    TCutDO             =        5.000e-03

Pair selection                          .... not used
Type of local MP2 treatment                 .... full local PMP2
Strategy for PNO selection                  .... occupation number selection
Pair density normalization                  .... MP2 norm
Spin component scaling                      .... not used

PASS-1: Formation of initial guess LMP2 amplitudes
Initial amplitudes guess done. Entering LMP2 iteration loop:
   Max. no of iterations          ...  50
   Energy convergence tolerance   ...    1.0e-07
   Residual convergence tolerance ...    5.0e-07
   Fock matrix cutoff             ...    1.0e-05 Eh
   DIIS convergence acceleration parameters:
        Max # vectors in DIIS     ... 7
        Start iteration of DIIS   ... 0
        Levelshift                ... 2.000e-01
        Damping factor 1          ... 5.000e-01
        Damping factor 2          ... 1.000e+00
   L-MP2 PNO cut-off              ...   1.0e-09
   L-MP2 PNO cut-off (core)       ...   1.0e-11
                           *** Turning on DIIS ***
LMP2-Iter=   0:  ELMP2= -0.614632145558  DE=   1.5e-02 RMAX=   2.0e-02
LMP2-Iter=   1:  ELMP2= -0.623221099368  DE=   8.6e-03 RMAX=   8.8e-03
LMP2-Iter=   2:  ELMP2= -0.624957593474  DE=   1.7e-03 RMAX=   3.7e-03
LMP2-Iter=   3:  ELMP2= -0.625209978388  DE=   2.5e-04 RMAX=   1.3e-03
LMP2-Iter=   4:  ELMP2= -0.625214072406  DE=   4.1e-06 RMAX=   3.6e-04
LMP2-Iter=   5:  ELMP2= -0.625209449633  DE=   4.6e-06 RMAX=   7.4e-05
LMP2-Iter=   6:  ELMP2= -0.625208266799  DE=   1.2e-06 RMAX=   1.2e-05
LMP2-Iter=   7:  ELMP2= -0.625208197490  DE=   6.9e-08 RMAX=   2.4e-06
LMP2-Iter=   8:  ELMP2= -0.625208220671  DE=   2.3e-08 RMAX=   4.9e-07
LMP2-Iter=   9:  ELMP2= -0.625208217609  DE=   3.1e-09 RMAX=   1.4e-07
LMP2-Iter=  10:  ELMP2= -0.625208217061  DE=   5.5e-10 RMAX=   3.3e-08 => CONVERGED
PASS-2: Formation of Pair natural orbitals
   .... Finished loop over pairs

 PNO Occupation Number Statistics: 
  | Av. % of trace(Dij) retained        ...  99.863495266690
  | sigma^2 in % of trace(Dij) retained ...   4.73e-02
  | Av. % of trace(Di) retained         ...  99.999906629525
  | sigma^2 in % of trace(Di) retained  ...   1.63e-09
 Distributions of % trace(Dij) recovered:
  |       >= 99.9  ...    57 ( 73.1 % of all pairs)
  |   [99.0, 99.9) ...    21 ( 26.9 % of all pairs)
 Distributions of % trace(Di) recovered :
  |       >= 99.9  ...    12 (100.0 % of all I-pairs )

Making pair pair interaction lists          ... done

                       ===========================
                         78 OF   78 PAIRS ARE KEPT
                       ===========================

Total time spent in the initial guess                 ...     0.753 sec
L-MP2 correlation energy (all non-screened pairs)     ...      -0.625208217061 Eh
L-MP2 PNO error correction                            ...      -0.000001164700 Eh
                                                          --------------------
Initial total L-MP2 energy (non-screened pairs)       ...      -0.625209381761 Eh

Initial PNO correlation energy                        ...      -0.625077873522 Eh
sum of pair energies estimated for screened out pairs ...       0.000000000000 Eh
sum of MP2 pair energies for pairs that were not kept ...       0.000000000000 Eh
sum of PNO error estimates for the kept pairs         ...      -0.000131508238 Eh
                                                          --------------------
sum of all corrections                                         -0.000131508238
Initial total correlation energy                               -0.625209381761
Thresholds for map construction and integral transformation for fine MP2 and CCSD(T) calculation:
   TCutMKN   ...     1.0e-03
   TCutDO    ...     5.0e-03
   TCutPairs ...     1.0e-05
   TCutCMO   ...     1.0e-03
   TCutCPAO  ...     1.0e-03

Time for aux screen maps:            0.000
Time for maps after fine MP2:            0.002
-----------------------------
LOCAL RI TRANSFORMATION (IJV)
-----------------------------

Orbital window:       4 to 15
Basis functions:     81 (39 shells)
Aux. functions:     294 (102 shells)

Processing maps (0.0 sec)
Average map sizes:
   Aux shells -> MOs(i)           12.0
   Aux shells -> MOs(j)           12.0
   MOs        -> AO shells        39.0

Calculating integrals (0.2 sec, 0.326 MB)
Sorting integrals (0.0 sec, 0.323 MB)
Total time for the integral transformation: 0.2 sec
--------------------------------
LOCAL RI TRANSFORMATION (VABPAO)
--------------------------------

Number of PAOs:      81
Basis functions:     81 (39 shells)
Aux. functions:     294 (102 shells)

Processing maps (0.0 sec)
Average map sizes:
   Aux shells -> PAOs             81.0
   PAOs       -> AO shells        39.0

Calculating integrals (0.3 sec, 26.035 MB)
Finished


-------------------------------------
Pair Pair Term precalculation with     
RI-(ij|mn) and (im|jn) transformation  
ON THE FLY                             
-------------------------------------

   IBatch   1 (of   1)              ... done (    2.100 sec)
Total EXT                           ...           2.100 sec

---------------------
RI-PNO TRANSFORMATION
---------------------

Total Number of PNOs                   ...  2336
Average number of PNOs per pair        ...    29
Maximal number of PNOs per pair        ...    40
   #pairs with  1 -  5 PNOs   :    0
   #pairs with  6 - 10 PNOs   :    0
   #pairs with 11 - 15 PNOs   :    0
   #pairs with 16 - 20 PNOs   :    6
   #pairs with 21 - 25 PNOs   :   16
   #pairs with 26 - 30 PNOs   :   16
   #pairs with 31 - 35 PNOs   :   28
   #pairs with 36 - 40 PNOs   :   12
   #pairs with 41 - 45 PNOs   :    0
   #pairs with 46 - 50 PNOs   :    0

Generation of (ij|ab)[P] integrals            ... on
Generation of (ia|bc)[P],(ja|bc)[P] integrals ... on
Storage of 3 and 4 external integrals         ... on
Generation of ALL (ka|bc)[P] integrals        ... on
Keep RI integrals in memory                   ... off

Ibatch:  1 (of  1)
Starting 2-4 index PNO integral generation ... done

Timings:
Total PNO integral transformation time     ...          0.857 sec
Size of the 3-external file                ...        18 MB
Size of the 4-external file                ...        76 MB
Size of the IKJL file                      ...         0 MB
Size of the all 3-external file            ...       109 MB
Size of the 1-external file                ...         0 MB

Making pair/pair overlap matrices          ... done (    0.097 sec)
Size of the pair overlap file              ... 30 MB
Redoing the guess amplitudes               ... done (    0.001 sec)

-------------------------
FINAL STARTUP INFORMATION
-------------------------

E(0)                                       ...   -207.977998334
E(L-MP2)                                   ...     -0.625209382
E(L-MP2) including corrections             ...     -0.625209382
Initial E(tot)                             ...   -208.603207716
<T|T>                                      ...      0.171766236
Number of pairs included                   ... 78
Total number of pairs                      ... 78

------------------------------------------------
                  RHF COUPLED CLUSTER ITERATIONS
------------------------------------------------

Number of PNO amplitudes to be optimized   ...        72422
Number of non-PNO amplitudes               ...       329550
Untruncated number of regular amplitudes   ...       329550

Iter       E(tot)           E(Corr)          Delta-E          Residual     Time
  0   -208.577059256     -0.598929413      0.026279968      0.016403329    0.83
                           *** Turning on DIIS ***
  1   -208.609400323     -0.631270481     -0.032341067      0.012335644    0.83
  2   -208.629371379     -0.651241536     -0.019971056      0.006483865    0.82
  3   -208.633350315     -0.655220473     -0.003978936      0.003825191    0.81
  4   -208.634739740     -0.656609898     -0.001389425      0.001816832    0.82
  5   -208.635305694     -0.657175852     -0.000565954      0.000647541    0.83
  6   -208.635440022     -0.657310180     -0.000134328      0.000231258    0.82
  7   -208.635466396     -0.657336554     -0.000026374      0.000091149    0.82
  8   -208.635469283     -0.657339441     -0.000002887      0.000038371    0.82
  9   -208.635468093     -0.657338251      0.000001190      0.000013502    0.81
 10   -208.635467661     -0.657337819      0.000000432      0.000008409    0.81
               --- The Coupled-Cluster iterations have converged ---

----------------------
COUPLED CLUSTER ENERGY
----------------------

E(0)                                       ...   -207.977998334
E(CORR)(strong-pairs)                      ...     -0.657337819
E(CORR)(weak-pairs)                        ...     -0.000131508
E(CORR)(corrected)                         ...     -0.657469327
E(TOT)                                     ...   -208.635467661
Singles Norm <S|S>**1/2                    ...      0.074794211  
T1 diagnostic                              ...      0.015267304  

------------------
LARGEST AMPLITUDES
------------------
  10-> 16  10-> 16       0.049893
   9-> 16   9-> 16       0.049879
  10-> 16   9-> 16       0.041656
  15-> 17  15-> 17       0.038746
  12-> 16  12-> 16       0.036464
  12-> 24  12-> 24       0.034414
  13-> 16  13-> 16       0.033431
  14-> 16  14-> 16       0.033395
  11-> 16  11-> 16       0.032330
  10-> 16  -1-> -1       0.032002
   9-> 16  -1-> -1       0.031943
  14-> 24  14-> 24       0.031868
  13-> 24  13-> 24       0.030678
  12-> 20  12-> 20       0.029121
  15-> 23  15-> 17       0.026095
  15-> 17  15-> 23       0.026095


-------------------------------------------
DLPNO BASED TRIPLES CORRECTION
-------------------------------------------

Singles multiplier          ...  1.000000
TCutTNO                     ... 1.000e-09
TCutMP2Pairs                ... 1.000e-06
TCutDOStrong                ... 1.000e-02
TCutMKNStrong               ... 1.000e-02
TCutDOWeak                  ... 2.000e-02
TCutMKNWeak                 ... 1.000e-01

Fragment selection                          .... not used
Number of Triples that are to be computed   ...       352

 . . . . . . . . .
10% done  
20% done  
30% done  
40% done  
50% done  
60% done  
70% done  
80% done  
90% done               (      3.173 sec)
Triples timings:
Total time for T0               ...     3.408 sec
Total time for Iterative (T)    ...     0.000 sec
Total time of overall (T)       ...     3.622 sec

Triples List generation         ...     0.000 sec
TNO generation                  ...     0.234 sec
Pair density generation         ...     0.001 sec
Look up tables                  ...     0.000 sec
Generating 3-index integrals    ...     1.171 sec
  Make 4-ind.int. from 3-ind.int...     0.827 sec
  Projecting amplitudes (D + S) ...     0.220 sec
  Downprojecting integrals      ...     0.000 sec
  Energy contr. (sum over a,b,c)...     0.323 sec
Fitting ET(->0)                 ...     0.000 sec

Everything after 3-index        ...     2.002 sec

Timing details:
 TNO integrals                  ...     1.870 sec
   Reading 3-index integrals    ...     0.006 sec
   Sorting integrals            ...     0.483 sec
       Sorting integrals 1      ...     0.000 sec
       Sorting integrals 2      ...     0.095 sec
       Sorting integrals 3      ...     0.030 sec
       Sorting integrals 4      ...     0.003 sec
       Sorting integrals 5      ...     0.007 sec
       Sorting integrals 6      ...     0.347 sec
   Calculating local VM**-1/2   ...     0.030 sec
   Orthogonal. integrals        ...     0.058 sec
   Multipl. 3-index integrals   ...     1.293 sec
   All concerning IRIab (w/TNO) ...     0.351 sec

 Calculate W0/W1                ...     0.630 sec
 W 3-ext contribution           ...     0.363 sec
 W 3-int contribution           ...     0.094 sec
 Sorting W                      ...     0.154 sec

 V exchange contribution        ...     0.138 sec

 Timings for Triples without generation
     of 3-index integrals       ...     2.002 sec
       0 weak pairs             ...     2.002 sec
       1 weak pair              ...     0.000 sec
       2 weak pairs             ...     0.000 sec
       3 weak pairs             ...     0.000 sec
  Extra time for extrapolation  ...     0.000 sec

Number of Triples   (0, 1, 2, 3 weak pairs; overall):    352       0       0       0  (   352)
Number of Atoms     (0, 1, 2, 3 weak pairs; overall):    9.0     0.0     0.0     0.0  (     9)
Number of PAOs      (0, 1, 2, 3 weak pairs; overall):   80.8     0.0     0.0     0.0  (    81)
Number of AuxFcns   (0, 1, 2, 3 weak pairs; overall):  186.7     0.0     0.0     0.0  (   294)
Number of TNOs      (0, 1, 2, 3 weak pairs         ):   54.0     0.0     0.0     0.0
Aver. Number of NTNO, Atoms, PAOs, AuxFcns / Triples:    352    54.0     9.0    80.8   186.7

Triples Correction (T)                     ...     -0.019347408
Final correlation energy                   ...     -0.676816735
E(CCSD)                                    ...   -208.635467661
E(CCSD(T))                                 ...   -208.654815069


Maximum memory used throughout the entire calculation: 949.6 MB


------------------------------------------------------------------------------- 
                                     TIMINGS                                   
------------------------------------------------------------------------------- 


Total execution time                   ...       19.243 sec

Localization of occupied MO's          ...        0.369 sec (  1.9%)
Fock Matrix Formation                  ...        0.516 sec (  2.7%)
Global overlap, Fock, MKN matrices     ...        0.116 sec (  0.6%)
Differential overlap integrals         ...        0.042 sec (  0.2%)
Organizing maps                        ...        0.006 sec (  0.0%)
RI 3-index integral generations        ...        0.997 sec (  5.2%)
RI-PNO integral transformation         ...        3.558 sec ( 18.5%)
Initial Guess                          ...        0.829 sec (  4.3%)
DIIS Solver                            ...        0.227 sec (  1.2%)
State Vector Update                    ...        0.006 sec (  0.0%)
Sigma-vector construction              ...        8.941 sec ( 46.5%)
  <D|H|D>(0-ext)                       ...        0.422 sec (  4.7% of sigma)
  <D|H|D>(2-ext Fock)                  ...        0.006 sec (  0.1% of sigma)
  <D|H|D>(2-ext)                       ...        0.796 sec (  8.9% of sigma)
  <D|H|D>(4-ext)                       ...        0.972 sec ( 10.9% of sigma)
  <D|H|D>(4-ext-corr)                  ...        3.822 sec ( 42.7% of sigma)
  CCSD doubles correction              ...        0.052 sec (  0.6% of sigma)
  <S|H|S>                              ...        0.064 sec (  0.7% of sigma)
  <S|H|D>(1-ext)                       ...        0.073 sec (  0.8% of sigma)
  <D|H|S>(1-ext)                       ...        0.004 sec (  0.0% of sigma)
  <S|H|D>(3-ext)                       ...        0.078 sec (  0.9% of sigma)
  Fock-dressing                        ...        1.248 sec ( 14.0% of sigma)
  Singles amplitudes                   ...        0.059 sec (  0.7% of sigma)
  (ik|jl)-dressing                     ...        0.329 sec (  3.7% of sigma)
  (ij|ab),(ia|jb)-dressing             ...        0.471 sec (  5.3% of sigma)
  Pair energies                        ...        0.003 sec (  0.0% of sigma)
Total Time for computing (T)           ...        3.634 sec ( 18.9% of ALL)


-------------------------   --------------------
FINAL SINGLE POINT ENERGY      -208.654815068991
-------------------------   --------------------


                            ***************************************
                            *     ORCA property calculations      *
                            ***************************************

                                    ---------------------
                                    Active property flags
                                    ---------------------
   (+) Dipole Moment


------------------------------------------------------------------------------
                       ORCA ELECTRIC PROPERTIES CALCULATION
------------------------------------------------------------------------------

Dipole Moment Calculation                       ... on
Quadrupole Moment Calculation                   ... off
Polarizability Calculation                      ... off
GBWName                                         ... N_methylformamide_Z.gbw
Electron density file                           ... N_methylformamide_Z.scfp.tmp
The origin for moment calculation is the CENTER OF MASS  = ( 0.139340, -0.025831 -0.000082)

-------------
DIPOLE MOMENT
-------------
                                X             Y             Z
Electronic contribution:      3.31564       0.37461      -0.00136
Nuclear contribution   :     -4.45888       0.82653       0.00253
                        -----------------------------------------
Total Dipole Moment    :     -1.14325       1.20114       0.00117
                        -----------------------------------------
Magnitude (a.u.)       :      1.65824
Magnitude (Debye)      :      4.21490



--------------------
Rotational spectrum 
--------------------
 
Rotational constants in cm-1:     0.648999     0.206752     0.161556 
Rotational constants in MHz : 19456.506012  6198.275004  4843.324495 

 Dipole components along the rotational axes: 
x,y,z [a.u.] :    -1.215998     1.127428     0.001327 
x,y,z [Debye]:    -3.090820     2.865694     0.003373 

 

Timings for individual modules:

Sum of individual times         ...       21.849 sec (=   0.364 min)
GTO integral calculation        ...        0.335 sec (=   0.006 min)   1.5 %
SCF iterations                  ...        2.142 sec (=   0.036 min)   9.8 %
MDCI module                     ...       19.372 sec (=   0.323 min)  88.7 %
                             ****ORCA TERMINATED NORMALLY****
TOTAL RUN TIME: 0 days 0 hours 0 minutes 25 seconds 442 msec
N_methylformamide_Z.gbw -> /home1/pantazis/klk/VDZ/Nitrogen_compounds/N_methylformamide_Z.gbw
N_methylformamide_Z.ges -> /home1/pantazis/klk/VDZ/Nitrogen_compounds/N_methylformamide_Z.ges
N_methylformamide_Z.job -> /home1/pantazis/klk/VDZ/Nitrogen_compounds/N_methylformamide_Z.job
N_methylformamide_Z.loc -> /home1/pantazis/klk/VDZ/Nitrogen_compounds/N_methylformamide_Z.loc
N_methylformamide_Z.nodes -> /home1/pantazis/klk/VDZ/Nitrogen_compounds/N_methylformamide_Z.nodes
N_methylformamide_Z.prop -> /home1/pantazis/klk/VDZ/Nitrogen_compounds/N_methylformamide_Z.prop
N_methylformamide_Z_property.txt -> /home1/pantazis/klk/VDZ/Nitrogen_compounds/N_methylformamide_Z_property.txt
N_methylformamide_Z.xyz -> /home1/pantazis/klk/VDZ/Nitrogen_compounds/N_methylformamide_Z.xyz
cp: cannot stat N_methylformamide_Z.asa.inp: No such file or directory
