! Job execution by suborca V 6.07 on ZEUS !
Job started from zeus1, running /scratch/pantazis/N_methylpyrrolidine__Rn4hLh/orca/orca copied from /opt/orca on zeussn126 in /scratch/pantazis/N_methylpyrrolidine__Rn4hLh
Job execution start: Sat Jun 29 10:52:18 CEST 2019
Shared library path: /scratch/pantazis/N_methylpyrrolidine__Rn4hLh/orca:/opt/openmpi_1.10.2/lib:/opt/intel/mkl/lib/intel64:/opt/intel/lib/intel64:
PBS Job ID is: 158761.icqc
izeussn126
izeussn126
izeussn126
izeussn126

                                 *****************
                                 * O   R   C   A *
                                 *****************

           --- An Ab Initio, DFT and Semiempirical electronic structure package ---

                  #######################################################
                  #                        -***-                        #
                  #          Department of theory and spectroscopy      #
                  #               Directorship: Frank Neese             #
                  #        Max Planck Institute fuer Kohlenforschung    #
                  #                Kaiser Wilhelm Platz 1               #
                  #                 D-45470 Muelheim/Ruhr               #
                  #                      Germany                        #
                  #                                                     #
                  #                  All rights reserved                #
                  #                        -***-                        #
                  #######################################################


                         Program Version 4.1.x  -  STABLE  -
                                (SVN: $Rev: 14094$)
                ($Date: 2019-06-14 15:01:15 +0200 (Fri, 14 Jun 2019) $)

                         (BUILD: $Sun Jun 23 06:18:31 CEST 2019$)


 With contributions from (in alphabetic order):
   Daniel Aravena         : Magnetic Properties
   Michael Atanasov       : Ab Initio Ligand Field Theory
   Alexander A. Auer      : GIAO ZORA
   Ute Becker             : Parallelization
   Giovanni Bistoni       : ED, Open-shell LED
   Martin Brehm           : Molecular dynamics
   Dmytro Bykov           : SCF Hessian
   Vijay G. Chilkuri      : MRCI spin determinant printing
   Dipayan Datta          : RHF DLPNO-CCSD density
   Achintya Kumar Dutta   : EOM-CC, STEOM-CC
   Dmitry Ganyushin       : Spin-Orbit,Spin-Spin,Magnetic field MRCI
   Miquel Garcia          : C-PCM Hessian
   Yang Guo               : DLPNO-NEVPT2, CIM, IAO-localization
   Andreas Hansen         : Spin unrestricted coupled pair/coupled cluster methods
   Benjamin Helmich-Paris : CASSCF linear response (MC-RPA)
   Lee Huntington         : MR-EOM, pCC
   Robert Izsak           : Overlap fitted RIJCOSX, COSX-SCS-MP3, EOM
   Christian Kollmar      : KDIIS, OOCD, Brueckner-CCSD(T), CCSD density
   Simone Kossmann        : Meta GGA functionals, TD-DFT gradient, OOMP2, MP2 Hessian
   Martin Krupicka        : AUTO-CI
   Lucas Lang             : DCDCAS
   Dagmar Lenk            : GEPOL surface, SMD
   Dimitrios Liakos       : Extrapolation schemes; parallel MDCI
   Dimitrios Manganas     : ROCIS; embedding schemes
   Dimitrios Pantazis     : SARC Basis sets
   Taras Petrenko         : DFT Hessian,TD-DFT gradient, ASA, ECA, R-Raman, ABS, FL, XAS/XES, NRVS
   Peter Pinski           : DLPNO-MP2, DLPNO-MP2 Gradient
   Christoph Reimann      : Effective Core Potentials
   Marius Retegan         : Local ZFS, SOC
   Christoph Riplinger    : Optimizer, TS searches, QM/MM, DLPNO-CCSD(T), (RO)-DLPNO pert. Triples
   Tobias Risthaus        : Range-separated hybrids, TD-DFT gradient, RPA, STAB
   Michael Roemelt        : Restricted open shell CIS
   Masaaki Saitow         : Open-shell DLPNO
   Barbara Sandhoefer     : DKH picture change effects
   Avijit Sen             : IP-ROCIS
   Kantharuban Sivalingam : CASSCF convergence, NEVPT2, FIC-MRCI
   Bernardo de Souza      : ESD, SOC TD-DFT
   Georgi Stoychev        : AutoAux, RI-MP2 NMR
   Willem Van den Heuvel  : Paramagnetic NMR
   Boris Wezisla          : Elementary symmetry handling
   Frank Wennmohs         : Technical directorship


 We gratefully acknowledge several colleagues who have allowed us to
 interface, adapt or use parts of their codes:
   Stefan Grimme, W. Hujo, H. Kruse,             : VdW corrections, initial TS optimization,
                  C. Bannwarth                     DFT functionals, gCP, sTDA/sTD-DF
   Ed Valeev                                     : LibInt (2-el integral package), F12 methods
   Garnet Chan, S. Sharma, J. Yang, R. Olivares  : DMRG
   Ulf Ekstrom                                   : XCFun DFT Library
   Mihaly Kallay                                 : mrcc  (arbitrary order and MRCC methods)
   Andreas Klamt, Michael Diedenhofen            : otool_cosmo (COSMO solvation model)
   Jiri Pittner, Ondrej Demel                    : Mk-CCSD
   Frank Weinhold                                : gennbo (NPA and NBO analysis)
   Christopher J. Cramer and Donald G. Truhlar   : smd solvation model
   Lars Goerigk                                  : TD-DFT with DH, B97 family of functionals
   V. Asgeirsson, H. Jonsson                     : NEB implementation
   FAccTs GmbH                                   : IRC, NEB, NEB-TS, Multilevel


 Your calculation uses the libint2 library for the computation of 2-el integrals
 For citations please refer to: http://libint.valeyev.net

 This ORCA versions uses:
   CBLAS   interface :  Fast vector & matrix operations
   LAPACKE interface :  Fast linear algebra routines
   SCALAPACK package :  Parallel linear algebra routines




***************************************
The coordinates will be read from file: N_methylpyrrolidine.xyz
***************************************


----- Orbital basis set information -----
Your calculation utilizes the basis: cc-pVDZ 
       H, B-Ne : Obtained from the ccRepo (grant-hill.group.shef.ac.uk/ccrepo) Feb. 2017
                 T. H. Dunning, Jr., J. Chem. Phys. 90, 1007 (1989)
            He : Obtained from the ccRepo (grant-hill.group.shef.ac.uk/ccrepo) Feb. 2017
                 D. E. Woon, T. H. Dunning, Jr., J. Chem. Phys. 100, 2975 (1994)
  Li-Be, Na-Mg : Obtained from the ccRepo (grant-hill.group.shef.ac.uk/ccrepo) Feb. 2017
                 B. P. Prascher, D. E. Woon, K. A. Peterson, T. H. Dunning, Jr., A. K. Wilson, Theor. Chem. Acc. 128, 69 (2011)
         Al-Ar : Obtained from the ccRepo (grant-hill.group.shef.ac.uk/ccrepo) Feb. 2017
                 D. E. Woon, T. H. Dunning, Jr., J. Chem. Phys. 98, 1358 (1993)
            Ca : Obtained from the Peterson Research Group Website (tyr0.chem.wsu.edu/~kipeters) Feb. 2017
                 J. Koput, K. A. Peterson, J. Phys. Chem. 106, 9595 (2002)
         Sc-Zn : Obtained from the ccRepo (grant-hill.group.shef.ac.uk/ccrepo) Feb. 2017
                 N. B. Balabanov, K. A. Peterson, J. Chem. Phys. 123, 064107 (2005)
                 N. B. Balabanov, K. A. Peterson, J. Chem. Phys. 125, 074110 (2006)
         Ga-Kr : Obtained from the ccRepo (grant-hill.group.shef.ac.uk/ccrepo) Feb. 2017
                 A. K. Wilson, D. E. Woon, K. A. Peterson, T. H. Dunning, Jr., J. Chem. Phys. 110, 7667 (1999)

----- AuxC basis set information -----
Your calculation utilizes the auxiliary basis: cc-pVDZ/C 
  H-He, B, Ne, Al-Ar, Ga-Br : Obtained from the EMSL Basis Set Exchange (bse.pnl.gov) Feb. 2017
                              F. Weigend, A. Kohn, C. Hattig, J. Chem. Phys. 116, 3175 (2002)
               Li-Be, Na-Mg : Obtained from the EMSL Basis Set Exchange (bse.pnl.gov) Feb. 2017
                              C. Haettig, Phys. Chem. Chem. Phys. 7, 59 (2005)
                        C-F : Obtained from the EMSL Basis Set Exchange (bse.pnl.gov) Feb. 2017
                              C. Haettig, Phys. Chem. Chem. Phys. 7, 59 (2005)
                              F. Weigend, A. Kohn, C. Hattig, J. Chem. Phys. 116, 3175 (2002)
                         Kr : Obtained from the TURBOMOLE 7.0 basis set library
                              F. Weigend, A. Kohn, C. Hattig, J. Chem. Phys. 116, 3175 (2002)
                              S function revised in Sep. 2009

----- AuxJK basis set information -----
Your calculation utilizes the auxiliary basis: cc-pVTZ/JK 
  H, B-F, Al-Cl, Ga-Br : Obtained from the TURBOMOLE 7.0 basis set library

================================================================================
                                        WARNINGS
                       Please study these warnings very carefully!
================================================================================


WARNING: MDCI localization with Augmented Hessian Foster-Boys
  ===> : Switching off randomization!

WARNING: Post HF methods need fully converged wavefunctions
  ===> : Setting SCFConvForced true
         You can overwrite this default with %scf ConvForced false 


INFO   : the flag for use of LIBINT has been found!

================================================================================
                                       INPUT FILE
================================================================================
NAME = N_methylpyrrolidine.inp
|  1> ! RHF DLPNO-CCSD(T) cc-pVDZ RIJK cc-pVTZ/JK cc-pVDZ/C
|  2> ! KDIIS SOSCF TightSCF TightPNO
|  3> 
|  4> %pal nprocs 4 end
|  5> 
|  6> %maxcore 8000
|  7> 
|  8> %scf maxiter 300
|  9>      shift shift 0.2 erroff 0.1 end
| 10> end
| 11> 
| 12> * xyzfile 0 1 N_methylpyrrolidine.xyz 
| 13> 
| 14> 
| 15>                          ****END OF INPUT****
================================================================================

                       ****************************
                       * Single Point Calculation *
                       ****************************

---------------------------------
CARTESIAN COORDINATES (ANGSTROEM)
---------------------------------
  C     -1.490570    0.770310   -0.058760
  C     -1.490580   -0.770310   -0.058750
  C     -0.018070   -1.149230    0.161950
  C     -0.018060    1.149230    0.161950
  N      0.708060    0.000000   -0.334360
  C      2.119900   -0.000000   -0.024480
  H     -1.846110   -1.156740   -1.044160
  H     -2.147030   -1.193870    0.738370
  H      0.275030   -2.073610   -0.388860
  H      0.181530   -1.292920    1.251340
  H      0.181530    1.292920    1.251350
  H      0.275040    2.073620   -0.388850
  H      2.298610    0.000000    1.075660
  H      2.601180   -0.900110   -0.469980
  H      2.601180    0.900110   -0.469980
  H     -2.147040    1.193890    0.738340
  H     -1.846100    1.156730   -1.044190

----------------------------
CARTESIAN COORDINATES (A.U.)
----------------------------
  NO LB      ZA    FRAG     MASS         X           Y           Z
   0 C     6.0000    0    12.011   -2.816769    1.455675   -0.111040
   1 C     6.0000    0    12.011   -2.816788   -1.455675   -0.111021
   2 C     6.0000    0    12.011   -0.034147   -2.171730    0.306041
   3 C     6.0000    0    12.011   -0.034128    2.171730    0.306041
   4 N     7.0000    0    14.007    1.338039    0.000000   -0.631849
   5 C     6.0000    0    12.011    4.006030   -0.000000   -0.046260
   6 H     1.0000    0     1.008   -3.488642   -2.185922   -1.973176
   7 H     1.0000    0     1.008   -4.057299   -2.256087    1.395317
   8 H     1.0000    0     1.008    0.519731   -3.918555   -0.734839
   9 H     1.0000    0     1.008    0.343042   -2.443265    2.364690
  10 H     1.0000    0     1.008    0.343042    2.443265    2.364709
  11 H     1.0000    0     1.008    0.519750    3.918574   -0.734820
  12 H     1.0000    0     1.008    4.343743    0.000000    2.032703
  13 H     1.0000    0     1.008    4.915518   -1.700961   -0.888133
  14 H     1.0000    0     1.008    4.915518    1.700961   -0.888133
  15 H     1.0000    0     1.008   -4.057318    2.256125    1.395260
  16 H     1.0000    0     1.008   -3.488623    2.185903   -1.973233

--------------------------------
INTERNAL COORDINATES (ANGSTROEM)
--------------------------------
 C      0   0   0     0.000000000000     0.00000000     0.00000000
 C      1   0   0     1.540620000065     0.00000000     0.00000000
 C      2   1   0     1.536416140406   104.27762656     0.00000000
 C      1   2   3     1.536417576898   104.27823826     0.00000000
 N      4   1   2     1.447170848034   103.63667883    25.18490986
 C      5   4   1     1.445447266420   114.61773720   190.49219623
 H      2   1   3     1.116585238081   110.24763259   241.63709550
 H      2   1   3     1.116122739890   112.30276240   120.94842216
 H      3   2   1     1.115247797801   112.66560259   214.85736233
 H      3   2   1     1.116806853579   110.06834176    92.77318570
 H      4   1   2     1.116814820908   110.06811513   267.22768639
 H      4   1   2     1.115251147545   112.66552605   145.14422974
 H      6   5   4     1.114560578748   111.60606158    60.87010983
 H      6   5   4     1.113686984974   109.65430102   181.75209493
 H      6   5   4     1.113686984974   109.65430102   299.98812473
 H      1   2   3     1.116127809572   112.30271835   239.04997422
 H      1   2   3     1.116599427816   110.24726431   118.36288446

---------------------------
INTERNAL COORDINATES (A.U.)
---------------------------
 C      0   0   0     0.000000000000     0.00000000     0.00000000
 C      1   0   0     2.911349876564     0.00000000     0.00000000
 C      2   1   0     2.903405733104   104.27762656     0.00000000
 C      1   2   3     2.903408447679   104.27823826     0.00000000
 N      4   1   2     2.734756571779   103.63667883    25.18490986
 C      5   4   1     2.731499474558   114.61773720   190.49219623
 H      2   1   3     2.110040305152   110.24763259   241.63709550
 H      2   1   3     2.109166310234   112.30276240   120.94842216
 H      3   2   1     2.107512909303   112.66560259   214.85736233
 H      3   2   1     2.110459097750   110.06834176    92.77318570
 H      4   1   2     2.110474153821   110.06811513   267.22768639
 H      4   1   2     2.107519239401   112.66552605   145.14422974
 H      6   5   4     2.106214253499   111.60606158    60.87010983
 H      6   5   4     2.104563400513   109.65430102   181.75209493
 H      6   5   4     2.104563400513   109.65430102   299.98812473
 H      1   2   3     2.109175890544   112.30271835   239.04997422
 H      1   2   3     2.110067119866   110.24726431   118.36288446

---------------------
BASIS SET INFORMATION
---------------------
There are 3 groups of distinct atoms

 Group   1 Type C   : 17s4p1d contracted to 3s2p1d pattern {881/31/1}
 Group   2 Type N   : 17s4p1d contracted to 3s2p1d pattern {881/31/1}
 Group   3 Type H   : 4s1p contracted to 2s1p pattern {31/1}

Atom   0C    basis set group =>   1
Atom   1C    basis set group =>   1
Atom   2C    basis set group =>   1
Atom   3C    basis set group =>   1
Atom   4N    basis set group =>   2
Atom   5C    basis set group =>   1
Atom   6H    basis set group =>   3
Atom   7H    basis set group =>   3
Atom   8H    basis set group =>   3
Atom   9H    basis set group =>   3
Atom  10H    basis set group =>   3
Atom  11H    basis set group =>   3
Atom  12H    basis set group =>   3
Atom  13H    basis set group =>   3
Atom  14H    basis set group =>   3
Atom  15H    basis set group =>   3
Atom  16H    basis set group =>   3
-------------------------------
AUXILIARY BASIS SET INFORMATION
-------------------------------
There are 3 groups of distinct atoms

 Group   1 Type C   : 7s5p4d2f contracted to 7s5p4d2f pattern {1111111/11111/1111/11}
 Group   2 Type N   : 7s5p4d2f contracted to 7s5p4d2f pattern {1111111/11111/1111/11}
 Group   3 Type H   : 3s2p1d contracted to 3s2p1d pattern {111/11/1}

Atom   0C    basis set group =>   1
Atom   1C    basis set group =>   1
Atom   2C    basis set group =>   1
Atom   3C    basis set group =>   1
Atom   4N    basis set group =>   2
Atom   5C    basis set group =>   1
Atom   6H    basis set group =>   3
Atom   7H    basis set group =>   3
Atom   8H    basis set group =>   3
Atom   9H    basis set group =>   3
Atom  10H    basis set group =>   3
Atom  11H    basis set group =>   3
Atom  12H    basis set group =>   3
Atom  13H    basis set group =>   3
Atom  14H    basis set group =>   3
Atom  15H    basis set group =>   3
Atom  16H    basis set group =>   3
-------------------------------
AUXILIARY BASIS SET INFORMATION
-------------------------------
There are 3 groups of distinct atoms

 Group   1 Type C   : 10s7p5d2f1g contracted to 10s7p5d2f1g pattern {1111111111/1111111/11111/11/1}
 Group   2 Type N   : 10s7p5d2f1g contracted to 10s7p5d2f1g pattern {1111111111/1111111/11111/11/1}
 Group   3 Type H   : 4s3p2d1f contracted to 4s3p2d1f pattern {1111/111/11/1}

Atom   0C    basis set group =>   1
Atom   1C    basis set group =>   1
Atom   2C    basis set group =>   1
Atom   3C    basis set group =>   1
Atom   4N    basis set group =>   2
Atom   5C    basis set group =>   1
Atom   6H    basis set group =>   3
Atom   7H    basis set group =>   3
Atom   8H    basis set group =>   3
Atom   9H    basis set group =>   3
Atom  10H    basis set group =>   3
Atom  11H    basis set group =>   3
Atom  12H    basis set group =>   3
Atom  13H    basis set group =>   3
Atom  14H    basis set group =>   3
Atom  15H    basis set group =>   3
Atom  16H    basis set group =>   3

Checking for AutoStart:
The File: N_methylpyrrolidine.gbw exists
Trying to determine its content:
     ... Fine, the file contains calculation information
     ... Fine, the calculation information was read
     ... Fine, the file contains a basis set
     ... Fine, the basis set was read
     ... Fine, the file contains a geometry
     ... Fine, the geometry was read
     ... Fine, the file contains a set of orbitals
     ... Fine, the orbitals can be read
     => possible old guess file was deleted
     => GBW file was renamed to GES file
     => GES file is set as startup file
     => Guess is set to MORead
     ... now leaving AutoStart



           ************************************************************
           *        Program running with 4 parallel MPI-processes     *
           *              working on a common directory               *
           ************************************************************
------------------------------------------------------------------------------
                           ORCA GTO INTEGRAL CALCULATION
                           -- RI-GTO INTEGRALS CHOSEN --
------------------------------------------------------------------------------

                         BASIS SET STATISTICS AND STARTUP INFO

Gaussian basis set:
 # of primitive gaussian shells          ...  187
 # of primitive gaussian functions       ...  281
 # of contracted shells                  ...   69
 # of contracted basis functions         ...  139
 Highest angular momentum                ...    2
 Maximum contraction depth               ...    8
Auxiliary gaussian basis set:
 # of primitive gaussian shells          ...  260
 # of primitive gaussian functions       ...  804
 # of contracted shells                  ...  260
 # of contracted aux-basis functions     ...  804
 Highest angular momentum                ...    4
 Maximum contraction depth               ...    1
Ratio of auxiliary to basis functions    ...  5.78
Integral package used                  ... LIBINT
 One Electron integrals                  ... done
 Ordering auxiliary basis shells         ... done
 Integral threshhold             Thresh  ...  2.500e-11
 Primitive cut-off               TCut    ...  2.500e-12
 Pre-screening matrix                    ... done
 Shell pair data                         ... 
 Ordering of the shell pairs             ... done (   0.000 sec) 2411 of 2415 pairs
 Determination of significant pairs      ... done (   0.000 sec)
 Creation of shell pair data             ... done (   0.001 sec)
 Storage of shell pair data              ... done (   0.001 sec)
 Shell pair data done in (   0.003 sec)
 Computing two index integrals           ... done
 Cholesky decomposition of the V-matrix  ... done


Timings:
 Total evaluation time                   ...  52.458 sec (  0.874 min)
 One electron matrix time                ...  52.091 sec (  0.868 min) = 99.3%
 Schwartz matrix evaluation time         ...   0.176 sec (  0.003 min) =  0.3%
 Two index repulsion integral time       ...   0.072 sec (  0.001 min) =  0.1%
 Cholesky decomposition of V             ...   0.090 sec (  0.002 min) =  0.2%
 Three index repulsion integral time     ...   0.000 sec (  0.000 min) =  0.0%



           ************************************************************
           *        Program running with 4 parallel MPI-processes     *
           *              working on a common directory               *
           ************************************************************
-------------------------------------------------------------------------------
                                 ORCA SCF
-------------------------------------------------------------------------------

------------
SCF SETTINGS
------------
Hamiltonian:
 Ab initio Hamiltonian  Method          .... Hartree-Fock(GTOs)
 RI-approximation to the Coulomb term is turned on
   Number of auxiliary basis functions  .... 804
   RI-JK (J+K treated both via RI)      .... on


General Settings:
 Integral files         IntName         .... N_methylpyrrolidine
 Hartree-Fock type      HFTyp           .... RHF
 Total Charge           Charge          ....    0
 Multiplicity           Mult            ....    1
 Number of Electrons    NEL             ....   48
 Basis Dimension        Dim             ....  139
 Nuclear Repulsion      ENuc            ....    258.3669755301 Eh

Convergence Acceleration:
 DIIS                   CNVDIIS         .... off
 Newton-Raphson         CNVNR           .... off
 SOSCF                  CNVSOSCF        .... on
   Start iteration      SOSCFMaxIt      ....   150
   Startup grad/error   SOSCFStart      ....  0.003300
 Level Shifting         CNVShift        .... on
   Level shift para.    LevelShift      ....    0.2000
   Turn off err/grad.   ShiftErr        ....    0.1000
 Zerner damping         CNVZerner       .... off
 Static damping         CNVDamp         .... off
 Fernandez-Rico         CNVRico         .... off

SCF Procedure:
 Maximum # iterations   MaxIter         ....   300
 SCF integral mode      SCFMode         .... Direct
   Integral package                     .... LIBINT
 Reset frequency        DirectResetFreq ....    20
 Integral Threshold     Thresh          ....  2.500e-11 Eh
 Primitive CutOff       TCut            ....  2.500e-12 Eh

Convergence Tolerance:
 Convergence Check Mode ConvCheckMode   .... Total+1el-Energy
 Convergence forced     ConvForced      .... 1
 Energy Change          TolE            ....  1.000e-08 Eh
 1-El. energy change                    ....  1.000e-05 Eh
 Orbital Gradient       TolG            ....  1.000e-05
 Orbital Rotation angle TolX            ....  1.000e-05


Diagonalization of the overlap matrix:
Smallest eigenvalue                        ... 1.857e-03
Time for diagonalization                   ...    0.006 sec
Threshold for overlap eigenvalues          ... 1.000e-08
Number of eigenvalues below threshold      ... 0
Time for construction of square roots      ...    0.010 sec
Total time needed                          ...    0.016 sec

---------------------
INITIAL GUESS: MOREAD
---------------------
Guess MOs are being read from file: N_methylpyrrolidine.ges
Input Geometry matches current geometry (good)
Atom 0: N(Shells)= 6 and 10 - projection required
Input basis set needs projection
NBasis(read)= 334
NBasis(calc)= 139
Basis set overlap was calculated
Using GuessMode=FMatrix for the initial guess
C*T matrix was formed
Effective Fockian was calculated
Effective Fockian was diagonalized
Initial density was built
                      ------------------
                      INITIAL GUESS DONE (   0.0 sec)
                      ------------------
--------------
SCF ITERATIONS
--------------
ITER       Energy         Delta-E        Max-DP      RMS-DP      [F,P]   Gradient Norm
                             ****Turning on KDIIS(Cayley)****
  0   -250.1904020426   0.000000000000 0.00102495  0.00004901  0.0047248   0.005258513
  1   -250.1904971198  -0.000095077186 0.00215961  0.00009651  0.0042850   0.004780092
  2   -250.1906602702  -0.000163150363 0.00366435  0.00015693  0.0034350   0.003844788
                      *** Initiating the SOSCF procedure ***
                           *** Shutting down KDIIS ***
                      *** Re-Reading the Fockian *** 
                      *** Removing any level shift *** 
ITER      Energy       Delta-E        Grad      Rot      Max-DP    RMS-DP
  3   -250.19085318  -0.0001929104  0.002059  0.002059  0.005724  0.000236
  4   -250.19096280  -0.0001096183  0.000015  0.000028  0.000039  0.000001
  5   -250.19096281  -0.0000000072  0.000010  0.000024  0.000034  0.000001
                  ***Gradient check signals convergence***
              ***Rediagonalizing the Fockian in SOSCF/NRSCF***

               *****************************************************
               *                     SUCCESS                       *
               *           SCF CONVERGED AFTER   6 CYCLES          *
               *****************************************************


----------------
TOTAL SCF ENERGY
----------------

Total Energy       :         -250.19096281 Eh           -6808.04221 eV

Components:
Nuclear Repulsion  :          258.36697553 Eh            7030.52283 eV
Electronic Energy  :         -508.55793834 Eh          -13838.56504 eV
One Electron Energy:         -849.60379729 Eh          -23118.89467 eV
Two Electron Energy:          341.04585895 Eh            9280.32962 eV

Virial components:
Potential Energy   :         -499.90619109 Eh          -13603.13903 eV
Kinetic Energy     :          249.71522828 Eh            6795.09682 eV
Virial Ratio       :            2.00190511


---------------
SCF CONVERGENCE
---------------

  Last Energy change         ...   -1.5893e-09  Tolerance :   1.0000e-08
  Last MAX-Density change    ...    6.2192e-06  Tolerance :   1.0000e-07
  Last RMS-Density change    ...    1.6462e-07  Tolerance :   5.0000e-09
  Last Orbital Gradient      ...    1.4182e-06  Tolerance :   1.0000e-05
  Last Orbital Rotation      ...    1.8589e-06  Tolerance :   1.0000e-05

             **** THE GBW FILE WAS UPDATED (N_methylpyrrolidine.gbw) ****
             **** DENSITY FILE WAS UPDATED (N_methylpyrrolidine.scfp.tmp) ****
             **** ENERGY FILE WAS UPDATED (N_methylpyrrolidine.en.tmp) ****
----------------
ORBITAL ENERGIES
----------------

  NO   OCC          E(Eh)            E(eV) 
   0   2.0000     -15.538380      -422.8208 
   1   2.0000     -11.251122      -306.1586 
   2   2.0000     -11.248908      -306.0983 
   3   2.0000     -11.248889      -306.0978 
   4   2.0000     -11.226232      -305.4813 
   5   2.0000     -11.225665      -305.4659 
   6   2.0000      -1.242650       -33.8142 
   7   2.0000      -1.045688       -28.4546 
   8   2.0000      -0.971084       -26.4245 
   9   2.0000      -0.905839       -24.6491 
  10   2.0000      -0.779627       -21.2147 
  11   2.0000      -0.774971       -21.0880 
  12   2.0000      -0.662998       -18.0411 
  13   2.0000      -0.649703       -17.6793 
  14   2.0000      -0.598096       -16.2750 
  15   2.0000      -0.587586       -15.9890 
  16   2.0000      -0.554099       -15.0778 
  17   2.0000      -0.522464       -14.2170 
  18   2.0000      -0.495764       -13.4904 
  19   2.0000      -0.493093       -13.4177 
  20   2.0000      -0.472029       -12.8446 
  21   2.0000      -0.464733       -12.6460 
  22   2.0000      -0.449477       -12.2309 
  23   2.0000      -0.346891        -9.4394 
  24   0.0000       0.174978         4.7614 
  25   0.0000       0.202028         5.4975 
  26   0.0000       0.207820         5.6551 
  27   0.0000       0.224214         6.1012 
  28   0.0000       0.250428         6.8145 
  29   0.0000       0.256731         6.9860 
  30   0.0000       0.266794         7.2598 
  31   0.0000       0.274326         7.4648 
  32   0.0000       0.290071         7.8932 
  33   0.0000       0.303434         8.2569 
  34   0.0000       0.333674         9.0797 
  35   0.0000       0.340446         9.2640 
  36   0.0000       0.364775         9.9260 
  37   0.0000       0.367275         9.9941 
  38   0.0000       0.423834        11.5331 
  39   0.0000       0.455652        12.3989 
  40   0.0000       0.501287        13.6407 
  41   0.0000       0.575514        15.6605 
  42   0.0000       0.636588        17.3224 
  43   0.0000       0.639597        17.4043 
  44   0.0000       0.646388        17.5891 
  45   0.0000       0.672211        18.2918 
  46   0.0000       0.690108        18.7788 
  47   0.0000       0.726994        19.7825 
  48   0.0000       0.748139        20.3579 
  49   0.0000       0.772018        21.0077 
  50   0.0000       0.806419        21.9438 
  51   0.0000       0.829150        22.5623 
  52   0.0000       0.851832        23.1795 
  53   0.0000       0.854730        23.2584 
  54   0.0000       0.870487        23.6872 
  55   0.0000       0.871979        23.7277 
  56   0.0000       0.873552        23.7706 
  57   0.0000       0.881047        23.9745 
  58   0.0000       0.898282        24.4435 
  59   0.0000       0.909780        24.7564 
  60   0.0000       0.912564        24.8321 
  61   0.0000       0.919176        25.0120 
  62   0.0000       0.922361        25.0987 
  63   0.0000       0.929155        25.2836 
  64   0.0000       0.959112        26.0988 
  65   0.0000       0.959654        26.1135 
  66   0.0000       1.033452        28.1217 
  67   0.0000       1.066198        29.0127 
  68   0.0000       1.083425        29.4815 
  69   0.0000       1.087250        29.5856 
  70   0.0000       1.184009        32.2185 
  71   0.0000       1.209306        32.9069 
  72   0.0000       1.354684        36.8628 
  73   0.0000       1.392119        37.8815 
  74   0.0000       1.426042        38.8046 
  75   0.0000       1.456651        39.6375 
  76   0.0000       1.477061        40.1929 
  77   0.0000       1.504692        40.9447 
  78   0.0000       1.531394        41.6713 
  79   0.0000       1.556302        42.3491 
  80   0.0000       1.614632        43.9364 
  81   0.0000       1.624830        44.2139 
  82   0.0000       1.670763        45.4638 
  83   0.0000       1.700967        46.2857 
  84   0.0000       1.776341        48.3367 
  85   0.0000       1.778277        48.3894 
  86   0.0000       1.779551        48.4240 
  87   0.0000       1.825830        49.6834 
  88   0.0000       1.843333        50.1596 
  89   0.0000       1.867127        50.8071 
  90   0.0000       1.882220        51.2178 
  91   0.0000       1.898349        51.6567 
  92   0.0000       1.903100        51.7860 
  93   0.0000       1.911068        52.0028 
  94   0.0000       1.916355        52.1467 
  95   0.0000       1.933635        52.6169 
  96   0.0000       1.952237        53.1231 
  97   0.0000       1.994715        54.2790 
  98   0.0000       2.011653        54.7399 
  99   0.0000       2.018796        54.9342 
 100   0.0000       2.030495        55.2526 
 101   0.0000       2.035257        55.3822 
 102   0.0000       2.040580        55.5270 
 103   0.0000       2.095918        57.0328 
 104   0.0000       2.115711        57.5714 
 105   0.0000       2.135981        58.1230 
 106   0.0000       2.173908        59.1550 
 107   0.0000       2.183235        59.4089 
 108   0.0000       2.200344        59.8744 
 109   0.0000       2.217383        60.3381 
 110   0.0000       2.278163        61.9920 
 111   0.0000       2.288169        62.2643 
 112   0.0000       2.329639        63.3927 
 113   0.0000       2.331003        63.4298 
 114   0.0000       2.381183        64.7953 
 115   0.0000       2.383821        64.8671 
 116   0.0000       2.389671        65.0263 
 117   0.0000       2.415883        65.7395 
 118   0.0000       2.451492        66.7085 
 119   0.0000       2.472640        67.2840 
 120   0.0000       2.480675        67.5026 
 121   0.0000       2.601863        70.8003 
 122   0.0000       2.683135        73.0118 
 123   0.0000       2.690960        73.2248 
 124   0.0000       2.706603        73.6504 
 125   0.0000       2.733915        74.3936 
 126   0.0000       2.756625        75.0116 
 127   0.0000       2.769074        75.3503 
 128   0.0000       2.777276        75.5735 
 129   0.0000       2.779699        75.6394 
 130   0.0000       2.819848        76.7320 
 131   0.0000       2.834603        77.1335 
 132   0.0000       2.911062        79.2140 
 133   0.0000       2.933457        79.8234 
 134   0.0000       3.040719        82.7422 
 135   0.0000       3.083374        83.9029 
 136   0.0000       3.087301        84.0097 
 137   0.0000       3.112014        84.6822 
 138   0.0000       3.196429        86.9793 

                    ********************************
                    * MULLIKEN POPULATION ANALYSIS *
                    ********************************

-----------------------
MULLIKEN ATOMIC CHARGES
-----------------------
   0 C :   -0.061313
   1 C :   -0.061301
   2 C :    0.111498
   3 C :    0.111496
   4 N :   -0.501053
   5 C :    0.098611
   6 H :    0.041066
   7 H :    0.033197
   8 H :    0.034439
   9 H :    0.002779
  10 H :    0.002779
  11 H :    0.034440
  12 H :    0.005110
  13 H :    0.036994
  14 H :    0.036994
  15 H :    0.033197
  16 H :    0.041067
Sum of atomic charges:    0.0000000

--------------------------------
MULLIKEN REDUCED ORBITAL CHARGES
--------------------------------
  0 C s       :     3.078193  s :     3.078193
      pz      :     0.994077  p :     2.905666
      px      :     0.958735
      py      :     0.952854
      dz2     :     0.013998  d :     0.077454
      dxz     :     0.014457
      dyz     :     0.012725
      dx2y2   :     0.022493
      dxy     :     0.013780
  1 C s       :     3.078181  s :     3.078181
      pz      :     0.994074  p :     2.905665
      px      :     0.958738
      py      :     0.952853
      dz2     :     0.013998  d :     0.077454
      dxz     :     0.014458
      dyz     :     0.012725
      dx2y2   :     0.022493
      dxy     :     0.013780
  2 C s       :     3.029081  s :     3.029081
      pz      :     0.939570  p :     2.749894
      px      :     0.927857
      py      :     0.882467
      dz2     :     0.026442  d :     0.109527
      dxz     :     0.013488
      dyz     :     0.020679
      dx2y2   :     0.023786
      dxy     :     0.025133
  3 C s       :     3.029085  s :     3.029085
      pz      :     0.939569  p :     2.749892
      px      :     0.927856
      py      :     0.882467
      dz2     :     0.026442  d :     0.109528
      dxz     :     0.013488
      dyz     :     0.020679
      dx2y2   :     0.023787
      dxy     :     0.025132
  4 N s       :     3.544516  s :     3.544516
      pz      :     1.706186  p :     3.906617
      px      :     1.099423
      py      :     1.101008
      dz2     :     0.004169  d :     0.049921
      dxz     :     0.008972
      dyz     :     0.010308
      dx2y2   :     0.013112
      dxy     :     0.013360
  5 C s       :     3.025971  s :     3.025971
      pz      :     0.965815  p :     2.789143
      px      :     0.818199
      py      :     1.005129
      dz2     :     0.020942  d :     0.086274
      dxz     :     0.020125
      dyz     :     0.006698
      dx2y2   :     0.021619
      dxy     :     0.016890
  6 H s       :     0.930344  s :     0.930344
      pz      :     0.017265  p :     0.028590
      px      :     0.005607
      py      :     0.005718
  7 H s       :     0.938096  s :     0.938096
      pz      :     0.012837  p :     0.028707
      px      :     0.009717
      py      :     0.006154
  8 H s       :     0.937757  s :     0.937757
      pz      :     0.008514  p :     0.027805
      px      :     0.004379
      py      :     0.014912
  9 H s       :     0.970299  s :     0.970299
      pz      :     0.019853  p :     0.026922
      px      :     0.003681
      py      :     0.003388
 10 H s       :     0.970299  s :     0.970299
      pz      :     0.019853  p :     0.026922
      px      :     0.003681
      py      :     0.003388
 11 H s       :     0.937755  s :     0.937755
      pz      :     0.008514  p :     0.027805
      px      :     0.004379
      py      :     0.014912
 12 H s       :     0.966524  s :     0.966524
      pz      :     0.020478  p :     0.028367
      px      :     0.003117
      py      :     0.004772
 13 H s       :     0.934342  s :     0.934342
      pz      :     0.007561  p :     0.028664
      px      :     0.005878
      py      :     0.015225
 14 H s       :     0.934342  s :     0.934342
      pz      :     0.007561  p :     0.028664
      px      :     0.005878
      py      :     0.015225
 15 H s       :     0.938096  s :     0.938096
      pz      :     0.012836  p :     0.028707
      px      :     0.009717
      py      :     0.006154
 16 H s       :     0.930343  s :     0.930343
      pz      :     0.017265  p :     0.028590
      px      :     0.005607
      py      :     0.005718


                     *******************************
                     * LOEWDIN POPULATION ANALYSIS *
                     *******************************

----------------------
LOEWDIN ATOMIC CHARGES
----------------------
   0 C :   -0.035694
   1 C :   -0.035692
   2 C :   -0.013103
   3 C :   -0.013106
   4 N :   -0.033714
   5 C :   -0.026319
   6 H :    0.024110
   7 H :    0.020758
   8 H :    0.017852
   9 H :   -0.004792
  10 H :   -0.004792
  11 H :    0.017853
  12 H :   -0.001501
  13 H :    0.021636
  14 H :    0.021636
  15 H :    0.020757
  16 H :    0.024112

-------------------------------
LOEWDIN REDUCED ORBITAL CHARGES
-------------------------------
  0 C s       :     2.806349  s :     2.806349
      pz      :     1.035683  p :     3.034595
      px      :     1.000796
      py      :     0.998116
      dz2     :     0.032658  d :     0.194750
      dxz     :     0.039293
      dyz     :     0.032450
      dx2y2   :     0.054556
      dxy     :     0.035792
  1 C s       :     2.806344  s :     2.806344
      pz      :     1.035684  p :     3.034598
      px      :     1.000797
      py      :     0.998117
      dz2     :     0.032658  d :     0.194751
      dxz     :     0.039294
      dyz     :     0.032451
      dx2y2   :     0.054557
      dxy     :     0.035791
  2 C s       :     2.804887  s :     2.804887
      pz      :     1.014816  p :     2.939984
      px      :     0.975264
      py      :     0.949904
      dz2     :     0.067709  d :     0.268232
      dxz     :     0.031082
      dyz     :     0.053832
      dx2y2   :     0.058489
      dxy     :     0.057120
  3 C s       :     2.804889  s :     2.804889
      pz      :     1.014814  p :     2.939985
      px      :     0.975265
      py      :     0.949906
      dz2     :     0.067710  d :     0.268233
      dxz     :     0.031081
      dyz     :     0.053832
      dx2y2   :     0.058490
      dxy     :     0.057120
  4 N s       :     3.066188  s :     3.066188
      pz      :     1.635761  p :     3.860742
      px      :     1.109039
      py      :     1.115941
      dz2     :     0.009388  d :     0.106785
      dxz     :     0.016048
      dyz     :     0.018088
      dx2y2   :     0.030640
      dxy     :     0.032621
  5 C s       :     2.811535  s :     2.811535
      pz      :     1.035965  p :     2.991142
      px      :     0.903212
      py      :     1.051966
      dz2     :     0.055659  d :     0.223642
      dxz     :     0.054189
      dyz     :     0.018248
      dx2y2   :     0.048533
      dxy     :     0.047012
  6 H s       :     0.900767  s :     0.900767
      pz      :     0.039151  p :     0.075122
      px      :     0.017786
      py      :     0.018186
  7 H s       :     0.904324  s :     0.904324
      pz      :     0.030423  p :     0.074919
      px      :     0.025345
      py      :     0.019151
  8 H s       :     0.909337  s :     0.909337
      pz      :     0.021699  p :     0.072811
      px      :     0.016125
      py      :     0.034986
  9 H s       :     0.930246  s :     0.930246
      pz      :     0.046358  p :     0.074546
      px      :     0.014851
      py      :     0.013337
 10 H s       :     0.930247  s :     0.930247
      pz      :     0.046357  p :     0.074544
      px      :     0.014850
      py      :     0.013337
 11 H s       :     0.909337  s :     0.909337
      pz      :     0.021699  p :     0.072810
      px      :     0.016125
      py      :     0.034987
 12 H s       :     0.927400  s :     0.927400
      pz      :     0.047552  p :     0.074102
      px      :     0.012364
      py      :     0.014185
 13 H s       :     0.905990  s :     0.905990
      pz      :     0.019212  p :     0.072374
      px      :     0.017543
      py      :     0.035620
 14 H s       :     0.905989  s :     0.905989
      pz      :     0.019212  p :     0.072374
      px      :     0.017543
      py      :     0.035620
 15 H s       :     0.904325  s :     0.904325
      pz      :     0.030422  p :     0.074918
      px      :     0.025345
      py      :     0.019151
 16 H s       :     0.900769  s :     0.900769
      pz      :     0.039150  p :     0.075119
      px      :     0.017785
      py      :     0.018185


                      *****************************
                      * MAYER POPULATION ANALYSIS *
                      *****************************

  NA   - Mulliken gross atomic population
  ZA   - Total nuclear charge
  QA   - Mulliken gross atomic charge
  VA   - Mayer's total valence
  BVA  - Mayer's bonded valence
  FA   - Mayer's free valence

  ATOM       NA         ZA         QA         VA         BVA        FA
  0 C      6.0613     6.0000    -0.0613     4.0081     4.0081     0.0000
  1 C      6.0613     6.0000    -0.0613     4.0081     4.0081     0.0000
  2 C      5.8885     6.0000     0.1115     3.9511     3.9511     0.0000
  3 C      5.8885     6.0000     0.1115     3.9511     3.9511    -0.0000
  4 N      7.5011     7.0000    -0.5011     3.0115     3.0115     0.0000
  5 C      5.9014     6.0000     0.0986     3.9440     3.9440     0.0000
  6 H      0.9589     1.0000     0.0411     0.9649     0.9649     0.0000
  7 H      0.9668     1.0000     0.0332     0.9677     0.9677     0.0000
  8 H      0.9656     1.0000     0.0344     0.9723     0.9723     0.0000
  9 H      0.9972     1.0000     0.0028     0.9657     0.9657    -0.0000
 10 H      0.9972     1.0000     0.0028     0.9657     0.9657     0.0000
 11 H      0.9656     1.0000     0.0344     0.9723     0.9723     0.0000
 12 H      0.9949     1.0000     0.0051     0.9773     0.9773    -0.0000
 13 H      0.9630     1.0000     0.0370     0.9794     0.9794     0.0000
 14 H      0.9630     1.0000     0.0370     0.9794     0.9794     0.0000
 15 H      0.9668     1.0000     0.0332     0.9677     0.9677     0.0000
 16 H      0.9589     1.0000     0.0411     0.9649     0.9649     0.0000

  Mayer bond orders larger than 0.1
B(  0-C ,  1-C ) :   1.0364 B(  0-C ,  3-C ) :   1.0539 B(  0-C , 15-H ) :   0.9733 
B(  0-C , 16-H ) :   0.9691 B(  1-C ,  2-C ) :   1.0539 B(  1-C ,  6-H ) :   0.9691 
B(  1-C ,  7-H ) :   0.9733 B(  2-C ,  4-N ) :   0.9927 B(  2-C ,  8-H ) :   0.9748 
B(  2-C ,  9-H ) :   0.9561 B(  3-C ,  4-N ) :   0.9927 B(  3-C , 10-H ) :   0.9561 
B(  3-C , 11-H ) :   0.9748 B(  4-N ,  5-C ) :   1.0116 B(  5-C , 12-H ) :   0.9699 
B(  5-C , 13-H ) :   0.9872 B(  5-C , 14-H ) :   0.9872 

-------
TIMINGS
-------

Total SCF time: 0 days 0 hours 0 min 4 sec 

Total time                  ....       4.127 sec
Sum of individual times     ....       3.942 sec  ( 95.5%)

Fock matrix formation       ....       3.876 sec  ( 93.9%)
Diagonalization             ....       0.011 sec  (  0.3%)
Density matrix formation    ....       0.001 sec  (  0.0%)
Population analysis         ....       0.007 sec  (  0.2%)
Initial guess               ....       0.040 sec  (  1.0%)
Orbital Transformation      ....       0.000 sec  (  0.0%)
Orbital Orthonormalization  ....       0.000 sec  (  0.0%)
DIIS solution               ....       0.000 sec  (  0.0%)
SOSCF solution              ....       0.006 sec  (  0.2%)


           ************************************************************
           *        Program running with 4 parallel MPI-processes     *
           *              working on a common directory               *
           ************************************************************


------------------------------------------------------------------------------- 
                              ORCA-MATRIX DRIVEN CI                            
------------------------------------------------------------------------------- 


Wavefunction type
-----------------
Correlation treatment                      ...      CCSD     
Single excitations                         ... ON
Orbital optimization                       ... OFF
Calculation of Z vector                    ... OFF
Calculation of Brueckner orbitals          ... OFF
Perturbative triple excitations            ... ON
Calculation of F12 correction              ... OFF
Frozen core treatment                      ... chemical core (12 el)
Reference Wavefunction                     ... RHF
  Internal Orbitals:     6 ...   23 ( 18 MO's/ 36 electrons)
  Virtual  Orbitals:    24 ...  138 (115 MO's              )
Number of AO's                             ...    139
Number of electrons                        ...     48
Number of correlated electrons             ...     36

Algorithmic settings
--------------------
Integral transformation                    ... All integrals via the RI transformation
K(C) Formation                             ... RI-DLPNO
   PNO-Integral Storage                    ... ON DISK
   PNO occupation number cut-off           ... 1.000e-07
   Singles PNO occupation number cut-off   ... 3.000e-09
   PNO Mulliken prescreening cut-off       ... 1.000e-03
   Domain cut-off (Mulliken population)    ... 1.000e-03
   PNO Normalization                       ...    1
Maximum number of iterations               ...        50
Convergence tolerance (max. residuum)      ... 1.000e-05
Level shift for amplitude update           ... 2.000e-01
Maximum number of DIIS vectors             ...         7
DIIS turned on at iteration                ...         0
Damping before turning on DIIS             ...     0.500
Damping after turning on DIIS              ...     0.000
Pair specific amplitude update             ... OFF
Natural orbital iterations                 ... OFF
Perturbative natural orbital generation    ... OFF
Printlevel                                 ... 2

Singles Fock matrix elements calculated using PNOs.

Memory handling:
----------------
Maximum memory for working arrays          ...   8000 MB
Data storage in matrix containers          ... UNCOMPRESSED
Data type for integral storage             ... DOUBLE
In-Core Storage of quantities:
   Amplitudes+Sigma Vector      ... NO
   J+K operators                ... NO
   DIIS vectors                 ... NO
   3-external integrals         ... NO
   4-external integrals         ... NO

Localization treatment:
-----------------------
Localization option                        ...    6
Localization threshhold                    ... -1.0e+00
Using relative localization threshhold     ... 1.0e-08
Neglect threshold for strong pairs         ... 1.000e-05 Eh
Prescreening threshold for very weak pairs ... 1.000e-07 Eh

Initializing the integral package          ... done
Localizing the valence orbitals
------------------------------------------------------------------------------
                           ORCA ORBITAL LOCALIZATION
------------------------------------------------------------------------------

Input orbitals are from                  ... N_methylpyrrolidine.proc0.gbw
Output orbitals are to                   ... N_methylpyrrolidine.proc0.loc
Max. number of iterations                ... 128
Localizations seeded randomly            ... off
Convergence tolerance                    ... 1.000e-06
Using relative localization threshhold   ... 1.000e-08
Treshold for strong local MOs            ... 9.500e-01
Treshold for bond MOs                    ... 8.500e-01
Operator                                 ... 0
Orbital range for localization           ... 6 to 23
Localization criterion                   ... FOSTER-BOYS (AUGMENTED HESSIAN)
Doing the dipole integrals     ... o.k.
Initial value of the localization sum :   195.564773
ITERATION   0 : L=  206.5232770734 DL=  1.10e+01 (AVERGE_DL)=    0.2676269977 
ITERATION   1 : L=  207.7830840313 DL=  1.26e+00 (AVERGE_DL)=    0.0907415693 
ITERATION   2 : L=  207.7955433531 DL=  1.25e-02 (AVERGE_DL)=    0.0090240498 
ITERATION   3 : L=  207.7960484246 DL=  5.05e-04 (AVERGE_DL)=    0.0018168986 
ITERATION   4 : L=  207.7960523099 DL=  3.89e-06 (AVERGE_DL)=    0.0001593560 
ITERATION   5 : L=  207.7960523371 DL=  2.72e-08 (AVERGE_DL)=    0.0000133350 
LOCALIZATION SUM CONVERGED

------------------------------------------------------
AUGMENTED HESSIAN OPTIMIZATION OF FOSTER-BOYS ORBITALS
------------------------------------------------------

Spin operator:           0
Orbital window:          6 to 23
Number of iterations:    128
Gradient tolerance:      1.000e-06
Number of pairs:         153
Davidson threshold:      2000
Diagonalization method:  LAPACK
Iter:    0   L: 207.7960523371   Grad. norm: 6.780497e-04
   *** Likely close to a maximum now. ***
       Augmented Hessian eigenvalues:  3.87e-09 -5.98e+00 -6.20e+00 -8.78e+00 ... 
Iter:    1   L: 207.7960523390   Grad. norm: 1.676676e-10
LOCALIZATION HAS CONVERGED.

Eigenvalues of the Hessian:
  0 -5.978e+00
  1 -6.200e+00
  2 -8.779e+00
  3 -1.240e+01
  4 -1.594e+01
  5 -1.642e+01
  6 -1.831e+01
  7 -1.834e+01
  8 -1.836e+01
  9 -1.848e+01
    ...


------------------------------------------------------------------------------- 
                    LOCALIZED MOLECULAR ORBITAL COMPOSITIONS                   
------------------------------------------------------------------------------- 

The Mulliken populations for each LMO on each atom are computed
The LMO`s will be ordered according to atom index and type
  (A) Strongly localized MO`s have populations of >=0.950 on one atom
  (B) Two center bond orbitals have populations of >=0.850 on two atoms
  (C) Other MO`s are considered to be `delocalized`

FOUND  -   1 strongly local MO`s
       -  17 two center bond MO`s
       -   0 significantly delocalized MO`s

Rather strongly localized orbitals:
MO   6:   4N  -   0.968275
Bond-like localized orbitals:
MO  23:  16H  -   0.500235  and   0C  -   0.511469
MO  22:  15H  -   0.503592  and   0C  -   0.509135
MO  21:  14H  -   0.496411  and   5C  -   0.519345
MO  20:  13H  -   0.496412  and   5C  -   0.519344
MO  19:  12H  -   0.514645  and   5C  -   0.505817
MO  18:  11H  -   0.499641  and   3C  -   0.512711
MO  17:  10H  -   0.520058  and   3C  -   0.499951
MO  16:   9H  -   0.520058  and   2C  -   0.499950
MO  15:   8H  -   0.499642  and   2C  -   0.512710
MO  14:   7H  -   0.503592  and   1C  -   0.509135
MO  13:   6H  -   0.500236  and   1C  -   0.511467
MO  12:   5C  -   0.418669  and   4N  -   0.614209
MO  11:   4N  -   0.613184  and   3C  -   0.425499
MO  10:   4N  -   0.613186  and   2C  -   0.425497
MO   9:   3C  -   0.534815  and   0C  -   0.512837
MO   8:   2C  -   0.534817  and   1C  -   0.512835
MO   7:   1C  -   0.522630  and   0C  -   0.522631
Localized MO's were stored in: N_methylpyrrolidine.proc0.loc

Localizing the core orbitals
------------------------------------------------------------------------------
                           ORCA ORBITAL LOCALIZATION
------------------------------------------------------------------------------

Input orbitals are from                  ... N_methylpyrrolidine.proc0.loc
Output orbitals are to                   ... N_methylpyrrolidine.proc0.loc
Max. number of iterations                ... 128
Localizations seeded randomly            ... off
Convergence tolerance                    ... 1.000e-06
Using relative localization threshhold   ... 1.000e-08
Treshold for strong local MOs            ... 9.500e-01
Treshold for bond MOs                    ... 8.500e-01
Operator                                 ... 0
Orbital range for localization           ... 0 to 5
Localization criterion                   ... FOSTER-BOYS (AUGMENTED HESSIAN)
Doing the dipole integrals     ... o.k.
Initial value of the localization sum :    47.992322
ITERATION   0 : L=   47.9923286924 DL=  6.68e-06 (AVERGE_DL)=    0.0006671433 
ITERATION   1 : L=   47.9923286924 DL=  0.00e+00 (AVERGE_DL)=    0.0000000000 
LOCALIZATION SUM CONVERGED

------------------------------------------------------
AUGMENTED HESSIAN OPTIMIZATION OF FOSTER-BOYS ORBITALS
------------------------------------------------------

Spin operator:           0
Orbital window:          0 to 5
Number of iterations:    128
Gradient tolerance:      1.000e-06
Number of pairs:         15
Davidson threshold:      2000
Diagonalization method:  LAPACK
Iter:    0   L: 47.9923286924   Grad. norm: 3.185317e-06
   *** Likely close to a maximum now. ***
       Augmented Hessian eigenvalues:  1.24e-13 -2.98e+01 -2.99e+01 -2.99e+01 ... 
Iter:    1   L: 47.9923286924   Grad. norm: 3.084329e-19
LOCALIZATION HAS CONVERGED.

Eigenvalues of the Hessian:
  0 -2.984e+01
  1 -2.991e+01
  2 -2.991e+01
  3 -3.372e+01
  4 -3.372e+01
  5 -3.390e+01
  6 -7.546e+01
  7 -7.861e+01
  8 -7.861e+01
  9 -8.430e+01
    ...


------------------------------------------------------------------------------- 
                    LOCALIZED MOLECULAR ORBITAL COMPOSITIONS                   
------------------------------------------------------------------------------- 

The Mulliken populations for each LMO on each atom are computed
The LMO`s will be ordered according to atom index and type
  (A) Strongly localized MO`s have populations of >=0.950 on one atom
  (B) Two center bond orbitals have populations of >=0.850 on two atoms
  (C) Other MO`s are considered to be `delocalized`

FOUND  -   6 strongly local MO`s
       -   0 two center bond MO`s
       -   0 significantly delocalized MO`s

Rather strongly localized orbitals:
MO   5:   5C  -   0.999796
MO   4:   4N  -   0.999464
MO   3:   3C  -   0.999400
MO   2:   2C  -   0.999400
MO   1:   1C  -   0.999103
MO   0:   0C  -   0.999103
Localized MO's were stored in: N_methylpyrrolidine.proc0.loc

Warning: internal orbitals are localized - no re-canonicalization of internal orbitals

--------------------------
CLOSED-SHELL FOCK OPERATOR
--------------------------

RI-JK section for the Fock operator:
  RHF full Fock operator         ... done
  RHF frozen core Fock operator  ... done
Time needed for Fock operator              ...            1.193 sec
Reference energy                           ...   -250.190962808

--------------
DLPNO SETTINGS (2015 fully linear scaling implementation)
--------------

TCutMKN:           1.000e-03
TCutPAO:           1.000e-03
TCutPNO:           1.000e-07
TCutPNOSingles:    3.000e-09
TCutEN:            9.700e-01
TCutPAOExt:        1.000e-01
TCutPairs:         1.000e-05
TCutPre:           1.000e-07
TCutOSV:           1.000e-06
TCutDOij:          1.000e-05
TCutDO:            5.000e-03
TCutC:             1.000e-04
TCutCPAO:          1.000e-03
TCutCMO:           1.000e-03
TScaleDOMP2PreScr: 2.000e+00
TScaleMKNMP2PreScr:1.000e+01
TScalePNOMP2PreScr:1.000e+00
PAO overlap thresh 1.000e-08
Using PNOs for Singles Fock computation
Use new domains
Use fully linear algorithm
TCutTNO:           1.000e-09
TCutMP2Pairs:      1.000e-06
TCutDOStrong:      2.000e-03
TCutMKNStrong:     1.000e-02
TCutMKNWeak:       1.000e-01
TCutDOWeak:        4.000e-03
NTCutTNO:          1

--------------------------
Calculating differential overlap integrals ... ok
--------------------------
ELECTRON PAIR PRESCREENING
--------------------------

Dipole-based pair screening          .... used

   TCutDOij = 1.000000e-05
   TCutPre  = 1.000000e-07
   .... Finished loop over pairs
Total time spent in the prescreening                  ...     0.000 sec
sum of pair energies estimated for screened out pairs ...       0.000000000000 Eh
Thresholds for map construction and integral transformation for crude MP2:
   TCutMKN                    ...     1.0e-02
   TCutDO                     ...     1.0e-02
   TCutPairs                  ...     1.0e-05
   TCutPNO_CrudeMP2           ...     1.0e-07
   TCutPNOSingles_CrudeMP2    ...     3.0e-09
--------------------------------
LOCAL RI TRANSFORMATION (IAVPAO)
--------------------------------

Orbital window:       6 to 23
Number of PAOs:     139
Basis functions:    139 (69 shells)
Aux. functions:     490 (174 shells)

Processing maps (0.0 sec)
Average map sizes:
   Aux shells -> MOs              18.0
   Aux shells -> PAOs            139.0
   MOs        -> AO shells        68.0
   PAOs       -> AO shells        69.0

Calculating integrals (0.4 sec, 9.359 MB)
Sorting integrals (0.0 sec, 9.354 MB)
Total time for the integral transformation: 0.4 sec
--------------------------------
INITIAL GUESS AND PNO GENERATION
--------------------------------

PNO truncation parameters                   .... 
    PAOOverlapThresh   =        1.000e-08

    TCutPairs          =        1.000e-05
    TCutPNO            =        1.000e-07
    TCutPNOSingles     =        3.000e-09
    TCutMP2Pairs       =        1.000e-06
    TCutMKN            =        1.000e-02
    TCutDO             =        1.000e-02

Pair selection                          .... not used
Type of local MP2 treatment                 .... semi-local MP2
Strategy for PNO selection                  .... occupation number selection
Pair density normalization                  .... MP2 norm
Spin component scaling                      .... not used

   .... Finished loop over pairs
Making pair pair interaction lists          ... done

                       ===========================
                        171 OF  171 PAIRS ARE KEPT CCSD PAIRS
                          0 OF  171 PAIRS ARE KEPT MP2 PAIRS FOR (T)
                          0 OF  171 PAIRS ARE SKIPPED
                       ===========================

Total time spent in the initial guess                 ...     0.430 sec
SL-MP2 correlation energy (all non-screened pairs)    ...      -0.852765740058 Eh

Initial PNO correlation energy                        ...      -0.852361214893 Eh
sum of pair energies prescreened and skipped MP2 pairs...       0.000000000000 Eh
sum of pair energies of crude MP2 skipped pairs only  ...       0.000000000000 Eh
sum of MP2 pair energies for pairs that were not kept ...       0.000000000000 Eh
sum of PNO error estimates for the kept pairs         ...      -0.000404525165 Eh
                                                          --------------------
sum of all corrections                                         -0.000404525165
Initial total correlation energy                               -0.852765740058
Thresholds for map construction and integral transformation for fine MP2 and CCSD(T) calculation:
   TCutMKN   ...     1.0e-03
   TCutDO    ...     5.0e-03
   TCutPairs ...     1.0e-05
   TCutCMO   ...     1.0e-03
   TCutCPAO  ...     1.0e-03

Thresholds for map construction and integral transformation for strong Triples:
   TCutMKN   ...     1.0e-02
   TCutDO    ...     1.0e-02
   TCutCMO   ...     1.0e-03
   TCutCPAO  ...     1.0e-03

Thresholds for map construction and integral transformation for weak Triples:
   TCutMKN   ...     1.0e-01
   TCutDO    ...     2.0e-02
   TCutCMO   ...     1.0e-03
   TCutCPAO  ...     1.0e-03

--------------------------------
LOCAL RI TRANSFORMATION (IAVPAO)
--------------------------------

Orbital window:       6 to 23
Number of PAOs:     139
Basis functions:    139 (69 shells)
Aux. functions:     490 (174 shells)

Processing maps (0.0 sec)
Average map sizes:
   Aux shells -> MOs              18.0
   Aux shells -> PAOs            139.0
   MOs        -> AO shells        68.0
   PAOs       -> AO shells        69.0

Calculating integrals (0.4 sec, 9.359 MB)
Sorting integrals (0.0 sec, 9.354 MB)
Total time for the integral transformation: 0.4 sec
--------------------------------
INITIAL GUESS AND PNO GENERATION
--------------------------------

PNO truncation parameters                   .... 
    ScaleTCutPNO       =        1.000e-02
    PAOOverlapThresh   =        1.000e-08

    TCutPairs          =        1.000e-05
    TCutPNO            =        1.000e-07
    TCutPNOSingles     =        3.000e-09
    TCutMP2Pairs       =        1.000e-06
    TCutMKN            =        1.000e-03
    TCutDO             =        5.000e-03

Pair selection                          .... not used
Type of local MP2 treatment                 .... full local PMP2
Strategy for PNO selection                  .... occupation number selection
Pair density normalization                  .... MP2 norm
Spin component scaling                      .... not used

PASS-1: Formation of initial guess LMP2 amplitudes
Initial amplitudes guess done. Entering LMP2 iteration loop:
   Max. no of iterations          ...  50
   Energy convergence tolerance   ...    1.0e-07
   Residual convergence tolerance ...    5.0e-07
   Fock matrix cutoff             ...    1.0e-05 Eh
   DIIS convergence acceleration parameters:
        Max # vectors in DIIS     ... 7
        Start iteration of DIIS   ... 0
        Levelshift                ... 2.000e-01
        Damping factor 1          ... 5.000e-01
        Damping factor 2          ... 1.000e+00
   L-MP2 PNO cut-off              ...   1.0e-09
   L-MP2 PNO cut-off (core)       ...   1.0e-11
                           *** Turning on DIIS ***
LMP2-Iter=   0:  ELMP2= -0.871306869271  DE=   1.8e-02 RMAX=   3.3e-03
LMP2-Iter=   1:  ELMP2= -0.880440653481  DE=   9.1e-03 RMAX=   1.8e-03
LMP2-Iter=   2:  ELMP2= -0.881816948174  DE=   1.4e-03 RMAX=   2.8e-04
LMP2-Iter=   3:  ELMP2= -0.881924540795  DE=   1.1e-04 RMAX=   1.0e-04
LMP2-Iter=   4:  ELMP2= -0.881928011223  DE=   3.5e-06 RMAX=   2.9e-05
LMP2-Iter=   5:  ELMP2= -0.881926950672  DE=   1.1e-06 RMAX=   1.0e-05
LMP2-Iter=   6:  ELMP2= -0.881926883442  DE=   6.7e-08 RMAX=   2.0e-06
LMP2-Iter=   7:  ELMP2= -0.881926893991  DE=   1.1e-08 RMAX=   5.3e-07
LMP2-Iter=   8:  ELMP2= -0.881926897983  DE=   4.0e-09 RMAX=   5.6e-08 => CONVERGED
PASS-2: Formation of Pair natural orbitals
   .... Finished loop over pairs

 PNO Occupation Number Statistics: 
  | Av. % of trace(Dij) retained        ...  99.718276795378
  | sigma^2 in % of trace(Dij) retained ...   1.99e-01
  | Av. % of trace(Di) retained         ...  99.999856612248
  | sigma^2 in % of trace(Di) retained  ...   2.82e-09
 Distributions of % trace(Dij) recovered:
  |       >= 99.9  ...    85 ( 49.7 % of all pairs)
  |   [90.0, 99.0) ...    15 (  8.8 % of all pairs)
  |   [99.0, 99.9) ...    71 ( 41.5 % of all pairs)
 Distributions of % trace(Di) recovered :
  |       >= 99.9  ...    18 (100.0 % of all I-pairs )

Making pair pair interaction lists          ... done

                       ===========================
                        171 OF  171 PAIRS ARE KEPT
                       ===========================

Total time spent in the initial guess                 ...     4.312 sec
L-MP2 correlation energy (all non-screened pairs)     ...      -0.881926897983 Eh
L-MP2 PNO error correction                            ...      -0.000005691761 Eh
                                                          --------------------
Initial total L-MP2 energy (non-screened pairs)       ...      -0.881932589744 Eh

Initial PNO correlation energy                        ...      -0.881567652684 Eh
sum of pair energies estimated for screened out pairs ...       0.000000000000 Eh
sum of MP2 pair energies for pairs that were not kept ...       0.000000000000 Eh
sum of PNO error estimates for the kept pairs         ...      -0.000364937060 Eh
                                                          --------------------
sum of all corrections                                         -0.000364937060
Initial total correlation energy                               -0.881932589744
Thresholds for map construction and integral transformation for fine MP2 and CCSD(T) calculation:
   TCutMKN   ...     1.0e-03
   TCutDO    ...     5.0e-03
   TCutPairs ...     1.0e-05
   TCutCMO   ...     1.0e-03
   TCutCPAO  ...     1.0e-03

Time for aux screen maps:            0.002
Time for maps after fine MP2:            0.007
-----------------------------
LOCAL RI TRANSFORMATION (IJV)
-----------------------------

Orbital window:       6 to 23
Basis functions:    139 (69 shells)
Aux. functions:     490 (174 shells)

Processing maps (0.0 sec)
Average map sizes:
   Aux shells -> MOs(i)           18.0
   Aux shells -> MOs(j)           18.0
   MOs        -> AO shells        68.0

Calculating integrals (0.4 sec, 1.217 MB)
Sorting integrals (0.0 sec, 1.211 MB)
Total time for the integral transformation: 0.4 sec
--------------------------------
LOCAL RI TRANSFORMATION (VABPAO)
--------------------------------

Number of PAOs:     139
Basis functions:    139 (69 shells)
Aux. functions:     490 (174 shells)

Processing maps (0.0 sec)
Average map sizes:
   Aux shells -> PAOs            139.0
   PAOs       -> AO shells        69.0

Calculating integrals (0.5 sec, 128.255 MB)
Finished


-------------------------------------
Pair Pair Term precalculation with     
RI-(ij|mn) and (im|jn) transformation  
ON THE FLY                             
-------------------------------------

   IBatch   1 (of   1)              ... done (   16.261 sec)
Total EXT                           ...          16.376 sec

---------------------
RI-PNO TRANSFORMATION
---------------------

Total Number of PNOs                   ...  5358
Average number of PNOs per pair        ...    31
Maximal number of PNOs per pair        ...    45
   #pairs with  1 -  5 PNOs   :    0
   #pairs with  6 - 10 PNOs   :    2
   #pairs with 11 - 15 PNOs   :    8
   #pairs with 16 - 20 PNOs   :    7
   #pairs with 21 - 25 PNOs   :   22
   #pairs with 26 - 30 PNOs   :   31
   #pairs with 31 - 35 PNOs   :   37
   #pairs with 36 - 40 PNOs   :   52
   #pairs with 41 - 45 PNOs   :   12
   #pairs with 46 - 50 PNOs   :    0

Generation of (ij|ab)[P] integrals            ... on
Generation of (ia|bc)[P],(ja|bc)[P] integrals ... on
Storage of 3 and 4 external integrals         ... on
Generation of ALL (ka|bc)[P] integrals        ... on
Keep RI integrals in memory                   ... off

Ibatch:  1 (of  1)
Starting 2-4 index PNO integral generation ... done

Timings:
Total PNO integral transformation time     ...          4.737 sec
Size of the 3-external file                ...        48 MB
Size of the 4-external file                ...       223 MB
Size of the IKJL file                      ...         0 MB
Size of the all 3-external file            ...       437 MB
Size of the 1-external file                ...         2 MB

Making pair/pair overlap matrices          ... done (    0.767 sec)
Size of the pair overlap file              ... 148 MB
Redoing the guess amplitudes               ... done (    0.002 sec)

-------------------------
FINAL STARTUP INFORMATION
-------------------------

E(0)                                       ...   -250.190962808
E(L-MP2)                                   ...     -0.881932590
E(L-MP2) including corrections             ...     -0.881932590
Initial E(tot)                             ...   -251.072895397
<T|T>                                      ...      0.272667097
Number of pairs included                   ... 171
Total number of pairs                      ... 171

------------------------------------------------
                  RHF COUPLED CLUSTER ITERATIONS
------------------------------------------------

Number of PNO amplitudes to be optimized   ...       178382
Number of non-PNO amplitudes               ...      2261475
Untruncated number of regular amplitudes   ...      2261475

Iter       E(tot)           E(Corr)          Delta-E          Residual     Time
  0   -251.043884813     -0.852557068      0.029375521      0.019725558    3.71
                           *** Turning on DIIS ***
  1   -251.108384126     -0.917056381     -0.064499312      0.007529312    3.50
  2   -251.139119833     -0.947792088     -0.030735707      0.002520004    3.90
  3   -251.143186845     -0.951859100     -0.004067012      0.000864184    3.39
  4   -251.144071415     -0.952743670     -0.000884570      0.000663429    3.50
  5   -251.144228403     -0.952900658     -0.000156989      0.000283197    3.83
  6   -251.144268842     -0.952941097     -0.000040439      0.000170221    3.51
  7   -251.144277918     -0.952950173     -0.000009076      0.000070693    6.26
  8   -251.144281046     -0.952953301     -0.000003128      0.000023934    3.41
  9   -251.144281447     -0.952953702     -0.000000401      0.000005763    3.57
               --- The Coupled-Cluster iterations have converged ---

----------------------
COUPLED CLUSTER ENERGY
----------------------

E(0)                                       ...   -250.190962808
E(CORR)(strong-pairs)                      ...     -0.952953702
E(CORR)(weak-pairs)                        ...     -0.000364937
E(CORR)(corrected)                         ...     -0.953318639
E(TOT)                                     ...   -251.144281447
Singles Norm <S|S>**1/2                    ...      0.049473672  
T1 diagnostic                              ...      0.008245612  

------------------
LARGEST AMPLITUDES
------------------
  18-> 33  18-> 33       0.041933
  15-> 33  15-> 33       0.041933
  19-> 32  19-> 32       0.041003
  14-> 33  14-> 33       0.039639
  22-> 33  22-> 33       0.039639
  17-> 24  17-> 24       0.039341
  16-> 24  16-> 24       0.039340
  22-> 24  22-> 24       0.039079
  14-> 24  14-> 24       0.039078
  23-> 24  23-> 24       0.038935
  13-> 24  13-> 24       0.038934
  18-> 24  18-> 24       0.038180
  15-> 24  15-> 24       0.038179
  21-> 32  21-> 32       0.037463
  20-> 32  20-> 32       0.037463
  20-> 24  20-> 24       0.037452


-------------------------------------------
DLPNO BASED TRIPLES CORRECTION
-------------------------------------------

Singles multiplier          ...  1.000000
TCutTNO                     ... 1.000e-09
TCutMP2Pairs                ... 1.000e-06
TCutDOStrong                ... 1.000e-02
TCutMKNStrong               ... 1.000e-02
TCutDOWeak                  ... 2.000e-02
TCutMKNWeak                 ... 1.000e-01

Fragment selection                          .... not used
Number of Triples that are to be computed   ...      1122

 . . . . . . . . .
10% done  
20% done  
30% done  
40% done  
50% done  
60% done  
70% done  
80% done  
90% done               (     36.157 sec)
Triples timings:
Total time for T0               ...    38.358 sec
Total time for Iterative (T)    ...     0.000 sec
Total time of overall (T)       ...    38.359 sec

Triples List generation         ...     0.000 sec
TNO generation                  ...     2.197 sec
Pair density generation         ...     0.002 sec
Look up tables                  ...     0.000 sec
Generating 3-index integrals    ...    16.068 sec
  Make 4-ind.int. from 3-ind.int...     7.587 sec
  Projecting amplitudes (D + S) ...     3.231 sec
  Downprojecting integrals      ...     0.002 sec
  Energy contr. (sum over a,b,c)...     2.680 sec
Fitting ET(->0)                 ...     0.000 sec

Everything after 3-index        ...    20.089 sec

Timing details:
 TNO integrals                  ...    22.804 sec
   Reading 3-index integrals    ...     0.028 sec
   Sorting integrals            ...     4.823 sec
       Sorting integrals 1      ...     0.001 sec
       Sorting integrals 2      ...     1.187 sec
       Sorting integrals 3      ...     0.242 sec
       Sorting integrals 4      ...     0.022 sec
       Sorting integrals 5      ...     0.056 sec
       Sorting integrals 6      ...     3.315 sec
   Calculating local VM**-1/2   ...     0.186 sec
   Orthogonal. integrals        ...     0.394 sec
   Multipl. 3-index integrals   ...    17.372 sec
   All concerning IRIab (w/TNO) ...     3.428 sec

 Calculate W0/W1                ...     6.580 sec
 W 3-ext contribution           ...     3.484 sec
 W 3-int contribution           ...     1.124 sec
 Sorting W                      ...     1.848 sec

 V exchange contribution        ...     1.004 sec

 Timings for Triples without generation
     of 3-index integrals       ...    20.086 sec
       0 weak pairs             ...    20.086 sec
       1 weak pair              ...     0.000 sec
       2 weak pairs             ...     0.000 sec
       3 weak pairs             ...     0.000 sec
  Extra time for extrapolation  ...     0.000 sec

Number of Triples   (0, 1, 2, 3 weak pairs; overall):   1122       0       0       0  (  1122)
Number of Atoms     (0, 1, 2, 3 weak pairs; overall):   16.6     0.0     0.0     0.0  (    17)
Number of PAOs      (0, 1, 2, 3 weak pairs; overall):  136.9     0.0     0.0     0.0  (   139)
Number of AuxFcns   (0, 1, 2, 3 weak pairs; overall):  248.8     0.0     0.0     0.0  (   490)
Number of TNOs      (0, 1, 2, 3 weak pairs         ):   69.1     0.0     0.0     0.0
Aver. Number of NTNO, Atoms, PAOs, AuxFcns / Triples:   1122    69.1    16.6   136.9   248.8

Triples Correction (T)                     ...     -0.029032165
Final correlation energy                   ...     -0.982350804
E(CCSD)                                    ...   -251.144281447
E(CCSD(T))                                 ...   -251.173313612


Maximum memory used throughout the entire calculation: 4709.2 MB


------------------------------------------------------------------------------- 
                                     TIMINGS                                   
------------------------------------------------------------------------------- 


Total execution time                   ...      108.522 sec

Localization of occupied MO's          ...        0.424 sec (  0.4%)
Fock Matrix Formation                  ...        1.193 sec (  1.1%)
Global overlap, Fock, MKN matrices     ...        0.132 sec (  0.1%)
Differential overlap integrals         ...        0.108 sec (  0.1%)
Organizing maps                        ...        0.021 sec (  0.0%)
RI 3-index integral generations        ...        1.645 sec (  1.5%)
RI-PNO integral transformation         ...       22.986 sec ( 21.2%)
Initial Guess                          ...        4.757 sec (  4.4%)
DIIS Solver                            ...        0.576 sec (  0.5%)
State Vector Update                    ...        0.015 sec (  0.0%)
Sigma-vector construction              ...       38.427 sec ( 35.4%)
  <D|H|D>(0-ext)                       ...        2.096 sec (  5.5% of sigma)
  <D|H|D>(2-ext Fock)                  ...        0.013 sec (  0.0% of sigma)
  <D|H|D>(2-ext)                       ...        4.282 sec ( 11.1% of sigma)
  <D|H|D>(4-ext)                       ...        3.122 sec (  8.1% of sigma)
  <D|H|D>(4-ext-corr)                  ...       16.093 sec ( 41.9% of sigma)
  CCSD doubles correction              ...        0.180 sec (  0.5% of sigma)
  <S|H|S>                              ...        0.326 sec (  0.8% of sigma)
  <S|H|D>(1-ext)                       ...        0.262 sec (  0.7% of sigma)
  <D|H|S>(1-ext)                       ...        0.011 sec (  0.0% of sigma)
  <S|H|D>(3-ext)                       ...        0.196 sec (  0.5% of sigma)
  Fock-dressing                        ...        8.218 sec ( 21.4% of sigma)
  Singles amplitudes                   ...        0.193 sec (  0.5% of sigma)
  (ik|jl)-dressing                     ...        1.552 sec (  4.0% of sigma)
  (ij|ab),(ia|jb)-dressing             ...        1.707 sec (  4.4% of sigma)
  Pair energies                        ...        0.005 sec (  0.0% of sigma)
Total Time for computing (T)           ...       38.410 sec ( 35.4% of ALL)


-------------------------   --------------------
FINAL SINGLE POINT ENERGY      -251.173313611810
-------------------------   --------------------


                            ***************************************
                            *     ORCA property calculations      *
                            ***************************************

                                    ---------------------
                                    Active property flags
                                    ---------------------
   (+) Dipole Moment


------------------------------------------------------------------------------
                       ORCA ELECTRIC PROPERTIES CALCULATION
------------------------------------------------------------------------------

Dipole Moment Calculation                       ... on
Quadrupole Moment Calculation                   ... off
Polarizability Calculation                      ... off
GBWName                                         ... N_methylpyrrolidine.gbw
Electron density file                           ... N_methylpyrrolidine.scfp.tmp
The origin for moment calculation is the CENTER OF MASS  = (-0.009529,  0.000000 -0.027506)

-------------
DIPOLE MOMENT
-------------
                                X             Y             Z
Electronic contribution:     -0.47575      -0.00003      -1.12196
Nuclear contribution   :      0.45734       0.00002       1.32027
                        -----------------------------------------
Total Dipole Moment    :     -0.01841      -0.00001       0.19831
                        -----------------------------------------
Magnitude (a.u.)       :      0.19916
Magnitude (Debye)      :      0.50624



--------------------
Rotational spectrum 
--------------------
 
Rotational constants in cm-1:     0.222234     0.105120     0.078423 
Rotational constants in MHz :  6662.398710  3151.425339  2351.071294 

 Dipole components along the rotational axes: 
x,y,z [a.u.] :    -0.019768     0.000010     0.198181 
x,y,z [Debye]:    -0.050247     0.000024     0.503736 

 

Timings for individual modules:

Sum of individual times         ...      165.543 sec (=   2.759 min)
GTO integral calculation        ...       52.570 sec (=   0.876 min)  31.8 %
SCF iterations                  ...        4.258 sec (=   0.071 min)   2.6 %
MDCI module                     ...      108.714 sec (=   1.812 min)  65.7 %
                             ****ORCA TERMINATED NORMALLY****
TOTAL RUN TIME: 0 days 0 hours 2 minutes 45 seconds 772 msec
N_methylpyrrolidine.gbw -> /home1/pantazis/klk/VDZ/Energy_barrier/N_methylpyrrolidine.gbw
N_methylpyrrolidine.ges -> /home1/pantazis/klk/VDZ/Energy_barrier/N_methylpyrrolidine.ges
N_methylpyrrolidine.job -> /home1/pantazis/klk/VDZ/Energy_barrier/N_methylpyrrolidine.job
N_methylpyrrolidine.loc -> /home1/pantazis/klk/VDZ/Energy_barrier/N_methylpyrrolidine.loc
N_methylpyrrolidine.nodes -> /home1/pantazis/klk/VDZ/Energy_barrier/N_methylpyrrolidine.nodes
N_methylpyrrolidine.prop -> /home1/pantazis/klk/VDZ/Energy_barrier/N_methylpyrrolidine.prop
N_methylpyrrolidine_property.txt -> /home1/pantazis/klk/VDZ/Energy_barrier/N_methylpyrrolidine_property.txt
N_methylpyrrolidine.xyz -> /home1/pantazis/klk/VDZ/Energy_barrier/N_methylpyrrolidine.xyz
cp: cannot stat N_methylpyrrolidine.asa.inp: No such file or directory
