! Job execution by suborca V 6.07 on ZEUS !
Job started from zeus1, running /scratch/pantazis/N_methylpyrrolidine_ts__tbrm9V/orca/orca copied from /opt/orca on zeussn126 in /scratch/pantazis/N_methylpyrrolidine_ts__tbrm9V
Job execution start: Sat Jun 29 10:52:18 CEST 2019
Shared library path: /scratch/pantazis/N_methylpyrrolidine_ts__tbrm9V/orca:/opt/openmpi_1.10.2/lib:/opt/intel/mkl/lib/intel64:/opt/intel/lib/intel64:
PBS Job ID is: 158762.icqc
izeussn126
izeussn126
izeussn126
izeussn126

                                 *****************
                                 * O   R   C   A *
                                 *****************

           --- An Ab Initio, DFT and Semiempirical electronic structure package ---

                  #######################################################
                  #                        -***-                        #
                  #          Department of theory and spectroscopy      #
                  #               Directorship: Frank Neese             #
                  #        Max Planck Institute fuer Kohlenforschung    #
                  #                Kaiser Wilhelm Platz 1               #
                  #                 D-45470 Muelheim/Ruhr               #
                  #                      Germany                        #
                  #                                                     #
                  #                  All rights reserved                #
                  #                        -***-                        #
                  #######################################################


                         Program Version 4.1.x  -  STABLE  -
                                (SVN: $Rev: 14094$)
                ($Date: 2019-06-14 15:01:15 +0200 (Fri, 14 Jun 2019) $)

                         (BUILD: $Sun Jun 23 06:18:31 CEST 2019$)


 With contributions from (in alphabetic order):
   Daniel Aravena         : Magnetic Properties
   Michael Atanasov       : Ab Initio Ligand Field Theory
   Alexander A. Auer      : GIAO ZORA
   Ute Becker             : Parallelization
   Giovanni Bistoni       : ED, Open-shell LED
   Martin Brehm           : Molecular dynamics
   Dmytro Bykov           : SCF Hessian
   Vijay G. Chilkuri      : MRCI spin determinant printing
   Dipayan Datta          : RHF DLPNO-CCSD density
   Achintya Kumar Dutta   : EOM-CC, STEOM-CC
   Dmitry Ganyushin       : Spin-Orbit,Spin-Spin,Magnetic field MRCI
   Miquel Garcia          : C-PCM Hessian
   Yang Guo               : DLPNO-NEVPT2, CIM, IAO-localization
   Andreas Hansen         : Spin unrestricted coupled pair/coupled cluster methods
   Benjamin Helmich-Paris : CASSCF linear response (MC-RPA)
   Lee Huntington         : MR-EOM, pCC
   Robert Izsak           : Overlap fitted RIJCOSX, COSX-SCS-MP3, EOM
   Christian Kollmar      : KDIIS, OOCD, Brueckner-CCSD(T), CCSD density
   Simone Kossmann        : Meta GGA functionals, TD-DFT gradient, OOMP2, MP2 Hessian
   Martin Krupicka        : AUTO-CI
   Lucas Lang             : DCDCAS
   Dagmar Lenk            : GEPOL surface, SMD
   Dimitrios Liakos       : Extrapolation schemes; parallel MDCI
   Dimitrios Manganas     : ROCIS; embedding schemes
   Dimitrios Pantazis     : SARC Basis sets
   Taras Petrenko         : DFT Hessian,TD-DFT gradient, ASA, ECA, R-Raman, ABS, FL, XAS/XES, NRVS
   Peter Pinski           : DLPNO-MP2, DLPNO-MP2 Gradient
   Christoph Reimann      : Effective Core Potentials
   Marius Retegan         : Local ZFS, SOC
   Christoph Riplinger    : Optimizer, TS searches, QM/MM, DLPNO-CCSD(T), (RO)-DLPNO pert. Triples
   Tobias Risthaus        : Range-separated hybrids, TD-DFT gradient, RPA, STAB
   Michael Roemelt        : Restricted open shell CIS
   Masaaki Saitow         : Open-shell DLPNO
   Barbara Sandhoefer     : DKH picture change effects
   Avijit Sen             : IP-ROCIS
   Kantharuban Sivalingam : CASSCF convergence, NEVPT2, FIC-MRCI
   Bernardo de Souza      : ESD, SOC TD-DFT
   Georgi Stoychev        : AutoAux, RI-MP2 NMR
   Willem Van den Heuvel  : Paramagnetic NMR
   Boris Wezisla          : Elementary symmetry handling
   Frank Wennmohs         : Technical directorship


 We gratefully acknowledge several colleagues who have allowed us to
 interface, adapt or use parts of their codes:
   Stefan Grimme, W. Hujo, H. Kruse,             : VdW corrections, initial TS optimization,
                  C. Bannwarth                     DFT functionals, gCP, sTDA/sTD-DF
   Ed Valeev                                     : LibInt (2-el integral package), F12 methods
   Garnet Chan, S. Sharma, J. Yang, R. Olivares  : DMRG
   Ulf Ekstrom                                   : XCFun DFT Library
   Mihaly Kallay                                 : mrcc  (arbitrary order and MRCC methods)
   Andreas Klamt, Michael Diedenhofen            : otool_cosmo (COSMO solvation model)
   Jiri Pittner, Ondrej Demel                    : Mk-CCSD
   Frank Weinhold                                : gennbo (NPA and NBO analysis)
   Christopher J. Cramer and Donald G. Truhlar   : smd solvation model
   Lars Goerigk                                  : TD-DFT with DH, B97 family of functionals
   V. Asgeirsson, H. Jonsson                     : NEB implementation
   FAccTs GmbH                                   : IRC, NEB, NEB-TS, Multilevel


 Your calculation uses the libint2 library for the computation of 2-el integrals
 For citations please refer to: http://libint.valeyev.net

 This ORCA versions uses:
   CBLAS   interface :  Fast vector & matrix operations
   LAPACKE interface :  Fast linear algebra routines
   SCALAPACK package :  Parallel linear algebra routines




***************************************
The coordinates will be read from file: N_methylpyrrolidine_ts.xyz
***************************************


----- Orbital basis set information -----
Your calculation utilizes the basis: cc-pVDZ 
       H, B-Ne : Obtained from the ccRepo (grant-hill.group.shef.ac.uk/ccrepo) Feb. 2017
                 T. H. Dunning, Jr., J. Chem. Phys. 90, 1007 (1989)
            He : Obtained from the ccRepo (grant-hill.group.shef.ac.uk/ccrepo) Feb. 2017
                 D. E. Woon, T. H. Dunning, Jr., J. Chem. Phys. 100, 2975 (1994)
  Li-Be, Na-Mg : Obtained from the ccRepo (grant-hill.group.shef.ac.uk/ccrepo) Feb. 2017
                 B. P. Prascher, D. E. Woon, K. A. Peterson, T. H. Dunning, Jr., A. K. Wilson, Theor. Chem. Acc. 128, 69 (2011)
         Al-Ar : Obtained from the ccRepo (grant-hill.group.shef.ac.uk/ccrepo) Feb. 2017
                 D. E. Woon, T. H. Dunning, Jr., J. Chem. Phys. 98, 1358 (1993)
            Ca : Obtained from the Peterson Research Group Website (tyr0.chem.wsu.edu/~kipeters) Feb. 2017
                 J. Koput, K. A. Peterson, J. Phys. Chem. 106, 9595 (2002)
         Sc-Zn : Obtained from the ccRepo (grant-hill.group.shef.ac.uk/ccrepo) Feb. 2017
                 N. B. Balabanov, K. A. Peterson, J. Chem. Phys. 123, 064107 (2005)
                 N. B. Balabanov, K. A. Peterson, J. Chem. Phys. 125, 074110 (2006)
         Ga-Kr : Obtained from the ccRepo (grant-hill.group.shef.ac.uk/ccrepo) Feb. 2017
                 A. K. Wilson, D. E. Woon, K. A. Peterson, T. H. Dunning, Jr., J. Chem. Phys. 110, 7667 (1999)

----- AuxC basis set information -----
Your calculation utilizes the auxiliary basis: cc-pVDZ/C 
  H-He, B, Ne, Al-Ar, Ga-Br : Obtained from the EMSL Basis Set Exchange (bse.pnl.gov) Feb. 2017
                              F. Weigend, A. Kohn, C. Hattig, J. Chem. Phys. 116, 3175 (2002)
               Li-Be, Na-Mg : Obtained from the EMSL Basis Set Exchange (bse.pnl.gov) Feb. 2017
                              C. Haettig, Phys. Chem. Chem. Phys. 7, 59 (2005)
                        C-F : Obtained from the EMSL Basis Set Exchange (bse.pnl.gov) Feb. 2017
                              C. Haettig, Phys. Chem. Chem. Phys. 7, 59 (2005)
                              F. Weigend, A. Kohn, C. Hattig, J. Chem. Phys. 116, 3175 (2002)
                         Kr : Obtained from the TURBOMOLE 7.0 basis set library
                              F. Weigend, A. Kohn, C. Hattig, J. Chem. Phys. 116, 3175 (2002)
                              S function revised in Sep. 2009

----- AuxJK basis set information -----
Your calculation utilizes the auxiliary basis: cc-pVTZ/JK 
  H, B-F, Al-Cl, Ga-Br : Obtained from the TURBOMOLE 7.0 basis set library

================================================================================
                                        WARNINGS
                       Please study these warnings very carefully!
================================================================================


WARNING: MDCI localization with Augmented Hessian Foster-Boys
  ===> : Switching off randomization!

WARNING: Post HF methods need fully converged wavefunctions
  ===> : Setting SCFConvForced true
         You can overwrite this default with %scf ConvForced false 


INFO   : the flag for use of LIBINT has been found!

================================================================================
                                       INPUT FILE
================================================================================
NAME = N_methylpyrrolidine_ts.inp
|  1> ! RHF DLPNO-CCSD(T) cc-pVDZ RIJK cc-pVTZ/JK cc-pVDZ/C
|  2> ! KDIIS SOSCF TightSCF TightPNO
|  3> 
|  4> %pal nprocs 4 end
|  5> 
|  6> %maxcore 8000
|  7> 
|  8> %scf maxiter 300
|  9>      shift shift 0.2 erroff 0.1 end
| 10> end
| 11> 
| 12> * xyzfile 0 1 N_methylpyrrolidine_ts.xyz 
| 13> 
| 14> 
| 15>                          ****END OF INPUT****
================================================================================

                       ****************************
                       * Single Point Calculation *
                       ****************************

---------------------------------
CARTESIAN COORDINATES (ANGSTROEM)
---------------------------------
  C     -1.484360    0.733920   -0.211660
  C     -1.476370   -0.740350    0.222840
  C     -0.053910   -1.197630   -0.134490
  C     -0.058440    1.200960    0.119460
  N      0.724090    0.002920   -0.006740
  C      2.157750    0.000850    0.006980
  H     -2.267840   -1.346230   -0.279040
  H     -1.627080   -0.802000    1.327610
  H      0.001560   -1.547040   -1.192150
  H      0.318480   -1.995270    0.550240
  H      0.013100    1.560770    1.172580
  H      0.294810    1.995830   -0.578390
  H      2.514490   -0.105870    1.056230
  H      2.548320   -0.846720   -0.600600
  H      2.553800    0.950390   -0.418770
  H     -2.270430    1.335040    0.304240
  H     -1.655810    0.794130   -1.313510

----------------------------
CARTESIAN COORDINATES (A.U.)
----------------------------
  NO LB      ZA    FRAG     MASS         X           Y           Z
   0 C     6.0000    0    12.011   -2.805034    1.386908   -0.399979
   1 C     6.0000    0    12.011   -2.789935   -1.399059    0.421107
   2 C     6.0000    0    12.011   -0.101875   -2.263193   -0.254149
   3 C     6.0000    0    12.011   -0.110436    2.269485    0.225747
   4 N     7.0000    0    14.007    1.368332    0.005518   -0.012737
   5 C     6.0000    0    12.011    4.077557    0.001606    0.013190
   6 H     1.0000    0     1.008   -4.285597   -2.544006   -0.527309
   7 H     1.0000    0     1.008   -3.074736   -1.515560    2.508819
   8 H     1.0000    0     1.008    0.002948   -2.923482   -2.252837
   9 H     1.0000    0     1.008    0.601840   -3.770514    1.039803
  10 H     1.0000    0     1.008    0.024755    2.949428    2.215855
  11 H     1.0000    0     1.008    0.557110    3.771572   -1.092999
  12 H     1.0000    0     1.008    4.751697   -0.200065    1.995985
  13 H     1.0000    0     1.008    4.815627   -1.600069   -1.134970
  14 H     1.0000    0     1.008    4.825983    1.795977   -0.791361
  15 H     1.0000    0     1.008   -4.290491    2.522860    0.574930
  16 H     1.0000    0     1.008   -3.129027    1.500688   -2.482174

--------------------------------
INTERNAL COORDINATES (ANGSTROEM)
--------------------------------
 C      0   0   0     0.000000000000     0.00000000     0.00000000
 C      1   0   0     1.536986051661     0.00000000     0.00000000
 C      2   1   0     1.536288442611   102.97741876     0.00000000
 C      1   2   3     1.536559358567   103.05025337   324.13977871
 N      3   2   1     1.436288398964   103.41797498    29.38449212
 C      5   3   2     1.433727142416   122.77169610   167.48831325
 H      2   1   3     1.115974403694   112.95078242   237.80946097
 H      2   1   3     1.116705413034   109.38580306   116.71082737
 H      3   2   1     1.115261827823   111.09319663   273.03524632
 H      3   2   1     1.115239460654   112.28723067   149.40927150
 H      4   1   2     1.115187402233   111.16782269   272.48287570
 H      4   1   2     1.115167477063   112.07120570   149.03340108
 H      6   5   3     1.113363439538   109.24196679   270.08118588
 H      6   5   3     1.113585778555   110.27907817    30.10117174
 H      6   5   3     1.113438312885   110.53582355   149.95656095
 H      1   2   3     1.115976751236   112.93242545   201.92352098
 H      1   2   3     1.116733526451   109.35636420    80.88004411

---------------------------
INTERNAL COORDINATES (A.U.)
---------------------------
 C      0   0   0     0.000000000000     0.00000000     0.00000000
 C      1   0   0     2.904482709296     0.00000000     0.00000000
 C      2   1   0     2.903164419243   102.97741876     0.00000000
 C      1   2   3     2.903676376205   103.05025337   324.13977871
 N      3   2   1     2.714191723371   103.41797498    29.38449212
 C      5   3   2     2.709351649936   122.77169610   167.48831325
 H      2   1   3     2.108885995448   112.95078242   237.80946097
 H      2   1   3     2.110267402902   109.38580306   116.71082737
 H      3   2   1     2.107539422203   111.09319663   273.03524632
 H      3   2   1     2.107497154378   112.28723067   149.40927150
 H      4   1   2     2.107398778220   111.16782269   272.48287570
 H      4   1   2     2.107361125106   112.07120570   149.03340108
 H      6   5   3     2.103951988248   109.24196679   270.08118588
 H      6   5   3     2.104372148098   110.27907817    30.10117174
 H      6   5   3     2.104093478368   110.53582355   149.95656095
 H      1   2   3     2.108890431660   112.93242545   201.92352098
 H      1   2   3     2.110320529561   109.35636420    80.88004411

---------------------
BASIS SET INFORMATION
---------------------
There are 3 groups of distinct atoms

 Group   1 Type C   : 17s4p1d contracted to 3s2p1d pattern {881/31/1}
 Group   2 Type N   : 17s4p1d contracted to 3s2p1d pattern {881/31/1}
 Group   3 Type H   : 4s1p contracted to 2s1p pattern {31/1}

Atom   0C    basis set group =>   1
Atom   1C    basis set group =>   1
Atom   2C    basis set group =>   1
Atom   3C    basis set group =>   1
Atom   4N    basis set group =>   2
Atom   5C    basis set group =>   1
Atom   6H    basis set group =>   3
Atom   7H    basis set group =>   3
Atom   8H    basis set group =>   3
Atom   9H    basis set group =>   3
Atom  10H    basis set group =>   3
Atom  11H    basis set group =>   3
Atom  12H    basis set group =>   3
Atom  13H    basis set group =>   3
Atom  14H    basis set group =>   3
Atom  15H    basis set group =>   3
Atom  16H    basis set group =>   3
-------------------------------
AUXILIARY BASIS SET INFORMATION
-------------------------------
There are 3 groups of distinct atoms

 Group   1 Type C   : 7s5p4d2f contracted to 7s5p4d2f pattern {1111111/11111/1111/11}
 Group   2 Type N   : 7s5p4d2f contracted to 7s5p4d2f pattern {1111111/11111/1111/11}
 Group   3 Type H   : 3s2p1d contracted to 3s2p1d pattern {111/11/1}

Atom   0C    basis set group =>   1
Atom   1C    basis set group =>   1
Atom   2C    basis set group =>   1
Atom   3C    basis set group =>   1
Atom   4N    basis set group =>   2
Atom   5C    basis set group =>   1
Atom   6H    basis set group =>   3
Atom   7H    basis set group =>   3
Atom   8H    basis set group =>   3
Atom   9H    basis set group =>   3
Atom  10H    basis set group =>   3
Atom  11H    basis set group =>   3
Atom  12H    basis set group =>   3
Atom  13H    basis set group =>   3
Atom  14H    basis set group =>   3
Atom  15H    basis set group =>   3
Atom  16H    basis set group =>   3
-------------------------------
AUXILIARY BASIS SET INFORMATION
-------------------------------
There are 3 groups of distinct atoms

 Group   1 Type C   : 10s7p5d2f1g contracted to 10s7p5d2f1g pattern {1111111111/1111111/11111/11/1}
 Group   2 Type N   : 10s7p5d2f1g contracted to 10s7p5d2f1g pattern {1111111111/1111111/11111/11/1}
 Group   3 Type H   : 4s3p2d1f contracted to 4s3p2d1f pattern {1111/111/11/1}

Atom   0C    basis set group =>   1
Atom   1C    basis set group =>   1
Atom   2C    basis set group =>   1
Atom   3C    basis set group =>   1
Atom   4N    basis set group =>   2
Atom   5C    basis set group =>   1
Atom   6H    basis set group =>   3
Atom   7H    basis set group =>   3
Atom   8H    basis set group =>   3
Atom   9H    basis set group =>   3
Atom  10H    basis set group =>   3
Atom  11H    basis set group =>   3
Atom  12H    basis set group =>   3
Atom  13H    basis set group =>   3
Atom  14H    basis set group =>   3
Atom  15H    basis set group =>   3
Atom  16H    basis set group =>   3

Checking for AutoStart:
The File: N_methylpyrrolidine_ts.gbw exists
Trying to determine its content:
     ... Fine, the file contains calculation information
     ... Fine, the calculation information was read
     ... Fine, the file contains a basis set
     ... Fine, the basis set was read
     ... Fine, the file contains a geometry
     ... Fine, the geometry was read
     ... Fine, the file contains a set of orbitals
     ... Fine, the orbitals can be read
     => possible old guess file was deleted
     => GBW file was renamed to GES file
     => GES file is set as startup file
     => Guess is set to MORead
     ... now leaving AutoStart



           ************************************************************
           *        Program running with 4 parallel MPI-processes     *
           *              working on a common directory               *
           ************************************************************
------------------------------------------------------------------------------
                           ORCA GTO INTEGRAL CALCULATION
                           -- RI-GTO INTEGRALS CHOSEN --
------------------------------------------------------------------------------

                         BASIS SET STATISTICS AND STARTUP INFO

Gaussian basis set:
 # of primitive gaussian shells          ...  187
 # of primitive gaussian functions       ...  281
 # of contracted shells                  ...   69
 # of contracted basis functions         ...  139
 Highest angular momentum                ...    2
 Maximum contraction depth               ...    8
Auxiliary gaussian basis set:
 # of primitive gaussian shells          ...  260
 # of primitive gaussian functions       ...  804
 # of contracted shells                  ...  260
 # of contracted aux-basis functions     ...  804
 Highest angular momentum                ...    4
 Maximum contraction depth               ...    1
Ratio of auxiliary to basis functions    ...  5.78
Integral package used                  ... LIBINT
 One Electron integrals                  ... done
 Ordering auxiliary basis shells         ... done
 Integral threshhold             Thresh  ...  2.500e-11
 Primitive cut-off               TCut    ...  2.500e-12
 Pre-screening matrix                    ... done
 Shell pair data                         ... 
 Ordering of the shell pairs             ... done (   0.000 sec) 2411 of 2415 pairs
 Determination of significant pairs      ... done (   0.000 sec)
 Creation of shell pair data             ... done (   0.001 sec)
 Storage of shell pair data              ... done (   0.001 sec)
 Shell pair data done in (   0.003 sec)
 Computing two index integrals           ... done
 Cholesky decomposition of the V-matrix  ... done


Timings:
 Total evaluation time                   ...  52.430 sec (  0.874 min)
 One electron matrix time                ...  52.066 sec (  0.868 min) = 99.3%
 Schwartz matrix evaluation time         ...   0.176 sec (  0.003 min) =  0.3%
 Two index repulsion integral time       ...   0.097 sec (  0.002 min) =  0.2%
 Cholesky decomposition of V             ...   0.062 sec (  0.001 min) =  0.1%
 Three index repulsion integral time     ...   0.000 sec (  0.000 min) =  0.0%



           ************************************************************
           *        Program running with 4 parallel MPI-processes     *
           *              working on a common directory               *
           ************************************************************
-------------------------------------------------------------------------------
                                 ORCA SCF
-------------------------------------------------------------------------------

------------
SCF SETTINGS
------------
Hamiltonian:
 Ab initio Hamiltonian  Method          .... Hartree-Fock(GTOs)
 RI-approximation to the Coulomb term is turned on
   Number of auxiliary basis functions  .... 804
   RI-JK (J+K treated both via RI)      .... on


General Settings:
 Integral files         IntName         .... N_methylpyrrolidine_ts
 Hartree-Fock type      HFTyp           .... RHF
 Total Charge           Charge          ....    0
 Multiplicity           Mult            ....    1
 Number of Electrons    NEL             ....   48
 Basis Dimension        Dim             ....  139
 Nuclear Repulsion      ENuc            ....    257.5724437478 Eh

Convergence Acceleration:
 DIIS                   CNVDIIS         .... off
 Newton-Raphson         CNVNR           .... off
 SOSCF                  CNVSOSCF        .... on
   Start iteration      SOSCFMaxIt      ....   150
   Startup grad/error   SOSCFStart      ....  0.003300
 Level Shifting         CNVShift        .... on
   Level shift para.    LevelShift      ....    0.2000
   Turn off err/grad.   ShiftErr        ....    0.1000
 Zerner damping         CNVZerner       .... off
 Static damping         CNVDamp         .... off
 Fernandez-Rico         CNVRico         .... off

SCF Procedure:
 Maximum # iterations   MaxIter         ....   300
 SCF integral mode      SCFMode         .... Direct
   Integral package                     .... LIBINT
 Reset frequency        DirectResetFreq ....    20
 Integral Threshold     Thresh          ....  2.500e-11 Eh
 Primitive CutOff       TCut            ....  2.500e-12 Eh

Convergence Tolerance:
 Convergence Check Mode ConvCheckMode   .... Total+1el-Energy
 Convergence forced     ConvForced      .... 1
 Energy Change          TolE            ....  1.000e-08 Eh
 1-El. energy change                    ....  1.000e-05 Eh
 Orbital Gradient       TolG            ....  1.000e-05
 Orbital Rotation angle TolX            ....  1.000e-05


Diagonalization of the overlap matrix:
Smallest eigenvalue                        ... 3.122e-03
Time for diagonalization                   ...    0.006 sec
Threshold for overlap eigenvalues          ... 1.000e-08
Number of eigenvalues below threshold      ... 0
Time for construction of square roots      ...    0.019 sec
Total time needed                          ...    0.025 sec

---------------------
INITIAL GUESS: MOREAD
---------------------
Guess MOs are being read from file: N_methylpyrrolidine_ts.ges
Input Geometry matches current geometry (good)
Atom 0: N(Shells)= 6 and 10 - projection required
Input basis set needs projection
NBasis(read)= 334
NBasis(calc)= 139
Basis set overlap was calculated
Using GuessMode=FMatrix for the initial guess
C*T matrix was formed
Effective Fockian was calculated
Effective Fockian was diagonalized
Initial density was built
                      ------------------
                      INITIAL GUESS DONE (   0.0 sec)
                      ------------------
--------------
SCF ITERATIONS
--------------
ITER       Energy         Delta-E        Max-DP      RMS-DP      [F,P]   Gradient Norm
                             ****Turning on KDIIS(Cayley)****
  0   -250.1805215287   0.000000000000 0.00136424  0.00005623  0.0055174   0.005307688
  1   -250.1806175802  -0.000096051561 0.00283149  0.00011141  0.0050092   0.004823992
  2   -250.1807820924  -0.000164512211 0.00452466  0.00017915  0.0040156   0.003877545
                      *** Initiating the SOSCF procedure ***
                           *** Shutting down KDIIS ***
                      *** Re-Reading the Fockian *** 
                      *** Removing any level shift *** 
ITER      Energy       Delta-E        Grad      Rot      Max-DP    RMS-DP
  3   -250.18097550  -0.0001934056  0.002410  0.002410  0.006863  0.000269
  4   -250.18108534  -0.0001098387  0.000010  0.000010  0.000031  0.000001
  5   -250.18108534  -0.0000000053  0.000009  0.000007  0.000036  0.000001
                  ***Gradient check signals convergence***
              ***Rediagonalizing the Fockian in SOSCF/NRSCF***

               *****************************************************
               *                     SUCCESS                       *
               *           SCF CONVERGED AFTER   6 CYCLES          *
               *****************************************************


----------------
TOTAL SCF ENERGY
----------------

Total Energy       :         -250.18108534 Eh           -6807.77343 eV

Components:
Nuclear Repulsion  :          257.57244375 Eh            7008.90252 eV
Electronic Energy  :         -507.75352909 Eh          -13816.67595 eV
One Electron Energy:         -848.09378504 Eh          -23077.80514 eV
Two Electron Energy:          340.34025595 Eh            9261.12919 eV

Virial components:
Potential Energy   :         -499.87653457 Eh          -13602.33203 eV
Kinetic Energy     :          249.69544923 Eh            6794.55860 eV
Virial Ratio       :            2.00194491


---------------
SCF CONVERGENCE
---------------

  Last Energy change         ...   -1.1923e-09  Tolerance :   1.0000e-08
  Last MAX-Density change    ...    2.3396e-06  Tolerance :   1.0000e-07
  Last RMS-Density change    ...    1.1362e-07  Tolerance :   5.0000e-09
  Last Orbital Gradient      ...    8.7592e-07  Tolerance :   1.0000e-05
  Last Orbital Rotation      ...    6.6222e-07  Tolerance :   1.0000e-05

             **** THE GBW FILE WAS UPDATED (N_methylpyrrolidine_ts.gbw) ****
             **** DENSITY FILE WAS UPDATED (N_methylpyrrolidine_ts.scfp.tmp) ****
             **** ENERGY FILE WAS UPDATED (N_methylpyrrolidine_ts.en.tmp) ****
----------------
ORBITAL ENERGIES
----------------

  NO   OCC          E(Eh)            E(eV) 
   0   2.0000     -15.517700      -422.2581 
   1   2.0000     -11.252318      -306.1911 
   2   2.0000     -11.250348      -306.1375 
   3   2.0000     -11.250200      -306.1335 
   4   2.0000     -11.228134      -305.5331 
   5   2.0000     -11.227545      -305.5170 
   6   2.0000      -1.230811       -33.4921 
   7   2.0000      -1.046482       -28.4762 
   8   2.0000      -0.973514       -26.4907 
   9   2.0000      -0.907186       -24.6858 
  10   2.0000      -0.787312       -21.4239 
  11   2.0000      -0.758992       -20.6532 
  12   2.0000      -0.663048       -18.0425 
  13   2.0000      -0.650529       -17.7018 
  14   2.0000      -0.592880       -16.1331 
  15   2.0000      -0.571537       -15.5523 
  16   2.0000      -0.568744       -15.4763 
  17   2.0000      -0.516783       -14.0624 
  18   2.0000      -0.510259       -13.8849 
  19   2.0000      -0.499481       -13.5916 
  20   2.0000      -0.469624       -12.7791 
  21   2.0000      -0.469211       -12.7679 
  22   2.0000      -0.457678       -12.4540 
  23   2.0000      -0.306286        -8.3345 
  24   0.0000       0.173073         4.7095 
  25   0.0000       0.203678         5.5424 
  26   0.0000       0.214189         5.8284 
  27   0.0000       0.227115         6.1801 
  28   0.0000       0.247119         6.7245 
  29   0.0000       0.259250         7.0545 
  30   0.0000       0.267184         7.2705 
  31   0.0000       0.274509         7.4698 
  32   0.0000       0.285449         7.7675 
  33   0.0000       0.297075         8.0838 
  34   0.0000       0.312716         8.5094 
  35   0.0000       0.330465         8.9924 
  36   0.0000       0.367383         9.9970 
  37   0.0000       0.382287        10.4026 
  38   0.0000       0.415762        11.3135 
  39   0.0000       0.439059        11.9474 
  40   0.0000       0.479127        13.0377 
  41   0.0000       0.588031        16.0011 
  42   0.0000       0.599585        16.3155 
  43   0.0000       0.633269        17.2321 
  44   0.0000       0.633404        17.2358 
  45   0.0000       0.671801        18.2806 
  46   0.0000       0.695476        18.9249 
  47   0.0000       0.710744        19.3403 
  48   0.0000       0.756877        20.5957 
  49   0.0000       0.775993        21.1158 
  50   0.0000       0.815839        22.2001 
  51   0.0000       0.847608        23.0646 
  52   0.0000       0.850582        23.1455 
  53   0.0000       0.855729        23.2856 
  54   0.0000       0.859268        23.3819 
  55   0.0000       0.874893        23.8071 
  56   0.0000       0.878378        23.9019 
  57   0.0000       0.883008        24.0279 
  58   0.0000       0.891308        24.2537 
  59   0.0000       0.898264        24.4430 
  60   0.0000       0.903271        24.5793 
  61   0.0000       0.913215        24.8498 
  62   0.0000       0.921364        25.0716 
  63   0.0000       0.933907        25.4129 
  64   0.0000       0.953434        25.9443 
  65   0.0000       0.995041        27.0764 
  66   0.0000       1.012247        27.5446 
  67   0.0000       1.082774        29.4638 
  68   0.0000       1.095584        29.8124 
  69   0.0000       1.131770        30.7970 
  70   0.0000       1.171903        31.8891 
  71   0.0000       1.225019        33.3345 
  72   0.0000       1.339239        36.4425 
  73   0.0000       1.388270        37.7767 
  74   0.0000       1.425667        38.7944 
  75   0.0000       1.447209        39.3805 
  76   0.0000       1.501754        40.8648 
  77   0.0000       1.542253        41.9668 
  78   0.0000       1.561047        42.4782 
  79   0.0000       1.609500        43.7967 
  80   0.0000       1.629823        44.3497 
  81   0.0000       1.645937        44.7882 
  82   0.0000       1.671021        45.4708 
  83   0.0000       1.698233        46.2113 
  84   0.0000       1.734117        47.1877 
  85   0.0000       1.745456        47.4963 
  86   0.0000       1.790063        48.7101 
  87   0.0000       1.807442        49.1830 
  88   0.0000       1.861647        50.6580 
  89   0.0000       1.865842        50.7722 
  90   0.0000       1.883102        51.2418 
  91   0.0000       1.884911        51.2910 
  92   0.0000       1.901349        51.7383 
  93   0.0000       1.913378        52.0657 
  94   0.0000       1.926596        52.4253 
  95   0.0000       1.943924        52.8969 
  96   0.0000       1.966782        53.5189 
  97   0.0000       1.982035        53.9339 
  98   0.0000       2.006739        54.6061 
  99   0.0000       2.012938        54.7748 
 100   0.0000       2.019777        54.9609 
 101   0.0000       2.041661        55.5564 
 102   0.0000       2.052987        55.8646 
 103   0.0000       2.070050        56.3289 
 104   0.0000       2.081018        56.6274 
 105   0.0000       2.108661        57.3796 
 106   0.0000       2.130264        57.9674 
 107   0.0000       2.163044        58.8594 
 108   0.0000       2.186005        59.4842 
 109   0.0000       2.209786        60.1313 
 110   0.0000       2.233358        60.7727 
 111   0.0000       2.261432        61.5367 
 112   0.0000       2.303490        62.6812 
 113   0.0000       2.322291        63.1927 
 114   0.0000       2.367881        64.4333 
 115   0.0000       2.382764        64.8383 
 116   0.0000       2.413217        65.6670 
 117   0.0000       2.440191        66.4010 
 118   0.0000       2.457608        66.8749 
 119   0.0000       2.485833        67.6430 
 120   0.0000       2.494888        67.8894 
 121   0.0000       2.565988        69.8241 
 122   0.0000       2.597784        70.6893 
 123   0.0000       2.680017        72.9270 
 124   0.0000       2.711483        73.7832 
 125   0.0000       2.734903        74.4205 
 126   0.0000       2.744165        74.6725 
 127   0.0000       2.772368        75.4400 
 128   0.0000       2.773870        75.4808 
 129   0.0000       2.794529        76.0430 
 130   0.0000       2.842903        77.3593 
 131   0.0000       2.853864        77.6576 
 132   0.0000       2.932111        79.7868 
 133   0.0000       2.956024        80.4375 
 134   0.0000       2.973528        80.9138 
 135   0.0000       3.066827        83.4526 
 136   0.0000       3.092451        84.1499 
 137   0.0000       3.179481        86.5181 
 138   0.0000       3.184341        86.6503 

                    ********************************
                    * MULLIKEN POPULATION ANALYSIS *
                    ********************************

-----------------------
MULLIKEN ATOMIC CHARGES
-----------------------
   0 C :   -0.091949
   1 C :   -0.091428
   2 C :    0.188631
   3 C :    0.189962
   4 N :   -0.598009
   5 C :    0.131215
   6 H :    0.033895
   7 H :    0.037277
   8 H :    0.011042
   9 H :    0.019895
  10 H :    0.008579
  11 H :    0.020840
  12 H :    0.013760
  13 H :    0.027644
  14 H :    0.027202
  15 H :    0.034286
  16 H :    0.037157
Sum of atomic charges:   -0.0000000

--------------------------------
MULLIKEN REDUCED ORBITAL CHARGES
--------------------------------
  0 C s       :     3.103974  s :     3.103974
      pz      :     0.992700  p :     2.908530
      px      :     0.968438
      py      :     0.947392
      dz2     :     0.020354  d :     0.079445
      dxz     :     0.010749
      dyz     :     0.011263
      dx2y2   :     0.019477
      dxy     :     0.017601
  1 C s       :     3.104789  s :     3.104789
      pz      :     0.992799  p :     2.907105
      px      :     0.967130
      py      :     0.947176
      dz2     :     0.020572  d :     0.079535
      dxz     :     0.010622
      dyz     :     0.011206
      dx2y2   :     0.019469
      dxy     :     0.017665
  2 C s       :     2.996683  s :     2.996683
      pz      :     0.958826  p :     2.701297
      px      :     0.894816
      py      :     0.847656
      dz2     :     0.021094  d :     0.113389
      dxz     :     0.013428
      dyz     :     0.030710
      dx2y2   :     0.019478
      dxy     :     0.028679
  3 C s       :     2.995459  s :     2.995459
      pz      :     0.958482  p :     2.701246
      px      :     0.894739
      py      :     0.848024
      dz2     :     0.020925  d :     0.113334
      dxz     :     0.013196
      dyz     :     0.031110
      dx2y2   :     0.019445
      dxy     :     0.028658
  4 N s       :     3.479039  s :     3.479039
      pz      :     1.826590  p :     4.075964
      px      :     1.122237
      py      :     1.127137
      dz2     :     0.003313  d :     0.043006
      dxz     :     0.005061
      dyz     :     0.004820
      dx2y2   :     0.014172
      dxy     :     0.015641
  5 C s       :     3.010659  s :     3.010659
      pz      :     0.978145  p :     2.768202
      px      :     0.796919
      py      :     0.993138
      dz2     :     0.015123  d :     0.089923
      dxz     :     0.028876
      dyz     :     0.009078
      dx2y2   :     0.024493
      dxy     :     0.012353
  6 H s       :     0.937328  s :     0.937328
      pz      :     0.007797  p :     0.028778
      px      :     0.012278
      py      :     0.008703
  7 H s       :     0.934557  s :     0.934557
      pz      :     0.020246  p :     0.028166
      px      :     0.004156
      py      :     0.003764
  8 H s       :     0.962312  s :     0.962312
      pz      :     0.019170  p :     0.026646
      px      :     0.003143
      py      :     0.004333
  9 H s       :     0.952366  s :     0.952366
      pz      :     0.010786  p :     0.027739
      px      :     0.005230
      py      :     0.011723
 10 H s       :     0.964769  s :     0.964769
      pz      :     0.019039  p :     0.026652
      px      :     0.003184
      py      :     0.004429
 11 H s       :     0.951489  s :     0.951489
      pz      :     0.011033  p :     0.027671
      px      :     0.004999
      py      :     0.011639
 12 H s       :     0.958354  s :     0.958354
      pz      :     0.019138  p :     0.027886
      px      :     0.003870
      py      :     0.004878
 13 H s       :     0.943547  s :     0.943547
      pz      :     0.009905  p :     0.028810
      px      :     0.004833
      py      :     0.014072
 14 H s       :     0.943969  s :     0.943969
      pz      :     0.007522  p :     0.028829
      px      :     0.004893
      py      :     0.016414
 15 H s       :     0.936935  s :     0.936935
      pz      :     0.007994  p :     0.028778
      px      :     0.012159
      py      :     0.008626
 16 H s       :     0.934676  s :     0.934676
      pz      :     0.020161  p :     0.028167
      px      :     0.004244
      py      :     0.003762


                     *******************************
                     * LOEWDIN POPULATION ANALYSIS *
                     *******************************

----------------------
LOEWDIN ATOMIC CHARGES
----------------------
   0 C :   -0.036327
   1 C :   -0.036364
   2 C :   -0.007835
   3 C :   -0.007559
   4 N :   -0.040861
   5 C :   -0.021638
   6 H :    0.021549
   7 H :    0.022329
   8 H :    0.001240
   9 H :    0.009663
  10 H :   -0.000329
  11 H :    0.009763
  12 H :    0.004585
  13 H :    0.019081
  14 H :    0.018795
  15 H :    0.021725
  16 H :    0.022183

-------------------------------
LOEWDIN REDUCED ORBITAL CHARGES
-------------------------------
  0 C s       :     2.806427  s :     2.806427
      pz      :     1.030016  p :     3.031811
      px      :     1.002240
      py      :     0.999554
      dz2     :     0.051545  d :     0.198089
      dxz     :     0.026880
      dyz     :     0.026224
      dx2y2   :     0.047652
      dxy     :     0.045788
  1 C s       :     2.806428  s :     2.806428
      pz      :     1.029967  p :     3.031611
      px      :     1.002138
      py      :     0.999507
      dz2     :     0.052300  d :     0.198324
      dxz     :     0.026256
      dyz     :     0.026050
      dx2y2   :     0.047681
      dxy     :     0.046038
  2 C s       :     2.797317  s :     2.797317
      pz      :     1.028957  p :     2.929943
      px      :     0.964490
      py      :     0.936496
      dz2     :     0.050560  d :     0.280575
      dxz     :     0.030827
      dyz     :     0.083112
      dx2y2   :     0.048960
      dxy     :     0.067116
  3 C s       :     2.797291  s :     2.797291
      pz      :     1.029339  p :     2.929694
      px      :     0.963989
      py      :     0.936366
      dz2     :     0.050130  d :     0.280574
      dxz     :     0.030426
      dyz     :     0.084183
      dx2y2   :     0.048937
      dxy     :     0.066898
  4 N s       :     3.002001  s :     3.002001
      pz      :     1.701576  p :     3.938522
      px      :     1.111685
      py      :     1.125261
      dz2     :     0.005790  d :     0.100338
      dxz     :     0.010961
      dyz     :     0.009992
      dx2y2   :     0.034594
      dxy     :     0.039000
  5 C s       :     2.804542  s :     2.804542
      pz      :     1.043092  p :     2.983615
      px      :     0.892083
      py      :     1.048440
      dz2     :     0.038449  d :     0.233480
      dxz     :     0.075968
      dyz     :     0.025124
      dx2y2   :     0.056961
      dxy     :     0.036979
  6 H s       :     0.903811  s :     0.903811
      pz      :     0.020541  p :     0.074641
      px      :     0.030115
      py      :     0.023985
  7 H s       :     0.902796  s :     0.902796
      pz      :     0.044997  p :     0.074876
      px      :     0.014903
      py      :     0.014976
  8 H s       :     0.925162  s :     0.925162
      pz      :     0.044151  p :     0.073599
      px      :     0.013807
      py      :     0.015640
  9 H s       :     0.917346  s :     0.917346
      pz      :     0.027103  p :     0.072991
      px      :     0.016980
      py      :     0.028908
 10 H s       :     0.926596  s :     0.926596
      pz      :     0.043888  p :     0.073733
      px      :     0.014011
      py      :     0.015835
 11 H s       :     0.917329  s :     0.917329
      pz      :     0.027584  p :     0.072908
      px      :     0.016500
      py      :     0.028824
 12 H s       :     0.921979  s :     0.921979
      pz      :     0.044066  p :     0.073436
      px      :     0.014960
      py      :     0.014410
 13 H s       :     0.908585  s :     0.908585
      pz      :     0.024432  p :     0.072333
      px      :     0.014995
      py      :     0.032907
 14 H s       :     0.908852  s :     0.908852
      pz      :     0.019256  p :     0.072353
      px      :     0.015073
      py      :     0.038024
 15 H s       :     0.903608  s :     0.903608
      pz      :     0.020929  p :     0.074667
      px      :     0.029883
      py      :     0.023854
 16 H s       :     0.902938  s :     0.902938
      pz      :     0.044823  p :     0.074879
      px      :     0.015063
      py      :     0.014994


                      *****************************
                      * MAYER POPULATION ANALYSIS *
                      *****************************

  NA   - Mulliken gross atomic population
  ZA   - Total nuclear charge
  QA   - Mulliken gross atomic charge
  VA   - Mayer's total valence
  BVA  - Mayer's bonded valence
  FA   - Mayer's free valence

  ATOM       NA         ZA         QA         VA         BVA        FA
  0 C      6.0919     6.0000    -0.0919     4.0184     4.0184    -0.0000
  1 C      6.0914     6.0000    -0.0914     4.0183     4.0183     0.0000
  2 C      5.8114     6.0000     0.1886     3.9232     3.9232    -0.0000
  3 C      5.8100     6.0000     0.1900     3.9240     3.9240    -0.0000
  4 N      7.5980     7.0000    -0.5980     3.0083     3.0083     0.0000
  5 C      5.8688     6.0000     0.1312     3.9475     3.9475    -0.0000
  6 H      0.9661     1.0000     0.0339     0.9735     0.9735     0.0000
  7 H      0.9627     1.0000     0.0373     0.9640     0.9640    -0.0000
  8 H      0.9890     1.0000     0.0110     0.9540     0.9540    -0.0000
  9 H      0.9801     1.0000     0.0199     0.9626     0.9626    -0.0000
 10 H      0.9914     1.0000     0.0086     0.9532     0.9532    -0.0000
 11 H      0.9792     1.0000     0.0208     0.9635     0.9635     0.0000
 12 H      0.9862     1.0000     0.0138     0.9645     0.9645    -0.0000
 13 H      0.9724     1.0000     0.0276     0.9786     0.9786    -0.0000
 14 H      0.9728     1.0000     0.0272     0.9803     0.9803    -0.0000
 15 H      0.9657     1.0000     0.0343     0.9735     0.9735    -0.0000
 16 H      0.9628     1.0000     0.0372     0.9638     0.9638     0.0000

  Mayer bond orders larger than 0.1
B(  0-C ,  1-C ) :   1.0457 B(  0-C ,  3-C ) :   1.0405 B(  0-C , 15-H ) :   0.9770 
B(  0-C , 16-H ) :   0.9661 B(  1-C ,  2-C ) :   1.0398 B(  1-C ,  6-H ) :   0.9771 
B(  1-C ,  7-H ) :   0.9662 B(  2-C ,  4-N ) :   0.9884 B(  2-C ,  8-H ) :   0.9593 
B(  2-C ,  9-H ) :   0.9684 B(  3-C ,  4-N ) :   0.9918 B(  3-C , 10-H ) :   0.9595 
B(  3-C , 11-H ) :   0.9661 B(  4-N ,  5-C ) :   1.0123 B(  5-C , 12-H ) :   0.9767 
B(  5-C , 13-H ) :   0.9830 B(  5-C , 14-H ) :   0.9827 

-------
TIMINGS
-------

Total SCF time: 0 days 0 hours 0 min 4 sec 

Total time                  ....       4.137 sec
Sum of individual times     ....       3.954 sec  ( 95.6%)

Fock matrix formation       ....       3.888 sec  ( 94.0%)
Diagonalization             ....       0.010 sec  (  0.2%)
Density matrix formation    ....       0.001 sec  (  0.0%)
Population analysis         ....       0.009 sec  (  0.2%)
Initial guess               ....       0.040 sec  (  1.0%)
Orbital Transformation      ....       0.000 sec  (  0.0%)
Orbital Orthonormalization  ....       0.000 sec  (  0.0%)
DIIS solution               ....       0.000 sec  (  0.0%)
SOSCF solution              ....       0.006 sec  (  0.1%)


           ************************************************************
           *        Program running with 4 parallel MPI-processes     *
           *              working on a common directory               *
           ************************************************************


------------------------------------------------------------------------------- 
                              ORCA-MATRIX DRIVEN CI                            
------------------------------------------------------------------------------- 


Wavefunction type
-----------------
Correlation treatment                      ...      CCSD     
Single excitations                         ... ON
Orbital optimization                       ... OFF
Calculation of Z vector                    ... OFF
Calculation of Brueckner orbitals          ... OFF
Perturbative triple excitations            ... ON
Calculation of F12 correction              ... OFF
Frozen core treatment                      ... chemical core (12 el)
Reference Wavefunction                     ... RHF
  Internal Orbitals:     6 ...   23 ( 18 MO's/ 36 electrons)
  Virtual  Orbitals:    24 ...  138 (115 MO's              )
Number of AO's                             ...    139
Number of electrons                        ...     48
Number of correlated electrons             ...     36

Algorithmic settings
--------------------
Integral transformation                    ... All integrals via the RI transformation
K(C) Formation                             ... RI-DLPNO
   PNO-Integral Storage                    ... ON DISK
   PNO occupation number cut-off           ... 1.000e-07
   Singles PNO occupation number cut-off   ... 3.000e-09
   PNO Mulliken prescreening cut-off       ... 1.000e-03
   Domain cut-off (Mulliken population)    ... 1.000e-03
   PNO Normalization                       ...    1
Maximum number of iterations               ...        50
Convergence tolerance (max. residuum)      ... 1.000e-05
Level shift for amplitude update           ... 2.000e-01
Maximum number of DIIS vectors             ...         7
DIIS turned on at iteration                ...         0
Damping before turning on DIIS             ...     0.500
Damping after turning on DIIS              ...     0.000
Pair specific amplitude update             ... OFF
Natural orbital iterations                 ... OFF
Perturbative natural orbital generation    ... OFF
Printlevel                                 ... 2

Singles Fock matrix elements calculated using PNOs.

Memory handling:
----------------
Maximum memory for working arrays          ...   8000 MB
Data storage in matrix containers          ... UNCOMPRESSED
Data type for integral storage             ... DOUBLE
In-Core Storage of quantities:
   Amplitudes+Sigma Vector      ... NO
   J+K operators                ... NO
   DIIS vectors                 ... NO
   3-external integrals         ... NO
   4-external integrals         ... NO

Localization treatment:
-----------------------
Localization option                        ...    6
Localization threshhold                    ... -1.0e+00
Using relative localization threshhold     ... 1.0e-08
Neglect threshold for strong pairs         ... 1.000e-05 Eh
Prescreening threshold for very weak pairs ... 1.000e-07 Eh

Initializing the integral package          ... done
Localizing the valence orbitals
------------------------------------------------------------------------------
                           ORCA ORBITAL LOCALIZATION
------------------------------------------------------------------------------

Input orbitals are from                  ... N_methylpyrrolidine_ts.proc0.gbw
Output orbitals are to                   ... N_methylpyrrolidine_ts.proc0.loc
Max. number of iterations                ... 128
Localizations seeded randomly            ... off
Convergence tolerance                    ... 1.000e-06
Using relative localization threshhold   ... 1.000e-08
Treshold for strong local MOs            ... 9.500e-01
Treshold for bond MOs                    ... 8.500e-01
Operator                                 ... 0
Orbital range for localization           ... 6 to 23
Localization criterion                   ... FOSTER-BOYS (AUGMENTED HESSIAN)
Doing the dipole integrals     ... o.k.
Initial value of the localization sum :   197.818358
ITERATION   0 : L=  209.8410824130 DL=  1.20e+01 (AVERGE_DL)=    0.2803210660 
ITERATION   1 : L=  210.3718588104 DL=  5.31e-01 (AVERGE_DL)=    0.0588992935 
ITERATION   2 : L=  210.3860994408 DL=  1.42e-02 (AVERGE_DL)=    0.0096475912 
ITERATION   3 : L=  210.3865016071 DL=  4.02e-04 (AVERGE_DL)=    0.0016212766 
ITERATION   4 : L=  210.3866073223 DL=  1.06e-04 (AVERGE_DL)=    0.0008312336 
ITERATION   5 : L=  210.3866367480 DL=  2.94e-05 (AVERGE_DL)=    0.0004385484 
ITERATION   6 : L=  210.3866453065 DL=  8.56e-06 (AVERGE_DL)=    0.0002365123 
ITERATION   7 : L=  210.3866478360 DL=  2.53e-06 (AVERGE_DL)=    0.0001285778 
ITERATION   8 : L=  210.3866485897 DL=  7.54e-07 (AVERGE_DL)=    0.0000701889 
LOCALIZATION SUM CONVERGED

------------------------------------------------------
AUGMENTED HESSIAN OPTIMIZATION OF FOSTER-BOYS ORBITALS
------------------------------------------------------

Spin operator:           0
Orbital window:          6 to 23
Number of iterations:    128
Gradient tolerance:      1.000e-06
Number of pairs:         153
Davidson threshold:      2000
Diagonalization method:  LAPACK
Iter:    0   L: 210.3866485897   Grad. norm: 1.108472e-03
   *** Likely close to a maximum now. ***
       Augmented Hessian eigenvalues:  6.49e-07 -7.58e-01 -3.70e+00 -3.98e+00 ... 
Iter:    1   L: 210.3866489146   Grad. norm: 1.554666e-06
Iter:    2   L: 210.3866489146   Grad. norm: 4.077541e-12
LOCALIZATION HAS CONVERGED.

Eigenvalues of the Hessian:
  0 -7.553e-01
  1 -3.705e+00
  2 -3.977e+00
  3 -1.395e+01
  4 -1.750e+01
  5 -1.789e+01
  6 -1.833e+01
  7 -1.834e+01
  8 -1.843e+01
  9 -1.872e+01
    ...


------------------------------------------------------------------------------- 
                    LOCALIZED MOLECULAR ORBITAL COMPOSITIONS                   
------------------------------------------------------------------------------- 

The Mulliken populations for each LMO on each atom are computed
The LMO`s will be ordered according to atom index and type
  (A) Strongly localized MO`s have populations of >=0.950 on one atom
  (B) Two center bond orbitals have populations of >=0.850 on two atoms
  (C) Other MO`s are considered to be `delocalized`

FOUND  -   1 strongly local MO`s
       -  17 two center bond MO`s
       -   0 significantly delocalized MO`s

Rather strongly localized orbitals:
MO   6:   4N  -   0.953095
Bond-like localized orbitals:
MO  23:  16H  -   0.502602  and   0C  -   0.509740
MO  22:  15H  -   0.500238  and   0C  -   0.512226
MO  21:  14H  -   0.501434  and   5C  -   0.514225
MO  20:  13H  -   0.501834  and   5C  -   0.514025
MO  19:  12H  -   0.514371  and   5C  -   0.508165
MO  18:  11H  -   0.510192  and   3C  -   0.505156
MO  17:  10H  -   0.520618  and   3C  -   0.499089
MO  16:   9H  -   0.510917  and   2C  -   0.505811
MO  15:   8H  -   0.519098  and   2C  -   0.499562
MO  14:   7H  -   0.502476  and   1C  -   0.509940
MO  13:   6H  -   0.500428  and   1C  -   0.512137
MO  12:   5C  -   0.401409  and   4N  -   0.630421
MO  11:   4N  -   0.634622  and   3C  -   0.400133
MO  10:   4N  -   0.634439  and   2C  -   0.399644
MO   9:   3C  -   0.525082  and   0C  -   0.518677
MO   8:   2C  -   0.525272  and   1C  -   0.518648
MO   7:   1C  -   0.524933  and   0C  -   0.525447
Localized MO's were stored in: N_methylpyrrolidine_ts.proc0.loc

Localizing the core orbitals
------------------------------------------------------------------------------
                           ORCA ORBITAL LOCALIZATION
------------------------------------------------------------------------------

Input orbitals are from                  ... N_methylpyrrolidine_ts.proc0.loc
Output orbitals are to                   ... N_methylpyrrolidine_ts.proc0.loc
Max. number of iterations                ... 128
Localizations seeded randomly            ... off
Convergence tolerance                    ... 1.000e-06
Using relative localization threshhold   ... 1.000e-08
Treshold for strong local MOs            ... 9.500e-01
Treshold for bond MOs                    ... 8.500e-01
Operator                                 ... 0
Orbital range for localization           ... 0 to 5
Localization criterion                   ... FOSTER-BOYS (AUGMENTED HESSIAN)
Doing the dipole integrals     ... o.k.
Initial value of the localization sum :    48.778699
ITERATION   0 : L=   48.7787039967 DL=  5.14e-06 (AVERGE_DL)=    0.0005855160 
ITERATION   1 : L=   48.7787039967 DL=  0.00e+00 (AVERGE_DL)=    0.0000000000 
LOCALIZATION SUM CONVERGED

------------------------------------------------------
AUGMENTED HESSIAN OPTIMIZATION OF FOSTER-BOYS ORBITALS
------------------------------------------------------

Spin operator:           0
Orbital window:          0 to 5
Number of iterations:    128
Gradient tolerance:      1.000e-06
Number of pairs:         15
Davidson threshold:      2000
Diagonalization method:  LAPACK
Iter:    0   L: 48.7787039967   Grad. norm: 2.268120e-06
   *** Likely close to a maximum now. ***
       Augmented Hessian eigenvalues:  6.44e-14 -2.94e+01 -2.95e+01 -2.95e+01 ... 
Iter:    1   L: 48.7787039967   Grad. norm: 9.300944e-20
LOCALIZATION HAS CONVERGED.

Eigenvalues of the Hessian:
  0 -2.936e+01
  1 -2.947e+01
  2 -2.947e+01
  3 -3.371e+01
  4 -3.373e+01
  5 -3.374e+01
  6 -7.781e+01
  7 -7.790e+01
  8 -8.261e+01
  9 -8.270e+01
    ...


------------------------------------------------------------------------------- 
                    LOCALIZED MOLECULAR ORBITAL COMPOSITIONS                   
------------------------------------------------------------------------------- 

The Mulliken populations for each LMO on each atom are computed
The LMO`s will be ordered according to atom index and type
  (A) Strongly localized MO`s have populations of >=0.950 on one atom
  (B) Two center bond orbitals have populations of >=0.850 on two atoms
  (C) Other MO`s are considered to be `delocalized`

FOUND  -   6 strongly local MO`s
       -   0 two center bond MO`s
       -   0 significantly delocalized MO`s

Rather strongly localized orbitals:
MO   5:   5C  -   0.999867
MO   4:   4N  -   0.999368
MO   3:   3C  -   0.999621
MO   2:   2C  -   0.999609
MO   1:   1C  -   0.999214
MO   0:   0C  -   0.999204
Localized MO's were stored in: N_methylpyrrolidine_ts.proc0.loc

Warning: internal orbitals are localized - no re-canonicalization of internal orbitals

--------------------------
CLOSED-SHELL FOCK OPERATOR
--------------------------

RI-JK section for the Fock operator:
  RHF full Fock operator         ... done
  RHF frozen core Fock operator  ... done
Time needed for Fock operator              ...            1.199 sec
Reference energy                           ...   -250.181085343

--------------
DLPNO SETTINGS (2015 fully linear scaling implementation)
--------------

TCutMKN:           1.000e-03
TCutPAO:           1.000e-03
TCutPNO:           1.000e-07
TCutPNOSingles:    3.000e-09
TCutEN:            9.700e-01
TCutPAOExt:        1.000e-01
TCutPairs:         1.000e-05
TCutPre:           1.000e-07
TCutOSV:           1.000e-06
TCutDOij:          1.000e-05
TCutDO:            5.000e-03
TCutC:             1.000e-04
TCutCPAO:          1.000e-03
TCutCMO:           1.000e-03
TScaleDOMP2PreScr: 2.000e+00
TScaleMKNMP2PreScr:1.000e+01
TScalePNOMP2PreScr:1.000e+00
PAO overlap thresh 1.000e-08
Using PNOs for Singles Fock computation
Use new domains
Use fully linear algorithm
TCutTNO:           1.000e-09
TCutMP2Pairs:      1.000e-06
TCutDOStrong:      2.000e-03
TCutMKNStrong:     1.000e-02
TCutMKNWeak:       1.000e-01
TCutDOWeak:        4.000e-03
NTCutTNO:          1

--------------------------
Calculating differential overlap integrals ... ok
--------------------------
ELECTRON PAIR PRESCREENING
--------------------------

Dipole-based pair screening          .... used

   TCutDOij = 1.000000e-05
   TCutPre  = 1.000000e-07
   .... Finished loop over pairs
Total time spent in the prescreening                  ...     0.000 sec
sum of pair energies estimated for screened out pairs ...       0.000000000000 Eh
Thresholds for map construction and integral transformation for crude MP2:
   TCutMKN                    ...     1.0e-02
   TCutDO                     ...     1.0e-02
   TCutPairs                  ...     1.0e-05
   TCutPNO_CrudeMP2           ...     1.0e-07
   TCutPNOSingles_CrudeMP2    ...     3.0e-09
--------------------------------
LOCAL RI TRANSFORMATION (IAVPAO)
--------------------------------

Orbital window:       6 to 23
Number of PAOs:     139
Basis functions:    139 (69 shells)
Aux. functions:     490 (174 shells)

Processing maps (0.0 sec)
Average map sizes:
   Aux shells -> MOs              18.0
   Aux shells -> PAOs            139.0
   MOs        -> AO shells        68.0
   PAOs       -> AO shells        69.0

Calculating integrals (0.4 sec, 9.359 MB)
Sorting integrals (0.0 sec, 9.354 MB)
Total time for the integral transformation: 0.4 sec
--------------------------------
INITIAL GUESS AND PNO GENERATION
--------------------------------

PNO truncation parameters                   .... 
    PAOOverlapThresh   =        1.000e-08

    TCutPairs          =        1.000e-05
    TCutPNO            =        1.000e-07
    TCutPNOSingles     =        3.000e-09
    TCutMP2Pairs       =        1.000e-06
    TCutMKN            =        1.000e-02
    TCutDO             =        1.000e-02

Pair selection                          .... not used
Type of local MP2 treatment                 .... semi-local MP2
Strategy for PNO selection                  .... occupation number selection
Pair density normalization                  .... MP2 norm
Spin component scaling                      .... not used

   .... Finished loop over pairs
Making pair pair interaction lists          ... done

                       ===========================
                        171 OF  171 PAIRS ARE KEPT CCSD PAIRS
                          0 OF  171 PAIRS ARE KEPT MP2 PAIRS FOR (T)
                          0 OF  171 PAIRS ARE SKIPPED
                       ===========================

Total time spent in the initial guess                 ...     0.441 sec
SL-MP2 correlation energy (all non-screened pairs)    ...      -0.851432728599 Eh

Initial PNO correlation energy                        ...      -0.851028877353 Eh
sum of pair energies prescreened and skipped MP2 pairs...       0.000000000000 Eh
sum of pair energies of crude MP2 skipped pairs only  ...       0.000000000000 Eh
sum of MP2 pair energies for pairs that were not kept ...       0.000000000000 Eh
sum of PNO error estimates for the kept pairs         ...      -0.000403851247 Eh
                                                          --------------------
sum of all corrections                                         -0.000403851247
Initial total correlation energy                               -0.851432728599
Thresholds for map construction and integral transformation for fine MP2 and CCSD(T) calculation:
   TCutMKN   ...     1.0e-03
   TCutDO    ...     5.0e-03
   TCutPairs ...     1.0e-05
   TCutCMO   ...     1.0e-03
   TCutCPAO  ...     1.0e-03

Thresholds for map construction and integral transformation for strong Triples:
   TCutMKN   ...     1.0e-02
   TCutDO    ...     1.0e-02
   TCutCMO   ...     1.0e-03
   TCutCPAO  ...     1.0e-03

Thresholds for map construction and integral transformation for weak Triples:
   TCutMKN   ...     1.0e-01
   TCutDO    ...     2.0e-02
   TCutCMO   ...     1.0e-03
   TCutCPAO  ...     1.0e-03

--------------------------------
LOCAL RI TRANSFORMATION (IAVPAO)
--------------------------------

Orbital window:       6 to 23
Number of PAOs:     139
Basis functions:    139 (69 shells)
Aux. functions:     490 (174 shells)

Processing maps (0.0 sec)
Average map sizes:
   Aux shells -> MOs              18.0
   Aux shells -> PAOs            139.0
   MOs        -> AO shells        68.0
   PAOs       -> AO shells        69.0

Calculating integrals (0.4 sec, 9.359 MB)
Sorting integrals (0.0 sec, 9.354 MB)
Total time for the integral transformation: 0.4 sec
--------------------------------
INITIAL GUESS AND PNO GENERATION
--------------------------------

PNO truncation parameters                   .... 
    ScaleTCutPNO       =        1.000e-02
    PAOOverlapThresh   =        1.000e-08

    TCutPairs          =        1.000e-05
    TCutPNO            =        1.000e-07
    TCutPNOSingles     =        3.000e-09
    TCutMP2Pairs       =        1.000e-06
    TCutMKN            =        1.000e-03
    TCutDO             =        5.000e-03

Pair selection                          .... not used
Type of local MP2 treatment                 .... full local PMP2
Strategy for PNO selection                  .... occupation number selection
Pair density normalization                  .... MP2 norm
Spin component scaling                      .... not used

PASS-1: Formation of initial guess LMP2 amplitudes
Initial amplitudes guess done. Entering LMP2 iteration loop:
   Max. no of iterations          ...  50
   Energy convergence tolerance   ...    1.0e-07
   Residual convergence tolerance ...    5.0e-07
   Fock matrix cutoff             ...    1.0e-05 Eh
   DIIS convergence acceleration parameters:
        Max # vectors in DIIS     ... 7
        Start iteration of DIIS   ... 0
        Levelshift                ... 2.000e-01
        Damping factor 1          ... 5.000e-01
        Damping factor 2          ... 1.000e+00
   L-MP2 PNO cut-off              ...   1.0e-09
   L-MP2 PNO cut-off (core)       ...   1.0e-11
                           *** Turning on DIIS ***
LMP2-Iter=   0:  ELMP2= -0.868958251958  DE=   1.7e-02 RMAX=   3.9e-03
LMP2-Iter=   1:  ELMP2= -0.877609331193  DE=   8.7e-03 RMAX=   1.5e-03
LMP2-Iter=   2:  ELMP2= -0.878850621770  DE=   1.2e-03 RMAX=   2.0e-04
LMP2-Iter=   3:  ELMP2= -0.878935056194  DE=   8.4e-05 RMAX=   6.5e-05
LMP2-Iter=   4:  ELMP2= -0.878936226263  DE=   1.2e-06 RMAX=   1.3e-05
LMP2-Iter=   5:  ELMP2= -0.878935444874  DE=   7.8e-07 RMAX=   3.1e-06
LMP2-Iter=   6:  ELMP2= -0.878935419493  DE=   2.5e-08 RMAX=   6.4e-07
LMP2-Iter=   7:  ELMP2= -0.878935426185  DE=   6.7e-09 RMAX=   1.2e-07
LMP2-Iter=   8:  ELMP2= -0.878935427380  DE=   1.2e-09 RMAX=   1.5e-08 => CONVERGED
PASS-2: Formation of Pair natural orbitals
   .... Finished loop over pairs

 PNO Occupation Number Statistics: 
  | Av. % of trace(Dij) retained        ...  99.691821632256
  | sigma^2 in % of trace(Dij) retained ...   2.55e-01
  | Av. % of trace(Di) retained         ...  99.999863926069
  | sigma^2 in % of trace(Di) retained  ...   2.94e-09
 Distributions of % trace(Dij) recovered:
  |       >= 99.9  ...    81 ( 47.4 % of all pairs)
  |   [90.0, 99.0) ...    15 (  8.8 % of all pairs)
  |   [99.0, 99.9) ...    75 ( 43.9 % of all pairs)
 Distributions of % trace(Di) recovered :
  |       >= 99.9  ...    18 (100.0 % of all I-pairs )

Making pair pair interaction lists          ... done

                       ===========================
                        171 OF  171 PAIRS ARE KEPT
                       ===========================

Total time spent in the initial guess                 ...     4.294 sec
L-MP2 correlation energy (all non-screened pairs)     ...      -0.878935427380 Eh
L-MP2 PNO error correction                            ...      -0.000005742225 Eh
                                                          --------------------
Initial total L-MP2 energy (non-screened pairs)       ...      -0.878941169605 Eh

Initial PNO correlation energy                        ...      -0.878574006917 Eh
sum of pair energies estimated for screened out pairs ...       0.000000000000 Eh
sum of MP2 pair energies for pairs that were not kept ...       0.000000000000 Eh
sum of PNO error estimates for the kept pairs         ...      -0.000367162688 Eh
                                                          --------------------
sum of all corrections                                         -0.000367162688
Initial total correlation energy                               -0.878941169605
Thresholds for map construction and integral transformation for fine MP2 and CCSD(T) calculation:
   TCutMKN   ...     1.0e-03
   TCutDO    ...     5.0e-03
   TCutPairs ...     1.0e-05
   TCutCMO   ...     1.0e-03
   TCutCPAO  ...     1.0e-03

Time for aux screen maps:            0.002
Time for maps after fine MP2:            0.007
-----------------------------
LOCAL RI TRANSFORMATION (IJV)
-----------------------------

Orbital window:       6 to 23
Basis functions:    139 (69 shells)
Aux. functions:     490 (174 shells)

Processing maps (0.0 sec)
Average map sizes:
   Aux shells -> MOs(i)           18.0
   Aux shells -> MOs(j)           18.0
   MOs        -> AO shells        68.0

Calculating integrals (0.4 sec, 1.217 MB)
Sorting integrals (0.0 sec, 1.211 MB)
Total time for the integral transformation: 0.4 sec
--------------------------------
LOCAL RI TRANSFORMATION (VABPAO)
--------------------------------

Number of PAOs:     139
Basis functions:    139 (69 shells)
Aux. functions:     490 (174 shells)

Processing maps (0.0 sec)
Average map sizes:
   Aux shells -> PAOs            139.0
   PAOs       -> AO shells        69.0

Calculating integrals (0.5 sec, 128.255 MB)
Finished


-------------------------------------
Pair Pair Term precalculation with     
RI-(ij|mn) and (im|jn) transformation  
ON THE FLY                             
-------------------------------------

   IBatch   1 (of   1)              ... done (   15.983 sec)
Total EXT                           ...          15.983 sec

---------------------
RI-PNO TRANSFORMATION
---------------------

Total Number of PNOs                   ...  5323
Average number of PNOs per pair        ...    31
Maximal number of PNOs per pair        ...    46
   #pairs with  1 -  5 PNOs   :    0
   #pairs with  6 - 10 PNOs   :    3
   #pairs with 11 - 15 PNOs   :    7
   #pairs with 16 - 20 PNOs   :    5
   #pairs with 21 - 25 PNOs   :   25
   #pairs with 26 - 30 PNOs   :   29
   #pairs with 31 - 35 PNOs   :   44
   #pairs with 36 - 40 PNOs   :   44
   #pairs with 41 - 45 PNOs   :   13
   #pairs with 46 - 50 PNOs   :    1

Generation of (ij|ab)[P] integrals            ... on
Generation of (ia|bc)[P],(ja|bc)[P] integrals ... on
Storage of 3 and 4 external integrals         ... on
Generation of ALL (ka|bc)[P] integrals        ... on
Keep RI integrals in memory                   ... off

Ibatch:  1 (of  1)
Starting 2-4 index PNO integral generation ... done

Timings:
Total PNO integral transformation time     ...          4.562 sec
Size of the 3-external file                ...        48 MB
Size of the 4-external file                ...       221 MB
Size of the IKJL file                      ...         0 MB
Size of the all 3-external file            ...       433 MB
Size of the 1-external file                ...         2 MB

Making pair/pair overlap matrices          ... done (    0.728 sec)
Size of the pair overlap file              ... 146 MB
Redoing the guess amplitudes               ... done (    0.002 sec)

-------------------------
FINAL STARTUP INFORMATION
-------------------------

E(0)                                       ...   -250.181085343
E(L-MP2)                                   ...     -0.878941170
E(L-MP2) including corrections             ...     -0.878941170
Initial E(tot)                             ...   -251.060026513
<T|T>                                      ...      0.271735842
Number of pairs included                   ... 171
Total number of pairs                      ... 171

------------------------------------------------
                  RHF COUPLED CLUSTER ITERATIONS
------------------------------------------------

Number of PNO amplitudes to be optimized   ...       176733
Number of non-PNO amplitudes               ...      2261475
Untruncated number of regular amplitudes   ...      2261475

Iter       E(tot)           E(Corr)          Delta-E          Residual     Time
  0   -251.032657547     -0.851205042      0.027736128      0.021553190    3.90
                           *** Turning on DIIS ***
  1   -251.096375300     -0.914922794     -0.063717752      0.008377887    3.46
  2   -251.126892819     -0.945440313     -0.030517519      0.001699698    3.79
  3   -251.130861634     -0.949409128     -0.003968815      0.000573537    3.39
  4   -251.131682860     -0.950230354     -0.000821225      0.000269449    3.46
  5   -251.131805403     -0.950352897     -0.000122543      0.000127971    3.87
  6   -251.131832876     -0.950380370     -0.000027474      0.000061370    3.37
  7   -251.131837356     -0.950384850     -0.000004479      0.000027798    3.39
  8   -251.131839052     -0.950386546     -0.000001696      0.000008828    4.49
               --- The Coupled-Cluster iterations have converged ---

----------------------
COUPLED CLUSTER ENERGY
----------------------

E(0)                                       ...   -250.181085343
E(CORR)(strong-pairs)                      ...     -0.950386546
E(CORR)(weak-pairs)                        ...     -0.000367163
E(CORR)(corrected)                         ...     -0.950753708
E(TOT)                                     ...   -251.131839052
Singles Norm <S|S>**1/2                    ...      0.047956448  
T1 diagnostic                              ...      0.007992741  

------------------
LARGEST AMPLITUDES
------------------
  19-> 33  19-> 33       0.046526
  20-> 32  20-> 32       0.044537
  21-> 32  21-> 32       0.043902
  23-> 24  23-> 24       0.039376
  14-> 24  14-> 24       0.039338
  15-> 24  15-> 24       0.038963
  17-> 24  17-> 24       0.038704
  13-> 24  13-> 24       0.038416
  22-> 24  22-> 24       0.038402
  18-> 24  18-> 24       0.038272
  16-> 24  16-> 24       0.038231
  13-> 33  13-> 33       0.038029
  22-> 33  22-> 33       0.037826
  16-> 32  16-> 32       0.037546
  20-> 24  20-> 24       0.037330
  21-> 24  21-> 24       0.037224


-------------------------------------------
DLPNO BASED TRIPLES CORRECTION
-------------------------------------------

Singles multiplier          ...  1.000000
TCutTNO                     ... 1.000e-09
TCutMP2Pairs                ... 1.000e-06
TCutDOStrong                ... 1.000e-02
TCutMKNStrong               ... 1.000e-02
TCutDOWeak                  ... 2.000e-02
TCutMKNWeak                 ... 1.000e-01

Fragment selection                          .... not used
Number of Triples that are to be computed   ...      1122

 . . . . . . . . .
10% done  
20% done  
30% done  
40% done  
50% done  
60% done  
70% done  
80% done  
90% done               (     35.586 sec)
Triples timings:
Total time for T0               ...    37.836 sec
Total time for Iterative (T)    ...     0.000 sec
Total time of overall (T)       ...    37.836 sec

Triples List generation         ...     0.000 sec
TNO generation                  ...     2.246 sec
Pair density generation         ...     0.002 sec
Look up tables                  ...     0.000 sec
Generating 3-index integrals    ...    15.524 sec
  Make 4-ind.int. from 3-ind.int...     7.604 sec
  Projecting amplitudes (D + S) ...     3.231 sec
  Downprojecting integrals      ...     0.002 sec
  Energy contr. (sum over a,b,c)...     2.618 sec
Fitting ET(->0)                 ...     0.000 sec

Everything after 3-index        ...    20.062 sec

Timing details:
 TNO integrals                  ...    22.304 sec
   Reading 3-index integrals    ...     0.027 sec
   Sorting integrals            ...     4.842 sec
       Sorting integrals 1      ...     0.001 sec
       Sorting integrals 2      ...     1.156 sec
       Sorting integrals 3      ...     0.215 sec
       Sorting integrals 4      ...     0.021 sec
       Sorting integrals 5      ...     0.054 sec
       Sorting integrals 6      ...     3.395 sec
   Calculating local VM**-1/2   ...     0.183 sec
   Orthogonal. integrals        ...     0.380 sec
   Multipl. 3-index integrals   ...    16.871 sec
   All concerning IRIab (w/TNO) ...     3.384 sec

 Calculate W0/W1                ...     6.599 sec
 W 3-ext contribution           ...     3.422 sec
 W 3-int contribution           ...     1.139 sec
 Sorting W                      ...     1.916 sec

 V exchange contribution        ...     0.979 sec

 Timings for Triples without generation
     of 3-index integrals       ...    20.059 sec
       0 weak pairs             ...    20.059 sec
       1 weak pair              ...     0.000 sec
       2 weak pairs             ...     0.000 sec
       3 weak pairs             ...     0.000 sec
  Extra time for extrapolation  ...     0.000 sec

Number of Triples   (0, 1, 2, 3 weak pairs; overall):   1122       0       0       0  (  1122)
Number of Atoms     (0, 1, 2, 3 weak pairs; overall):   16.4     0.0     0.0     0.0  (    17)
Number of PAOs      (0, 1, 2, 3 weak pairs; overall):  136.0     0.0     0.0     0.0  (   139)
Number of AuxFcns   (0, 1, 2, 3 weak pairs; overall):  246.7     0.0     0.0     0.0  (   490)
Number of TNOs      (0, 1, 2, 3 weak pairs         ):   68.6     0.0     0.0     0.0
Aver. Number of NTNO, Atoms, PAOs, AuxFcns / Triples:   1122    68.6    16.4   136.0   246.7

Triples Correction (T)                     ...     -0.028679716
Final correlation energy                   ...     -0.979433424
E(CCSD)                                    ...   -251.131839052
E(CCSD(T))                                 ...   -251.160518767


Maximum memory used throughout the entire calculation: 4584.5 MB


------------------------------------------------------------------------------- 
                                     TIMINGS                                   
------------------------------------------------------------------------------- 


Total execution time                   ...      101.464 sec

Localization of occupied MO's          ...        0.427 sec (  0.4%)
Fock Matrix Formation                  ...        1.199 sec (  1.2%)
Global overlap, Fock, MKN matrices     ...        0.149 sec (  0.1%)
Differential overlap integrals         ...        0.110 sec (  0.1%)
Organizing maps                        ...        0.021 sec (  0.0%)
RI 3-index integral generations        ...        1.631 sec (  1.6%)
RI-PNO integral transformation         ...       21.884 sec ( 21.6%)
Initial Guess                          ...        4.749 sec (  4.7%)
DIIS Solver                            ...        0.553 sec (  0.5%)
State Vector Update                    ...        0.013 sec (  0.0%)
Sigma-vector construction              ...       32.998 sec ( 32.5%)
  <D|H|D>(0-ext)                       ...        1.892 sec (  5.7% of sigma)
  <D|H|D>(2-ext Fock)                  ...        0.013 sec (  0.0% of sigma)
  <D|H|D>(2-ext)                       ...        3.900 sec ( 11.8% of sigma)
  <D|H|D>(4-ext)                       ...        2.764 sec (  8.4% of sigma)
  <D|H|D>(4-ext-corr)                  ...       14.646 sec ( 44.4% of sigma)
  CCSD doubles correction              ...        0.165 sec (  0.5% of sigma)
  <S|H|S>                              ...        0.307 sec (  0.9% of sigma)
  <S|H|D>(1-ext)                       ...        0.231 sec (  0.7% of sigma)
  <D|H|S>(1-ext)                       ...        0.010 sec (  0.0% of sigma)
  <S|H|D>(3-ext)                       ...        0.179 sec (  0.5% of sigma)
  Fock-dressing                        ...        5.773 sec ( 17.5% of sigma)
  Singles amplitudes                   ...        0.168 sec (  0.5% of sigma)
  (ik|jl)-dressing                     ...        1.350 sec (  4.1% of sigma)
  (ij|ab),(ia|jb)-dressing             ...        1.523 sec (  4.6% of sigma)
  Pair energies                        ...        0.005 sec (  0.0% of sigma)
Total Time for computing (T)           ...       37.886 sec ( 37.3% of ALL)


-------------------------   --------------------
FINAL SINGLE POINT ENERGY      -251.160518767446
-------------------------   --------------------


                            ***************************************
                            *     ORCA property calculations      *
                            ***************************************

                                    ---------------------
                                    Active property flags
                                    ---------------------
   (+) Dipole Moment


------------------------------------------------------------------------------
                       ORCA ELECTRIC PROPERTIES CALCULATION
------------------------------------------------------------------------------

Dipole Moment Calculation                       ... on
Quadrupole Moment Calculation                   ... off
Polarizability Calculation                      ... off
GBWName                                         ... N_methylpyrrolidine_ts.gbw
Electron density file                           ... N_methylpyrrolidine_ts.scfp.tmp
The origin for moment calculation is the CENTER OF MASS  = (-0.009430,  0.000152 -0.000625)

-------------
DIPOLE MOMENT
-------------
                                X             Y             Z
Electronic contribution:     -0.51527       0.00794      -0.06676
Nuclear contribution   :      0.45274      -0.00735       0.03006
                        -----------------------------------------
Total Dipole Moment    :     -0.06253       0.00058      -0.03671
                        -----------------------------------------
Magnitude (a.u.)       :      0.07251
Magnitude (Debye)      :      0.18431



--------------------
Rotational spectrum 
--------------------
 
Rotational constants in cm-1:     0.217827     0.104177     0.077140 
Rotational constants in MHz :  6530.286624  3123.151653  2312.611334 

 Dipole components along the rotational axes: 
x,y,z [a.u.] :    -0.062525     0.000653    -0.036719 
x,y,z [Debye]:    -0.158926     0.001661    -0.093332 

 

Timings for individual modules:

Sum of individual times         ...      158.460 sec (=   2.641 min)
GTO integral calculation        ...       52.552 sec (=   0.876 min)  33.2 %
SCF iterations                  ...        4.275 sec (=   0.071 min)   2.7 %
MDCI module                     ...      101.633 sec (=   1.694 min)  64.1 %
                             ****ORCA TERMINATED NORMALLY****
TOTAL RUN TIME: 0 days 0 hours 2 minutes 38 seconds 711 msec
N_methylpyrrolidine_ts.gbw -> /home1/pantazis/klk/VDZ/Energy_barrier/N_methylpyrrolidine_ts.gbw
N_methylpyrrolidine_ts.ges -> /home1/pantazis/klk/VDZ/Energy_barrier/N_methylpyrrolidine_ts.ges
N_methylpyrrolidine_ts.job -> /home1/pantazis/klk/VDZ/Energy_barrier/N_methylpyrrolidine_ts.job
N_methylpyrrolidine_ts.loc -> /home1/pantazis/klk/VDZ/Energy_barrier/N_methylpyrrolidine_ts.loc
N_methylpyrrolidine_ts.nodes -> /home1/pantazis/klk/VDZ/Energy_barrier/N_methylpyrrolidine_ts.nodes
N_methylpyrrolidine_ts.prop -> /home1/pantazis/klk/VDZ/Energy_barrier/N_methylpyrrolidine_ts.prop
N_methylpyrrolidine_ts_property.txt -> /home1/pantazis/klk/VDZ/Energy_barrier/N_methylpyrrolidine_ts_property.txt
N_methylpyrrolidine_ts.xyz -> /home1/pantazis/klk/VDZ/Energy_barrier/N_methylpyrrolidine_ts.xyz
cp: cannot stat N_methylpyrrolidine_ts.asa.inp: No such file or directory
