! Job execution by suborca V 6.07 on ZEUS !
Job started from zeus1, running /scratch/pantazis/N_Me_spiro_piperidine_2_2p_adamantane_b__pweSXv/orca/orca copied from /opt/orca on zeussn126 in /scratch/pantazis/N_Me_spiro_piperidine_2_2p_adamantane_b__pweSXv
Job execution start: Sat Jun 29 10:52:10 CEST 2019
Shared library path: /scratch/pantazis/N_Me_spiro_piperidine_2_2p_adamantane_b__pweSXv/orca:/opt/openmpi_1.10.2/lib:/opt/intel/mkl/lib/intel64:/opt/intel/lib/intel64:
PBS Job ID is: 158759.icqc
izeussn126
izeussn126
izeussn126
izeussn126

                                 *****************
                                 * O   R   C   A *
                                 *****************

           --- An Ab Initio, DFT and Semiempirical electronic structure package ---

                  #######################################################
                  #                        -***-                        #
                  #          Department of theory and spectroscopy      #
                  #               Directorship: Frank Neese             #
                  #        Max Planck Institute fuer Kohlenforschung    #
                  #                Kaiser Wilhelm Platz 1               #
                  #                 D-45470 Muelheim/Ruhr               #
                  #                      Germany                        #
                  #                                                     #
                  #                  All rights reserved                #
                  #                        -***-                        #
                  #######################################################


                         Program Version 4.1.x  -  STABLE  -
                                (SVN: $Rev: 14094$)
                ($Date: 2019-06-14 15:01:15 +0200 (Fri, 14 Jun 2019) $)

                         (BUILD: $Sun Jun 23 06:18:31 CEST 2019$)


 With contributions from (in alphabetic order):
   Daniel Aravena         : Magnetic Properties
   Michael Atanasov       : Ab Initio Ligand Field Theory
   Alexander A. Auer      : GIAO ZORA
   Ute Becker             : Parallelization
   Giovanni Bistoni       : ED, Open-shell LED
   Martin Brehm           : Molecular dynamics
   Dmytro Bykov           : SCF Hessian
   Vijay G. Chilkuri      : MRCI spin determinant printing
   Dipayan Datta          : RHF DLPNO-CCSD density
   Achintya Kumar Dutta   : EOM-CC, STEOM-CC
   Dmitry Ganyushin       : Spin-Orbit,Spin-Spin,Magnetic field MRCI
   Miquel Garcia          : C-PCM Hessian
   Yang Guo               : DLPNO-NEVPT2, CIM, IAO-localization
   Andreas Hansen         : Spin unrestricted coupled pair/coupled cluster methods
   Benjamin Helmich-Paris : CASSCF linear response (MC-RPA)
   Lee Huntington         : MR-EOM, pCC
   Robert Izsak           : Overlap fitted RIJCOSX, COSX-SCS-MP3, EOM
   Christian Kollmar      : KDIIS, OOCD, Brueckner-CCSD(T), CCSD density
   Simone Kossmann        : Meta GGA functionals, TD-DFT gradient, OOMP2, MP2 Hessian
   Martin Krupicka        : AUTO-CI
   Lucas Lang             : DCDCAS
   Dagmar Lenk            : GEPOL surface, SMD
   Dimitrios Liakos       : Extrapolation schemes; parallel MDCI
   Dimitrios Manganas     : ROCIS; embedding schemes
   Dimitrios Pantazis     : SARC Basis sets
   Taras Petrenko         : DFT Hessian,TD-DFT gradient, ASA, ECA, R-Raman, ABS, FL, XAS/XES, NRVS
   Peter Pinski           : DLPNO-MP2, DLPNO-MP2 Gradient
   Christoph Reimann      : Effective Core Potentials
   Marius Retegan         : Local ZFS, SOC
   Christoph Riplinger    : Optimizer, TS searches, QM/MM, DLPNO-CCSD(T), (RO)-DLPNO pert. Triples
   Tobias Risthaus        : Range-separated hybrids, TD-DFT gradient, RPA, STAB
   Michael Roemelt        : Restricted open shell CIS
   Masaaki Saitow         : Open-shell DLPNO
   Barbara Sandhoefer     : DKH picture change effects
   Avijit Sen             : IP-ROCIS
   Kantharuban Sivalingam : CASSCF convergence, NEVPT2, FIC-MRCI
   Bernardo de Souza      : ESD, SOC TD-DFT
   Georgi Stoychev        : AutoAux, RI-MP2 NMR
   Willem Van den Heuvel  : Paramagnetic NMR
   Boris Wezisla          : Elementary symmetry handling
   Frank Wennmohs         : Technical directorship


 We gratefully acknowledge several colleagues who have allowed us to
 interface, adapt or use parts of their codes:
   Stefan Grimme, W. Hujo, H. Kruse,             : VdW corrections, initial TS optimization,
                  C. Bannwarth                     DFT functionals, gCP, sTDA/sTD-DF
   Ed Valeev                                     : LibInt (2-el integral package), F12 methods
   Garnet Chan, S. Sharma, J. Yang, R. Olivares  : DMRG
   Ulf Ekstrom                                   : XCFun DFT Library
   Mihaly Kallay                                 : mrcc  (arbitrary order and MRCC methods)
   Andreas Klamt, Michael Diedenhofen            : otool_cosmo (COSMO solvation model)
   Jiri Pittner, Ondrej Demel                    : Mk-CCSD
   Frank Weinhold                                : gennbo (NPA and NBO analysis)
   Christopher J. Cramer and Donald G. Truhlar   : smd solvation model
   Lars Goerigk                                  : TD-DFT with DH, B97 family of functionals
   V. Asgeirsson, H. Jonsson                     : NEB implementation
   FAccTs GmbH                                   : IRC, NEB, NEB-TS, Multilevel


 Your calculation uses the libint2 library for the computation of 2-el integrals
 For citations please refer to: http://libint.valeyev.net

 This ORCA versions uses:
   CBLAS   interface :  Fast vector & matrix operations
   LAPACKE interface :  Fast linear algebra routines
   SCALAPACK package :  Parallel linear algebra routines




***************************************
The coordinates will be read from file: N_Me_spiro_piperidine_2_2p_adamantane_b.xyz
***************************************


----- Orbital basis set information -----
Your calculation utilizes the basis: cc-pVDZ 
       H, B-Ne : Obtained from the ccRepo (grant-hill.group.shef.ac.uk/ccrepo) Feb. 2017
                 T. H. Dunning, Jr., J. Chem. Phys. 90, 1007 (1989)
            He : Obtained from the ccRepo (grant-hill.group.shef.ac.uk/ccrepo) Feb. 2017
                 D. E. Woon, T. H. Dunning, Jr., J. Chem. Phys. 100, 2975 (1994)
  Li-Be, Na-Mg : Obtained from the ccRepo (grant-hill.group.shef.ac.uk/ccrepo) Feb. 2017
                 B. P. Prascher, D. E. Woon, K. A. Peterson, T. H. Dunning, Jr., A. K. Wilson, Theor. Chem. Acc. 128, 69 (2011)
         Al-Ar : Obtained from the ccRepo (grant-hill.group.shef.ac.uk/ccrepo) Feb. 2017
                 D. E. Woon, T. H. Dunning, Jr., J. Chem. Phys. 98, 1358 (1993)
            Ca : Obtained from the Peterson Research Group Website (tyr0.chem.wsu.edu/~kipeters) Feb. 2017
                 J. Koput, K. A. Peterson, J. Phys. Chem. 106, 9595 (2002)
         Sc-Zn : Obtained from the ccRepo (grant-hill.group.shef.ac.uk/ccrepo) Feb. 2017
                 N. B. Balabanov, K. A. Peterson, J. Chem. Phys. 123, 064107 (2005)
                 N. B. Balabanov, K. A. Peterson, J. Chem. Phys. 125, 074110 (2006)
         Ga-Kr : Obtained from the ccRepo (grant-hill.group.shef.ac.uk/ccrepo) Feb. 2017
                 A. K. Wilson, D. E. Woon, K. A. Peterson, T. H. Dunning, Jr., J. Chem. Phys. 110, 7667 (1999)

----- AuxC basis set information -----
Your calculation utilizes the auxiliary basis: cc-pVDZ/C 
  H-He, B, Ne, Al-Ar, Ga-Br : Obtained from the EMSL Basis Set Exchange (bse.pnl.gov) Feb. 2017
                              F. Weigend, A. Kohn, C. Hattig, J. Chem. Phys. 116, 3175 (2002)
               Li-Be, Na-Mg : Obtained from the EMSL Basis Set Exchange (bse.pnl.gov) Feb. 2017
                              C. Haettig, Phys. Chem. Chem. Phys. 7, 59 (2005)
                        C-F : Obtained from the EMSL Basis Set Exchange (bse.pnl.gov) Feb. 2017
                              C. Haettig, Phys. Chem. Chem. Phys. 7, 59 (2005)
                              F. Weigend, A. Kohn, C. Hattig, J. Chem. Phys. 116, 3175 (2002)
                         Kr : Obtained from the TURBOMOLE 7.0 basis set library
                              F. Weigend, A. Kohn, C. Hattig, J. Chem. Phys. 116, 3175 (2002)
                              S function revised in Sep. 2009

----- AuxJK basis set information -----
Your calculation utilizes the auxiliary basis: cc-pVTZ/JK 
  H, B-F, Al-Cl, Ga-Br : Obtained from the TURBOMOLE 7.0 basis set library

================================================================================
                                        WARNINGS
                       Please study these warnings very carefully!
================================================================================


WARNING: MDCI localization with Augmented Hessian Foster-Boys
  ===> : Switching off randomization!

WARNING: Post HF methods need fully converged wavefunctions
  ===> : Setting SCFConvForced true
         You can overwrite this default with %scf ConvForced false 


INFO   : the flag for use of LIBINT has been found!

================================================================================
                                       INPUT FILE
================================================================================
NAME = N_Me_spiro_piperidine_2_2p_adamantane_b.inp
|  1> ! RHF DLPNO-CCSD(T) cc-pVDZ RIJK cc-pVTZ/JK cc-pVDZ/C
|  2> ! KDIIS SOSCF TightSCF TightPNO
|  3> 
|  4> %pal nprocs 4 end
|  5> 
|  6> %maxcore 8000
|  7> 
|  8> %scf maxiter 300
|  9>      shift shift 0.2 erroff 0.1 end
| 10> end
| 11> 
| 12> * xyzfile 0 1 N_Me_spiro_piperidine_2_2p_adamantane_b.xyz 
| 13> 
| 14> 
| 15>                          ****END OF INPUT****
================================================================================

                       ****************************
                       * Single Point Calculation *
                       ****************************

---------------------------------
CARTESIAN COORDINATES (ANGSTROEM)
---------------------------------
  C      2.306040   -1.253600   -0.078280
  C      1.322730   -1.243630   -1.263950
  C      0.347550   -0.040660   -1.143200
  C     -0.507700   -0.105310    0.171350
  C      0.569410   -0.070900    1.306680
  C      1.540500   -1.268410    1.253540
  C      1.416650    1.217320    1.233120
  C      2.239570    1.238350   -0.065570
  C      1.293440    1.177170   -1.273080
  C      3.171350    0.016950   -0.118000
  C     -1.257300   -1.470600    0.287100
  C     -2.518700   -1.525230   -0.585930
  C     -3.443580   -0.346200   -0.266510
  C     -2.811370    0.523730    0.824530
  N     -1.470540    0.996500    0.479220
  C     -1.608900    2.041040   -0.527310
  H      2.968770   -2.152170   -0.142600
  H      0.798230   -2.219740   -1.354620
  H      1.899270   -1.183470   -2.217510
  H     -0.333700   -0.070950   -2.026050
  H      0.049730   -0.090040    2.296600
  H      1.016600   -2.240390    1.395070
  H      2.260890   -1.211170    2.103810
  H      2.105320    1.269950    2.109580
  H      0.773950    2.125380    1.296640
  H      2.853600    2.172160   -0.110390
  H      1.889970    1.109550   -2.213620
  H      0.770510    2.143930   -1.400530
  H      3.788170    0.036430   -1.047710
  H      3.886410    0.035010    0.738360
  H     -1.529850   -1.688530    1.345870
  H     -0.645160   -2.353920    0.014020
  H     -3.052000   -2.493400   -0.425580
  H     -2.227140   -1.500180   -1.662700
  H     -4.434720   -0.718510    0.088230
  H     -3.646640    0.256220   -1.183340
  H     -2.775570   -0.021830    1.796600
  H     -3.487210    1.379410    1.064330
  H     -2.504250    2.679300   -0.349250
  H     -0.788080    2.782000   -0.435830
  H     -1.701430    1.639390   -1.560770

----------------------------
CARTESIAN COORDINATES (A.U.)
----------------------------
  NO LB      ZA    FRAG     MASS         X           Y           Z
   0 C     6.0000    0    12.011    4.357784   -2.368961   -0.147928
   1 C     6.0000    0    12.011    2.499597   -2.350120   -2.388519
   2 C     6.0000    0    12.011    0.656774   -0.076836   -2.160335
   3 C     6.0000    0    12.011   -0.959414   -0.199007    0.323805
   4 C     6.0000    0    12.011    1.076029   -0.133982    2.469267
   5 C     6.0000    0    12.011    2.911123   -2.396948    2.368847
   6 C     6.0000    0    12.011    2.677081    2.300401    2.330259
   7 C     6.0000    0    12.011    4.232174    2.340142   -0.123909
   8 C     6.0000    0    12.011    2.444247    2.224529   -2.405773
   9 C     6.0000    0    12.011    5.992983    0.032031   -0.222988
  10 C     6.0000    0    12.011   -2.375953   -2.779031    0.542540
  11 C     6.0000    0    12.011   -4.759653   -2.882267   -1.107247
  12 C     6.0000    0    12.011   -6.507423   -0.654223   -0.503631
  13 C     6.0000    0    12.011   -5.312719    0.989706    1.558136
  14 N     7.0000    0    14.007   -2.778918    1.883112    0.905595
  15 C     6.0000    0    12.011   -3.040380    3.857007   -0.996471
  16 H     1.0000    0     1.008    5.610162   -4.067012   -0.269475
  17 H     1.0000    0     1.008    1.508436   -4.194701   -2.559861
  18 H     1.0000    0     1.008    3.589100   -2.236434   -4.190487
  19 H     1.0000    0     1.008   -0.630602   -0.134076   -3.828680
  20 H     1.0000    0     1.008    0.093976   -0.170151    4.339945
  21 H     1.0000    0     1.008    1.921096   -4.233724    2.636300
  22 H     1.0000    0     1.008    4.272463   -2.288780    3.975625
  23 H     1.0000    0     1.008    3.978478    2.399858    3.986528
  24 H     1.0000    0     1.008    1.462554    4.016386    2.450294
  25 H     1.0000    0     1.008    5.392522    4.104788   -0.208607
  26 H     1.0000    0     1.008    3.571526    2.096746   -4.183136
  27 H     1.0000    0     1.008    1.456053    4.051441   -2.646618
  28 H     1.0000    0     1.008    7.158604    0.068843   -1.979885
  29 H     1.0000    0     1.008    7.344251    0.066159    1.395298
  30 H     1.0000    0     1.008   -2.890998   -3.190859    2.543326
  31 H     1.0000    0     1.008   -1.219176   -4.448264    0.026494
  32 H     1.0000    0     1.008   -5.767444   -4.711843   -0.804230
  33 H     1.0000    0     1.008   -4.208685   -2.834929   -3.142048
  34 H     1.0000    0     1.008   -8.380406   -1.357787    0.166731
  35 H     1.0000    0     1.008   -6.891151    0.484186   -2.236189
  36 H     1.0000    0     1.008   -5.245067   -0.041253    3.395082
  37 H     1.0000    0     1.008   -6.589872    2.606707    2.011292
  38 H     1.0000    0     1.008   -4.732347    5.063143   -0.659987
  39 H     1.0000    0     1.008   -1.489255    5.257218   -0.823599
  40 H     1.0000    0     1.008   -3.215237    3.097998   -2.949428

--------------------------------
INTERNAL COORDINATES (ANGSTROEM)
--------------------------------
 C      0   0   0     0.000000000000     0.00000000     0.00000000
 C      1   0   0     1.540393230932     0.00000000     0.00000000
 C      2   1   0     1.553284718202   110.23939666     0.00000000
 C      3   2   1     1.569609469741   112.04240663   299.39894706
 C      4   3   2     1.565351145622   103.39095885    60.39150461
 C      1   2   3     1.536234142343   110.44188029    55.84411132
 C      5   4   3     1.543611822836   111.18962297    59.74118600
 C      7   5   4     1.537607005512   110.20718428   294.93401323
 C      8   7   5     1.535247657350   109.50819477    59.46842656
 C      8   7   5     1.537133967259   110.02108690   300.46488433
 C      4   3   2     1.561830658746   111.07498240   305.71386814
 C     11   4   3     1.535023054485   112.54178581   281.03448732
 C     12  11   4     1.532169668052   110.49250249   305.44500455
 C     13  12  11     1.531938631473   109.65407767     0.26860549
 N     14  13  12     1.463070592248   113.17943106    55.83738753
 C     15  14  13     1.457158173329   107.91732661    73.72278879
 H      1   2   3     1.118381044278   109.82848919   176.98732908
 H      2   1   3     1.111805752369   110.99181389   234.06901368
 H      2   1   3     1.115927538329   109.16395904   121.46434648
 H      3   2   1     1.115546130422   107.50860091   179.40960102
 H      5   4   3     1.118201792343   108.77883298   178.73720111
 H      6   1   2     1.113214746264   110.68051435    68.57312370
 H      6   1   2     1.115884063243   109.77822264   183.51380150
 H      7   5   4     1.115893551106   109.91731405   174.25953837
 H      7   5   4     1.114302940856   111.14908142    57.43756646
 H      8   7   5     1.118500241126   109.82042226   180.21171238
 H      9   8   7     1.115811810701   109.62872719   184.51741333
 H      9   8   7     1.106491836843   110.30566095    72.92380692
 H     10   8   7     1.115888465260   110.46406167   181.21285380
 H     10   8   7     1.115790937766   110.45269542   298.84171134
 H     11   4   3     1.114796349249   111.01519417   158.01831739
 H     11   4   3     1.108847279115   114.40332308    42.86665289
 H     12  11   4     1.116903828179   109.97229987   183.29663176
 H     12  11   4     1.115826316682   109.47017541    66.70751047
 H     13  12  11     1.116608124321   110.21014792   239.99046635
 H     13  12  11     1.115670412308   110.73565392   122.73896229
 H     14  13  12     1.115274602284   110.86780332   292.29966652
 H     14  13  12     1.116446150963   109.77819998   180.41990288
 H     16  15  14     1.113881867031   112.12650502    36.87477157
 H     16  15  14     1.109565583641   110.57934382   149.32620649
 H     16  15  14     1.112620373263   112.99973862   276.15083725

---------------------------
INTERNAL COORDINATES (A.U.)
---------------------------
 C      0   0   0     0.000000000000     0.00000000     0.00000000
 C      1   0   0     2.910921345007     0.00000000     0.00000000
 C      2   1   0     2.935282725407   110.23939666     0.00000000
 C      3   2   1     2.966132035019   112.04240663   299.39894706
 C      4   3   2     2.958084968645   103.39095885    60.39150461
 C      1   2   3     2.903061806607   110.44188029    55.84411132
 C      5   4   3     2.917003602244   111.18962297    59.74118600
 C      7   5   4     2.905656142017   110.20718428   294.93401323
 C      8   7   5     2.901197620136   109.50819477    59.46842656
 C      8   7   5     2.904762229267   110.02108690   300.46488433
 C      4   3   2     2.951432212592   111.07498240   305.71386814
 C     11   4   3     2.900773182232   112.54178581   281.03448732
 C     12  11   4     2.895381063320   110.49250249   305.44500455
 C     13  12  11     2.894944467458   109.65407767     0.26860549
 N     14  13  12     2.764802733942   113.17943106    55.83738753
 C     15  14  13     2.753629881397   107.91732661    73.72278879
 H      1   2   3     2.113433887054   109.82848919   176.98732908
 H      2   1   3     2.101008386095   110.99181389   234.06901368
 H      2   1   3     2.108797432742   109.16395904   121.46434648
 H      3   2   1     2.108076676254   107.50860091   179.40960102
 H      5   4   3     2.113095149989   108.77883298   178.73720111
 H      6   1   2     2.103670998682   110.68051435    68.57312370
 H      6   1   2     2.108715276737   109.77822264   183.51380150
 H      7   5   4     2.108733206199   109.91731405   174.25953837
 H      7   5   4     2.105727388441   111.14908142    57.43756646
 H      8   7   5     2.113659136454   109.82042226   180.21171238
 H      9   8   7     2.108578739220   109.62872719   184.51741333
 H      9   8   7     2.090966541053   110.30566095    72.92380692
 H     10   8   7     2.108723595343   110.46406167   181.21285380
 H     10   8   7     2.108539295088   110.45269542   298.84171134
 H     11   4   3     2.106659795177   111.01519417   158.01831739
 H     11   4   3     2.095417681870   114.40332308    42.86665289
 H     12  11   4     2.110642353186   109.97229987   183.29663176
 H     12  11   4     2.108606151551   109.47017541    66.70751047
 H     13  12  11     2.110083553878   110.21014792   239.99046635
 H     13  12  11     2.108311534982   110.73565392   122.73896229
 H     14  13  12     2.107563562435   110.86780332   292.29966652
 H     14  13  12     2.109777468590   109.77819998   180.41990288
 H     16  15  14     2.104931674229   112.12650502    36.87477157
 H     16  15  14     2.096775080705   110.57934382   149.32620649
 H     16  15  14     2.102547796488   112.99973862   276.15083725

---------------------
BASIS SET INFORMATION
---------------------
There are 3 groups of distinct atoms

 Group   1 Type C   : 17s4p1d contracted to 3s2p1d pattern {881/31/1}
 Group   2 Type N   : 17s4p1d contracted to 3s2p1d pattern {881/31/1}
 Group   3 Type H   : 4s1p contracted to 2s1p pattern {31/1}

Atom   0C    basis set group =>   1
Atom   1C    basis set group =>   1
Atom   2C    basis set group =>   1
Atom   3C    basis set group =>   1
Atom   4C    basis set group =>   1
Atom   5C    basis set group =>   1
Atom   6C    basis set group =>   1
Atom   7C    basis set group =>   1
Atom   8C    basis set group =>   1
Atom   9C    basis set group =>   1
Atom  10C    basis set group =>   1
Atom  11C    basis set group =>   1
Atom  12C    basis set group =>   1
Atom  13C    basis set group =>   1
Atom  14N    basis set group =>   2
Atom  15C    basis set group =>   1
Atom  16H    basis set group =>   3
Atom  17H    basis set group =>   3
Atom  18H    basis set group =>   3
Atom  19H    basis set group =>   3
Atom  20H    basis set group =>   3
Atom  21H    basis set group =>   3
Atom  22H    basis set group =>   3
Atom  23H    basis set group =>   3
Atom  24H    basis set group =>   3
Atom  25H    basis set group =>   3
Atom  26H    basis set group =>   3
Atom  27H    basis set group =>   3
Atom  28H    basis set group =>   3
Atom  29H    basis set group =>   3
Atom  30H    basis set group =>   3
Atom  31H    basis set group =>   3
Atom  32H    basis set group =>   3
Atom  33H    basis set group =>   3
Atom  34H    basis set group =>   3
Atom  35H    basis set group =>   3
Atom  36H    basis set group =>   3
Atom  37H    basis set group =>   3
Atom  38H    basis set group =>   3
Atom  39H    basis set group =>   3
Atom  40H    basis set group =>   3
-------------------------------
AUXILIARY BASIS SET INFORMATION
-------------------------------
There are 3 groups of distinct atoms

 Group   1 Type C   : 7s5p4d2f contracted to 7s5p4d2f pattern {1111111/11111/1111/11}
 Group   2 Type N   : 7s5p4d2f contracted to 7s5p4d2f pattern {1111111/11111/1111/11}
 Group   3 Type H   : 3s2p1d contracted to 3s2p1d pattern {111/11/1}

Atom   0C    basis set group =>   1
Atom   1C    basis set group =>   1
Atom   2C    basis set group =>   1
Atom   3C    basis set group =>   1
Atom   4C    basis set group =>   1
Atom   5C    basis set group =>   1
Atom   6C    basis set group =>   1
Atom   7C    basis set group =>   1
Atom   8C    basis set group =>   1
Atom   9C    basis set group =>   1
Atom  10C    basis set group =>   1
Atom  11C    basis set group =>   1
Atom  12C    basis set group =>   1
Atom  13C    basis set group =>   1
Atom  14N    basis set group =>   2
Atom  15C    basis set group =>   1
Atom  16H    basis set group =>   3
Atom  17H    basis set group =>   3
Atom  18H    basis set group =>   3
Atom  19H    basis set group =>   3
Atom  20H    basis set group =>   3
Atom  21H    basis set group =>   3
Atom  22H    basis set group =>   3
Atom  23H    basis set group =>   3
Atom  24H    basis set group =>   3
Atom  25H    basis set group =>   3
Atom  26H    basis set group =>   3
Atom  27H    basis set group =>   3
Atom  28H    basis set group =>   3
Atom  29H    basis set group =>   3
Atom  30H    basis set group =>   3
Atom  31H    basis set group =>   3
Atom  32H    basis set group =>   3
Atom  33H    basis set group =>   3
Atom  34H    basis set group =>   3
Atom  35H    basis set group =>   3
Atom  36H    basis set group =>   3
Atom  37H    basis set group =>   3
Atom  38H    basis set group =>   3
Atom  39H    basis set group =>   3
Atom  40H    basis set group =>   3
-------------------------------
AUXILIARY BASIS SET INFORMATION
-------------------------------
There are 3 groups of distinct atoms

 Group   1 Type C   : 10s7p5d2f1g contracted to 10s7p5d2f1g pattern {1111111111/1111111/11111/11/1}
 Group   2 Type N   : 10s7p5d2f1g contracted to 10s7p5d2f1g pattern {1111111111/1111111/11111/11/1}
 Group   3 Type H   : 4s3p2d1f contracted to 4s3p2d1f pattern {1111/111/11/1}

Atom   0C    basis set group =>   1
Atom   1C    basis set group =>   1
Atom   2C    basis set group =>   1
Atom   3C    basis set group =>   1
Atom   4C    basis set group =>   1
Atom   5C    basis set group =>   1
Atom   6C    basis set group =>   1
Atom   7C    basis set group =>   1
Atom   8C    basis set group =>   1
Atom   9C    basis set group =>   1
Atom  10C    basis set group =>   1
Atom  11C    basis set group =>   1
Atom  12C    basis set group =>   1
Atom  13C    basis set group =>   1
Atom  14N    basis set group =>   2
Atom  15C    basis set group =>   1
Atom  16H    basis set group =>   3
Atom  17H    basis set group =>   3
Atom  18H    basis set group =>   3
Atom  19H    basis set group =>   3
Atom  20H    basis set group =>   3
Atom  21H    basis set group =>   3
Atom  22H    basis set group =>   3
Atom  23H    basis set group =>   3
Atom  24H    basis set group =>   3
Atom  25H    basis set group =>   3
Atom  26H    basis set group =>   3
Atom  27H    basis set group =>   3
Atom  28H    basis set group =>   3
Atom  29H    basis set group =>   3
Atom  30H    basis set group =>   3
Atom  31H    basis set group =>   3
Atom  32H    basis set group =>   3
Atom  33H    basis set group =>   3
Atom  34H    basis set group =>   3
Atom  35H    basis set group =>   3
Atom  36H    basis set group =>   3
Atom  37H    basis set group =>   3
Atom  38H    basis set group =>   3
Atom  39H    basis set group =>   3
Atom  40H    basis set group =>   3

Checking for AutoStart:
The File: N_Me_spiro_piperidine_2_2p_adamantane_b.gbw exists
Trying to determine its content:
     ... Fine, the file contains calculation information
     ... Fine, the calculation information was read
     ... Fine, the file contains a basis set
     ... Fine, the basis set was read
     ... Fine, the file contains a geometry
     ... Fine, the geometry was read
     ... Fine, the file contains a set of orbitals
     ... Fine, the orbitals can be read
     => possible old guess file was deleted
     => GBW file was renamed to GES file
     => GES file is set as startup file
     => Guess is set to MORead
     ... now leaving AutoStart



           ************************************************************
           *        Program running with 4 parallel MPI-processes     *
           *              working on a common directory               *
           ************************************************************
------------------------------------------------------------------------------
                           ORCA GTO INTEGRAL CALCULATION
                           -- RI-GTO INTEGRALS CHOSEN --
------------------------------------------------------------------------------

                         BASIS SET STATISTICS AND STARTUP INFO

Gaussian basis set:
 # of primitive gaussian shells          ...  477
 # of primitive gaussian functions       ...  719
 # of contracted shells                  ...  171
 # of contracted basis functions         ...  349
 Highest angular momentum                ...    2
 Maximum contraction depth               ...    8
Auxiliary gaussian basis set:
 # of primitive gaussian shells          ...  650
 # of primitive gaussian functions       ... 2014
 # of contracted shells                  ...  650
 # of contracted aux-basis functions     ... 2014
 Highest angular momentum                ...    4
 Maximum contraction depth               ...    1
Ratio of auxiliary to basis functions    ...  5.77
Integral package used                  ... LIBINT
 One Electron integrals                  ... done
 Ordering auxiliary basis shells         ... done
 Integral threshhold             Thresh  ...  2.500e-11
 Primitive cut-off               TCut    ...  2.500e-12
 Pre-screening matrix                    ... done
 Shell pair data                         ... 
 Ordering of the shell pairs             ... done (   0.003 sec) 13728 of 14706 pairs
 Determination of significant pairs      ... done (   0.000 sec)
 Creation of shell pair data             ... done (   0.006 sec)
 Storage of shell pair data              ... done (   0.006 sec)
 Shell pair data done in (   0.015 sec)
 Computing two index integrals           ... done
 Cholesky decomposition of the V-matrix  ... done


Timings:
 Total evaluation time                   ...   1.432 sec (  0.024 min)
 One electron matrix time                ...   0.263 sec (  0.004 min) = 18.3%
 Schwartz matrix evaluation time         ...   0.391 sec (  0.007 min) = 27.3%
 Two index repulsion integral time       ...   0.281 sec (  0.005 min) = 19.6%
 Cholesky decomposition of V             ...   0.456 sec (  0.008 min) = 31.8%
 Three index repulsion integral time     ...   0.000 sec (  0.000 min) =  0.0%



           ************************************************************
           *        Program running with 4 parallel MPI-processes     *
           *              working on a common directory               *
           ************************************************************
-------------------------------------------------------------------------------
                                 ORCA SCF
-------------------------------------------------------------------------------

------------
SCF SETTINGS
------------
Hamiltonian:
 Ab initio Hamiltonian  Method          .... Hartree-Fock(GTOs)
 RI-approximation to the Coulomb term is turned on
   Number of auxiliary basis functions  .... 2014
   RI-JK (J+K treated both via RI)      .... on


General Settings:
 Integral files         IntName         .... N_Me_spiro_piperidine_2_2p_adamantane_b
 Hartree-Fock type      HFTyp           .... RHF
 Total Charge           Charge          ....    0
 Multiplicity           Mult            ....    1
 Number of Electrons    NEL             ....  122
 Basis Dimension        Dim             ....  349
 Nuclear Repulsion      ENuc            ....   1286.2084710908 Eh

Convergence Acceleration:
 DIIS                   CNVDIIS         .... off
 Newton-Raphson         CNVNR           .... off
 SOSCF                  CNVSOSCF        .... on
   Start iteration      SOSCFMaxIt      ....   150
   Startup grad/error   SOSCFStart      ....  0.003300
 Level Shifting         CNVShift        .... on
   Level shift para.    LevelShift      ....    0.2000
   Turn off err/grad.   ShiftErr        ....    0.1000
 Zerner damping         CNVZerner       .... off
 Static damping         CNVDamp         .... off
 Fernandez-Rico         CNVRico         .... off

SCF Procedure:
 Maximum # iterations   MaxIter         ....   300
 SCF integral mode      SCFMode         .... Direct
   Integral package                     .... LIBINT
 Reset frequency        DirectResetFreq ....    20
 Integral Threshold     Thresh          ....  2.500e-11 Eh
 Primitive CutOff       TCut            ....  2.500e-12 Eh

Convergence Tolerance:
 Convergence Check Mode ConvCheckMode   .... Total+1el-Energy
 Convergence forced     ConvForced      .... 1
 Energy Change          TolE            ....  1.000e-08 Eh
 1-El. energy change                    ....  1.000e-05 Eh
 Orbital Gradient       TolG            ....  1.000e-05
 Orbital Rotation angle TolX            ....  1.000e-05


Diagonalization of the overlap matrix:
Smallest eigenvalue                        ... 1.312e-03
Time for diagonalization                   ...    0.025 sec
Threshold for overlap eigenvalues          ... 1.000e-08
Number of eigenvalues below threshold      ... 0
Time for construction of square roots      ...    0.028 sec
Total time needed                          ...    0.054 sec

---------------------
INITIAL GUESS: MOREAD
---------------------
Guess MOs are being read from file: N_Me_spiro_piperidine_2_2p_adamantane_b.ges
Input Geometry matches current geometry (good)
Atom 0: N(Shells)= 6 and 10 - projection required
Input basis set needs projection
NBasis(read)= 830
NBasis(calc)= 349
Basis set overlap was calculated
Using GuessMode=FMatrix for the initial guess
C*T matrix was formed
Effective Fockian was calculated
Effective Fockian was diagonalized
Initial density was built
                      ------------------
                      INITIAL GUESS DONE (   0.3 sec)
                      ------------------
--------------
SCF ITERATIONS
--------------
ITER       Energy         Delta-E        Max-DP      RMS-DP      [F,P]   Gradient Norm
                             ****Turning on KDIIS(Cayley)****
                      *** Initiating the SOSCF procedure ***
                           *** Shutting down KDIIS ***
                      *** Re-Reading the Fockian *** 
                      *** Removing any level shift *** 
ITER      Energy       Delta-E        Grad      Rot      Max-DP    RMS-DP
  0   -637.03001595 -637.0300159487  0.002904  0.002904  0.006118  0.000068
  1   -637.03028019  -0.0002642436  0.002639  0.001175  0.050602  0.000602
  2   -637.03148403  -0.0012038426  0.000460  0.000449  0.003693  0.000064
  3   -637.03151567  -0.0000316334  0.000224  0.000163  0.002490  0.000030
  4   -637.03152667  -0.0000110004  0.000026  0.000017  0.000150  0.000004
  5   -637.03152682  -0.0000001479  0.000008  0.000010  0.000037  0.000001
                  ***Gradient check signals convergence***
              ***Rediagonalizing the Fockian in SOSCF/NRSCF***

               *****************************************************
               *                     SUCCESS                       *
               *           SCF CONVERGED AFTER   6 CYCLES          *
               *****************************************************


----------------
TOTAL SCF ENERGY
----------------

Total Energy       :         -637.03152683 Eh          -17334.50911 eV

Components:
Nuclear Repulsion  :         1286.20847109 Eh           34999.51184 eV
Electronic Energy  :        -1923.23999792 Eh          -52334.02095 eV
One Electron Energy:        -3419.43431876 Eh          -93047.53826 eV
Two Electron Energy:         1496.19432084 Eh           40713.51731 eV

Virial components:
Potential Energy   :        -1272.90288573 Eh          -34637.44845 eV
Kinetic Energy     :          635.87135890 Eh           17302.93934 eV
Virial Ratio       :            2.00182453


---------------
SCF CONVERGENCE
---------------

  Last Energy change         ...   -1.4270e-08  Tolerance :   1.0000e-08
  Last MAX-Density change    ...    1.4417e-05  Tolerance :   1.0000e-07
  Last RMS-Density change    ...    3.5649e-07  Tolerance :   5.0000e-09
  Last Orbital Gradient      ...    2.2549e-06  Tolerance :   1.0000e-05
  Last Orbital Rotation      ...    2.4233e-06  Tolerance :   1.0000e-05

             **** THE GBW FILE WAS UPDATED (N_Me_spiro_piperidine_2_2p_adamantane_b.gbw) ****
             **** DENSITY FILE WAS UPDATED (N_Me_spiro_piperidine_2_2p_adamantane_b.scfp.tmp) ****
             **** ENERGY FILE WAS UPDATED (N_Me_spiro_piperidine_2_2p_adamantane_b.en.tmp) ****
----------------
ORBITAL ENERGIES
----------------

  NO   OCC          E(Eh)            E(eV) 
   0   2.0000     -15.541381      -422.9025 
   1   2.0000     -11.263778      -306.5030 
   2   2.0000     -11.248140      -306.0775 
   3   2.0000     -11.245853      -306.0152 
   4   2.0000     -11.232742      -305.6584 
   5   2.0000     -11.223906      -305.4180 
   6   2.0000     -11.223306      -305.4017 
   7   2.0000     -11.221919      -305.3639 
   8   2.0000     -11.221640      -305.3564 
   9   2.0000     -11.220684      -305.3303 
  10   2.0000     -11.219319      -305.2932 
  11   2.0000     -11.217236      -305.2365 
  12   2.0000     -11.215883      -305.1997 
  13   2.0000     -11.215508      -305.1895 
  14   2.0000     -11.214929      -305.1737 
  15   2.0000     -11.211810      -305.0889 
  16   2.0000      -1.228417       -33.4269 
  17   2.0000      -1.151139       -31.3241 
  18   2.0000      -1.063336       -28.9348 
  19   2.0000      -1.036657       -28.2089 
  20   2.0000      -1.030780       -28.0490 
  21   2.0000      -1.025444       -27.9038 
  22   2.0000      -0.956464       -26.0267 
  23   2.0000      -0.926944       -25.2234 
  24   2.0000      -0.894767       -24.3479 
  25   2.0000      -0.862760       -23.4769 
  26   2.0000      -0.836154       -22.7529 
  27   2.0000      -0.794524       -21.6201 
  28   2.0000      -0.785954       -21.3869 
  29   2.0000      -0.775898       -21.1133 
  30   2.0000      -0.728746       -19.8302 
  31   2.0000      -0.684232       -18.6189 
  32   2.0000      -0.654820       -17.8185 
  33   2.0000      -0.653126       -17.7725 
  34   2.0000      -0.621668       -16.9164 
  35   2.0000      -0.610156       -16.6032 
  36   2.0000      -0.598457       -16.2848 
  37   2.0000      -0.587000       -15.9731 
  38   2.0000      -0.583050       -15.8656 
  39   2.0000      -0.574901       -15.6439 
  40   2.0000      -0.567677       -15.4473 
  41   2.0000      -0.549491       -14.9524 
  42   2.0000      -0.545023       -14.8308 
  43   2.0000      -0.535012       -14.5584 
  44   2.0000      -0.529502       -14.4085 
  45   2.0000      -0.519149       -14.1268 
  46   2.0000      -0.517456       -14.0807 
  47   2.0000      -0.512099       -13.9349 
  48   2.0000      -0.494824       -13.4649 
  49   2.0000      -0.480434       -13.0733 
  50   2.0000      -0.473959       -12.8971 
  51   2.0000      -0.458249       -12.4696 
  52   2.0000      -0.454788       -12.3754 
  53   2.0000      -0.454520       -12.3681 
  54   2.0000      -0.445902       -12.1336 
  55   2.0000      -0.438383       -11.9290 
  56   2.0000      -0.425002       -11.5649 
  57   2.0000      -0.402630       -10.9561 
  58   2.0000      -0.397474       -10.8158 
  59   2.0000      -0.389577       -10.6009 
  60   2.0000      -0.328492        -8.9387 
  61   0.0000       0.162683         4.4268 
  62   0.0000       0.186366         5.0713 
  63   0.0000       0.191994         5.2244 
  64   0.0000       0.204600         5.5675 
  65   0.0000       0.215307         5.8588 
  66   0.0000       0.218277         5.9396 
  67   0.0000       0.221322         6.0225 
  68   0.0000       0.225194         6.1278 
  69   0.0000       0.238606         6.4928 
  70   0.0000       0.247186         6.7263 
  71   0.0000       0.252330         6.8663 
  72   0.0000       0.254146         6.9157 
  73   0.0000       0.261837         7.1249 
  74   0.0000       0.266747         7.2586 
  75   0.0000       0.280008         7.6194 
  76   0.0000       0.284858         7.7514 
  77   0.0000       0.288391         7.8475 
  78   0.0000       0.299697         8.1552 
  79   0.0000       0.300568         8.1789 
  80   0.0000       0.313322         8.5259 
  81   0.0000       0.314009         8.5446 
  82   0.0000       0.332057         9.0357 
  83   0.0000       0.340914         9.2767 
  84   0.0000       0.348083         9.4718 
  85   0.0000       0.352150         9.5825 
  86   0.0000       0.363800         9.8995 
  87   0.0000       0.367528        10.0009 
  88   0.0000       0.372405        10.1336 
  89   0.0000       0.385901        10.5009 
  90   0.0000       0.394602        10.7377 
  91   0.0000       0.398144        10.8341 
  92   0.0000       0.401494        10.9252 
  93   0.0000       0.416383        11.3304 
  94   0.0000       0.421068        11.4578 
  95   0.0000       0.428588        11.6625 
  96   0.0000       0.446619        12.1531 
  97   0.0000       0.453268        12.3340 
  98   0.0000       0.461245        12.5511 
  99   0.0000       0.466207        12.6861 
 100   0.0000       0.469619        12.7790 
 101   0.0000       0.483786        13.1645 
 102   0.0000       0.505953        13.7677 
 103   0.0000       0.512126        13.9357 
 104   0.0000       0.540099        14.6968 
 105   0.0000       0.594279        16.1712 
 106   0.0000       0.612488        16.6667 
 107   0.0000       0.620269        16.8784 
 108   0.0000       0.623806        16.9746 
 109   0.0000       0.631286        17.1782 
 110   0.0000       0.646243        17.5852 
 111   0.0000       0.647985        17.6326 
 112   0.0000       0.657965        17.9041 
 113   0.0000       0.667147        18.1540 
 114   0.0000       0.687428        18.7059 
 115   0.0000       0.706162        19.2156 
 116   0.0000       0.723425        19.6854 
 117   0.0000       0.739350        20.1187 
 118   0.0000       0.765681        20.8352 
 119   0.0000       0.774368        21.0716 
 120   0.0000       0.788352        21.4522 
 121   0.0000       0.794858        21.6292 
 122   0.0000       0.807043        21.9608 
 123   0.0000       0.813963        22.1491 
 124   0.0000       0.823159        22.3993 
 125   0.0000       0.825608        22.4659 
 126   0.0000       0.832794        22.6615 
 127   0.0000       0.838404        22.8141 
 128   0.0000       0.844500        22.9800 
 129   0.0000       0.850836        23.1524 
 130   0.0000       0.853816        23.2335 
 131   0.0000       0.856790        23.3144 
 132   0.0000       0.859318        23.3832 
 133   0.0000       0.862871        23.4799 
 134   0.0000       0.870390        23.6845 
 135   0.0000       0.871813        23.7232 
 136   0.0000       0.872649        23.7460 
 137   0.0000       0.875155        23.8142 
 138   0.0000       0.882345        24.0098 
 139   0.0000       0.891638        24.2627 
 140   0.0000       0.892967        24.2989 
 141   0.0000       0.896844        24.4044 
 142   0.0000       0.900135        24.4939 
 143   0.0000       0.901277        24.5250 
 144   0.0000       0.909651        24.7529 
 145   0.0000       0.911543        24.8043 
 146   0.0000       0.918553        24.9951 
 147   0.0000       0.921150        25.0658 
 148   0.0000       0.922130        25.0924 
 149   0.0000       0.927558        25.2401 
 150   0.0000       0.933423        25.3997 
 151   0.0000       0.935309        25.4511 
 152   0.0000       0.937807        25.5190 
 153   0.0000       0.946494        25.7554 
 154   0.0000       0.948825        25.8188 
 155   0.0000       0.957678        26.0597 
 156   0.0000       0.964003        26.2319 
 157   0.0000       0.969613        26.3845 
 158   0.0000       0.970654        26.4128 
 159   0.0000       0.981062        26.6961 
 160   0.0000       0.991500        26.9801 
 161   0.0000       1.002407        27.2769 
 162   0.0000       1.025839        27.9145 
 163   0.0000       1.040873        28.3236 
 164   0.0000       1.054252        28.6877 
 165   0.0000       1.062350        28.9080 
 166   0.0000       1.075167        29.2568 
 167   0.0000       1.091062        29.6893 
 168   0.0000       1.096833        29.8463 
 169   0.0000       1.113822        30.3086 
 170   0.0000       1.137222        30.9454 
 171   0.0000       1.140442        31.0330 
 172   0.0000       1.171246        31.8712 
 173   0.0000       1.181434        32.1484 
 174   0.0000       1.192330        32.4449 
 175   0.0000       1.211346        32.9624 
 176   0.0000       1.224471        33.3196 
 177   0.0000       1.248477        33.9728 
 178   0.0000       1.263237        34.3744 
 179   0.0000       1.280104        34.8334 
 180   0.0000       1.291652        35.1476 
 181   0.0000       1.356048        36.8999 
 182   0.0000       1.367812        37.2201 
 183   0.0000       1.389979        37.8232 
 184   0.0000       1.409725        38.3606 
 185   0.0000       1.414532        38.4914 
 186   0.0000       1.424511        38.7629 
 187   0.0000       1.444227        39.2994 
 188   0.0000       1.458024        39.6748 
 189   0.0000       1.468390        39.9569 
 190   0.0000       1.477272        40.1986 
 191   0.0000       1.496901        40.7327 
 192   0.0000       1.533273        41.7225 
 193   0.0000       1.540768        41.9264 
 194   0.0000       1.567554        42.6553 
 195   0.0000       1.577404        42.9233 
 196   0.0000       1.591341        43.3026 
 197   0.0000       1.601460        43.5779 
 198   0.0000       1.608835        43.7786 
 199   0.0000       1.620273        44.0899 
 200   0.0000       1.643439        44.7203 
 201   0.0000       1.651640        44.9434 
 202   0.0000       1.664289        45.2876 
 203   0.0000       1.674757        45.5725 
 204   0.0000       1.678830        45.6833 
 205   0.0000       1.699471        46.2450 
 206   0.0000       1.707845        46.4728 
 207   0.0000       1.721810        46.8528 
 208   0.0000       1.736892        47.2632 
 209   0.0000       1.747682        47.5569 
 210   0.0000       1.758665        47.8557 
 211   0.0000       1.771578        48.2071 
 212   0.0000       1.776561        48.3427 
 213   0.0000       1.780532        48.4507 
 214   0.0000       1.799985        48.9801 
 215   0.0000       1.804540        49.1040 
 216   0.0000       1.809233        49.2317 
 217   0.0000       1.838004        50.0146 
 218   0.0000       1.844787        50.1992 
 219   0.0000       1.851424        50.3798 
 220   0.0000       1.863840        50.7177 
 221   0.0000       1.877869        51.0994 
 222   0.0000       1.882373        51.2220 
 223   0.0000       1.892565        51.4993 
 224   0.0000       1.897920        51.6450 
 225   0.0000       1.905261        51.8448 
 226   0.0000       1.910646        51.9913 
 227   0.0000       1.915123        52.1132 
 228   0.0000       1.922643        52.3178 
 229   0.0000       1.924540        52.3694 
 230   0.0000       1.928621        52.4804 
 231   0.0000       1.935379        52.6643 
 232   0.0000       1.941538        52.8319 
 233   0.0000       1.951239        53.0959 
 234   0.0000       1.952263        53.1238 
 235   0.0000       1.960897        53.3587 
 236   0.0000       1.965523        53.4846 
 237   0.0000       1.973223        53.6941 
 238   0.0000       1.982454        53.9453 
 239   0.0000       1.986060        54.0435 
 240   0.0000       1.993472        54.2451 
 241   0.0000       2.003556        54.5195 
 242   0.0000       2.008387        54.6510 
 243   0.0000       2.016544        54.8730 
 244   0.0000       2.026265        55.1375 
 245   0.0000       2.039958        55.5101 
 246   0.0000       2.049136        55.7598 
 247   0.0000       2.057197        55.9792 
 248   0.0000       2.065116        56.1947 
 249   0.0000       2.068994        56.3002 
 250   0.0000       2.074303        56.4446 
 251   0.0000       2.079469        56.5852 
 252   0.0000       2.087829        56.8127 
 253   0.0000       2.092463        56.9388 
 254   0.0000       2.098473        57.1023 
 255   0.0000       2.104160        57.2571 
 256   0.0000       2.111711        57.4626 
 257   0.0000       2.113983        57.5244 
 258   0.0000       2.122640        57.7600 
 259   0.0000       2.126859        57.8748 
 260   0.0000       2.139597        58.2214 
 261   0.0000       2.144283        58.3489 
 262   0.0000       2.145514        58.3824 
 263   0.0000       2.154985        58.6401 
 264   0.0000       2.165721        58.9323 
 265   0.0000       2.182379        59.3856 
 266   0.0000       2.183396        59.4132 
 267   0.0000       2.200538        59.8797 
 268   0.0000       2.206983        60.0551 
 269   0.0000       2.219231        60.3883 
 270   0.0000       2.233780        60.7843 
 271   0.0000       2.236674        60.8630 
 272   0.0000       2.247055        61.1455 
 273   0.0000       2.254179        61.3393 
 274   0.0000       2.268323        61.7242 
 275   0.0000       2.279330        62.0237 
 276   0.0000       2.281734        62.0891 
 277   0.0000       2.287957        62.2585 
 278   0.0000       2.291521        62.3555 
 279   0.0000       2.301454        62.6257 
 280   0.0000       2.322931        63.2102 
 281   0.0000       2.342350        63.7386 
 282   0.0000       2.363476        64.3135 
 283   0.0000       2.371316        64.5268 
 284   0.0000       2.389694        65.0269 
 285   0.0000       2.397933        65.2511 
 286   0.0000       2.414336        65.6974 
 287   0.0000       2.421661        65.8968 
 288   0.0000       2.423393        65.9439 
 289   0.0000       2.437256        66.3211 
 290   0.0000       2.441321        66.4317 
 291   0.0000       2.455196        66.8093 
 292   0.0000       2.466488        67.1165 
 293   0.0000       2.481543        67.5262 
 294   0.0000       2.493368        67.8480 
 295   0.0000       2.505795        68.1862 
 296   0.0000       2.518684        68.5369 
 297   0.0000       2.523867        68.6779 
 298   0.0000       2.530803        68.8667 
 299   0.0000       2.531751        68.8925 
 300   0.0000       2.549260        69.3689 
 301   0.0000       2.557722        69.5991 
 302   0.0000       2.573740        70.0350 
 303   0.0000       2.591314        70.5132 
 304   0.0000       2.599399        70.7332 
 305   0.0000       2.609788        71.0160 
 306   0.0000       2.618325        71.2482 
 307   0.0000       2.626189        71.4622 
 308   0.0000       2.630340        71.5752 
 309   0.0000       2.638892        71.8079 
 310   0.0000       2.654344        72.2284 
 311   0.0000       2.661905        72.4341 
 312   0.0000       2.677440        72.8569 
 313   0.0000       2.697091        73.3916 
 314   0.0000       2.725214        74.1568 
 315   0.0000       2.742632        74.6308 
 316   0.0000       2.746745        74.7427 
 317   0.0000       2.755238        74.9739 
 318   0.0000       2.763512        75.1990 
 319   0.0000       2.769567        75.3638 
 320   0.0000       2.791850        75.9701 
 321   0.0000       2.808154        76.4137 
 322   0.0000       2.836600        77.1878 
 323   0.0000       2.844948        77.4150 
 324   0.0000       2.855276        77.6960 
 325   0.0000       2.860631        77.8417 
 326   0.0000       2.885081        78.5070 
 327   0.0000       2.896692        78.8230 
 328   0.0000       2.906488        79.0895 
 329   0.0000       2.912795        79.2612 
 330   0.0000       2.925564        79.6086 
 331   0.0000       2.935268        79.8727 
 332   0.0000       2.951953        80.3267 
 333   0.0000       2.954735        80.4024 
 334   0.0000       2.973040        80.9005 
 335   0.0000       2.985808        81.2480 
 336   0.0000       2.999243        81.6136 
 337   0.0000       3.005008        81.7704 
 338   0.0000       3.013802        82.0097 
 339   0.0000       3.030889        82.4747 
 340   0.0000       3.083324        83.9015 
 341   0.0000       3.101150        84.3866 
 342   0.0000       3.125156        85.0398 
 343   0.0000       3.141650        85.4886 
 344   0.0000       3.156458        85.8916 
 345   0.0000       3.168924        86.2308 
 346   0.0000       3.184835        86.6638 
 347   0.0000       3.257311        88.6359 
 348   0.0000       3.352953        91.2385 

                    ********************************
                    * MULLIKEN POPULATION ANALYSIS *
                    ********************************

-----------------------
MULLIKEN ATOMIC CHARGES
-----------------------
   0 C :   -0.154794
   1 C :    0.058992
   2 C :   -0.110679
   3 C :   -0.044665
   4 C :   -0.052812
   5 C :    0.056378
   6 C :    0.075172
   7 C :   -0.161372
   8 C :    0.065018
   9 C :    0.064175
  10 C :   -0.024224
  11 C :   -0.005909
  12 C :   -0.058797
  13 C :    0.109209
  14 N :   -0.515178
  15 C :    0.101073
  16 H :    0.004485
  17 H :    0.025124
  18 H :    0.027144
  19 H :    0.015734
  20 H :    0.003787
  21 H :    0.021815
  22 H :    0.022670
  23 H :    0.020665
  24 H :    0.035207
  25 H :    0.003233
  26 H :    0.021280
  27 H :    0.022923
  28 H :    0.018859
  29 H :    0.020587
  30 H :    0.031018
  31 H :    0.035950
  32 H :    0.029002
  33 H :    0.028946
  34 H :    0.025710
  35 H :    0.028630
  36 H :    0.027440
  37 H :    0.032785
  38 H :    0.033287
  39 H :    0.037953
  40 H :    0.024180
Sum of atomic charges:    0.0000000

--------------------------------
MULLIKEN REDUCED ORBITAL CHARGES
--------------------------------
  0 C s       :     3.157567  s :     3.157567
      pz      :     0.961352  p :     2.894386
      px      :     0.960319
      py      :     0.972715
      dz2     :     0.026186  d :     0.102842
      dxz     :     0.027855
      dyz     :     0.010426
      dx2y2   :     0.012164
      dxy     :     0.026211
  1 C s       :     3.019570  s :     3.019570
      pz      :     0.951227  p :     2.841734
      px      :     0.945038
      py      :     0.945468
      dz2     :     0.018116  d :     0.079704
      dxz     :     0.022020
      dyz     :     0.005723
      dx2y2   :     0.012259
      dxy     :     0.021586
  2 C s       :     3.124276  s :     3.124276
      pz      :     0.949566  p :     2.890241
      px      :     0.943705
      py      :     0.996970
      dz2     :     0.019470  d :     0.096163
      dxz     :     0.026655
      dyz     :     0.008595
      dx2y2   :     0.014363
      dxy     :     0.027080
  3 C s       :     3.096607  s :     3.096607
      pz      :     1.034042  p :     2.810722
      px      :     0.853039
      py      :     0.923641
      dz2     :     0.026286  d :     0.137336
      dxz     :     0.035643
      dyz     :     0.016170
      dx2y2   :     0.023078
      dxy     :     0.036158
  4 C s       :     3.122205  s :     3.122205
      pz      :     0.954216  p :     2.833211
      px      :     0.914011
      py      :     0.964984
      dz2     :     0.020528  d :     0.097397
      dxz     :     0.023762
      dyz     :     0.008222
      dx2y2   :     0.016194
      dxy     :     0.028690
  5 C s       :     3.018415  s :     3.018415
      pz      :     0.939374  p :     2.845626
      px      :     0.952535
      py      :     0.953718
      dz2     :     0.017998  d :     0.079581
      dxz     :     0.022904
      dyz     :     0.007005
      dx2y2   :     0.011262
      dxy     :     0.020412
  6 C s       :     3.012237  s :     3.012237
      pz      :     0.931777  p :     2.833534
      px      :     0.941958
      py      :     0.959800
      dz2     :     0.017571  d :     0.079056
      dxz     :     0.022669
      dyz     :     0.006837
      dx2y2   :     0.010351
      dxy     :     0.021628
  7 C s       :     3.158710  s :     3.158710
      pz      :     0.965321  p :     2.899335
      px      :     0.964276
      py      :     0.969738
      dz2     :     0.025829  d :     0.103326
      dxz     :     0.028652
      dyz     :     0.010089
      dx2y2   :     0.012375
      dxy     :     0.026382
  8 C s       :     3.012887  s :     3.012887
      pz      :     0.945830  p :     2.842179
      px      :     0.948690
      py      :     0.947659
      dz2     :     0.018173  d :     0.079916
      dxz     :     0.022119
      dyz     :     0.006267
      dx2y2   :     0.011964
      dxy     :     0.021394
  9 C s       :     3.025726  s :     3.025726
      pz      :     0.957464  p :     2.829894
      px      :     0.932510
      py      :     0.939919
      dz2     :     0.014003  d :     0.080205
      dxz     :     0.021992
      dyz     :     0.006301
      dx2y2   :     0.015106
      dxy     :     0.022803
 10 C s       :     3.053555  s :     3.053555
      pz      :     0.980031  p :     2.891458
      px      :     0.950633
      py      :     0.960794
      dz2     :     0.020870  d :     0.079211
      dxz     :     0.016282
      dyz     :     0.007576
      dx2y2   :     0.013287
      dxy     :     0.021196
 11 C s       :     3.042851  s :     3.042851
      pz      :     0.978848  p :     2.881736
      px      :     0.933394
      py      :     0.969494
      dz2     :     0.021537  d :     0.081322
      dxz     :     0.016125
      dyz     :     0.006410
      dx2y2   :     0.015177
      dxy     :     0.022074
 12 C s       :     3.064991  s :     3.064991
      pz      :     0.983329  p :     2.914433
      px      :     0.980884
      py      :     0.950221
      dz2     :     0.013873  d :     0.079373
      dxz     :     0.012518
      dyz     :     0.021461
      dx2y2   :     0.013781
      dxy     :     0.017740
 13 C s       :     3.034363  s :     3.034363
      pz      :     0.974797  p :     2.746339
      px      :     0.808098
      py      :     0.963444
      dz2     :     0.021115  d :     0.110089
      dxz     :     0.022194
      dyz     :     0.021590
      dx2y2   :     0.018240
      dxy     :     0.026951
 14 N s       :     3.568261  s :     3.568261
      pz      :     1.521147  p :     3.902567
      px      :     1.166904
      py      :     1.214517
      dz2     :     0.007498  d :     0.044349
      dxz     :     0.005542
      dyz     :     0.009839
      dx2y2   :     0.009162
      dxy     :     0.012308
 15 C s       :     3.019590  s :     3.019590
      pz      :     0.893662  p :     2.792114
      px      :     1.014612
      py      :     0.883840
      dz2     :     0.027611  d :     0.087223
      dxz     :     0.005574
      dyz     :     0.022731
      dx2y2   :     0.009473
      dxy     :     0.021833
 16 H s       :     0.968425  s :     0.968425
      pz      :     0.003341  p :     0.027090
      px      :     0.009385
      py      :     0.014364
 17 H s       :     0.945914  s :     0.945914
      pz      :     0.004732  p :     0.028962
      px      :     0.007762
      py      :     0.016468
 18 H s       :     0.944519  s :     0.944519
      pz      :     0.015779  p :     0.028337
      px      :     0.008384
      py      :     0.004175
 19 H s       :     0.957492  s :     0.957492
      pz      :     0.013947  p :     0.026775
      px      :     0.009543
      py      :     0.003285
 20 H s       :     0.969584  s :     0.969584
      pz      :     0.016560  p :     0.026629
      px      :     0.006952
      py      :     0.003117
 21 H s       :     0.949490  s :     0.949490
      pz      :     0.004505  p :     0.028695
      px      :     0.007825
      py      :     0.016364
 22 H s       :     0.949042  s :     0.949042
      pz      :     0.013302  p :     0.028288
      px      :     0.010819
      py      :     0.004168
 23 H s       :     0.951124  s :     0.951124
      pz      :     0.013898  p :     0.028211
      px      :     0.010241
      py      :     0.004073
 24 H s       :     0.935937  s :     0.935937
      pz      :     0.004100  p :     0.028856
      px      :     0.010243
      py      :     0.014513
 25 H s       :     0.969688  s :     0.969688
      pz      :     0.003328  p :     0.027079
      px      :     0.008509
      py      :     0.015242
 26 H s       :     0.950278  s :     0.950278
      pz      :     0.015418  p :     0.028442
      px      :     0.008755
      py      :     0.004268
 27 H s       :     0.947341  s :     0.947341
      pz      :     0.004928  p :     0.029736
      px      :     0.008225
      py      :     0.016583
 28 H s       :     0.953017  s :     0.953017
      pz      :     0.015561  p :     0.028124
      px      :     0.008952
      py      :     0.003612
 29 H s       :     0.951211  s :     0.951211
      pz      :     0.013942  p :     0.028203
      px      :     0.010641
      py      :     0.003620
 30 H s       :     0.940841  s :     0.940841
      pz      :     0.018837  p :     0.028141
      px      :     0.004595
      py      :     0.004708
 31 H s       :     0.934706  s :     0.934706
      pz      :     0.006094  p :     0.029344
      px      :     0.009078
      py      :     0.014172
 32 H s       :     0.942464  s :     0.942464
      pz      :     0.004761  p :     0.028534
      px      :     0.007650
      py      :     0.016123
 33 H s       :     0.942714  s :     0.942714
      pz      :     0.019163  p :     0.028340
      px      :     0.004973
      py      :     0.004203
 34 H s       :     0.945748  s :     0.945748
      pz      :     0.005785  p :     0.028542
      px      :     0.016891
      py      :     0.005866
 35 H s       :     0.942949  s :     0.942949
      pz      :     0.015042  p :     0.028421
      px      :     0.004898
      py      :     0.008482
 36 H s       :     0.944782  s :     0.944782
      pz      :     0.016704  p :     0.027778
      px      :     0.002823
      py      :     0.008252
 37 H s       :     0.939124  s :     0.939124
      pz      :     0.005384  p :     0.028091
      px      :     0.009168
      py      :     0.013538
 38 H s       :     0.937440  s :     0.937440
      pz      :     0.004512  p :     0.029273
      px      :     0.015186
      py      :     0.009575
 39 H s       :     0.932900  s :     0.932900
      pz      :     0.004022  p :     0.029147
      px      :     0.014120
      py      :     0.011004
 40 H s       :     0.947223  s :     0.947223
      pz      :     0.017977  p :     0.028597
      px      :     0.004963
      py      :     0.005658


                     *******************************
                     * LOEWDIN POPULATION ANALYSIS *
                     *******************************

----------------------
LOEWDIN ATOMIC CHARGES
----------------------
   0 C :   -0.036641
   1 C :   -0.016974
   2 C :   -0.027308
   3 C :   -0.015773
   4 C :   -0.025770
   5 C :   -0.025268
   6 C :   -0.020554
   7 C :   -0.037730
   8 C :   -0.022859
   9 C :   -0.022882
  10 C :   -0.031984
  11 C :   -0.036052
  12 C :   -0.049549
  13 C :   -0.018683
  14 N :   -0.025128
  15 C :   -0.027477
  16 H :    0.017290
  17 H :    0.014814
  18 H :    0.021804
  19 H :    0.014155
  20 H :    0.015990
  21 H :    0.015675
  22 H :    0.019439
  23 H :    0.017715
  24 H :    0.021285
  25 H :    0.017327
  26 H :    0.019914
  27 H :    0.015433
  28 H :    0.015407
  29 H :    0.016209
  30 H :    0.020823
  31 H :    0.021226
  32 H :    0.022630
  33 H :    0.017797
  34 H :    0.021373
  35 H :    0.018488
  36 H :    0.015555
  37 H :    0.020687
  38 H :    0.021381
  39 H :    0.014768
  40 H :    0.003447

-------------------------------
LOEWDIN REDUCED ORBITAL CHARGES
-------------------------------
  0 C s       :     2.791993  s :     2.791993
      pz      :     0.997538  p :     2.998416
      px      :     0.997901
      py      :     1.002977
      dz2     :     0.062022  d :     0.246232
      dxz     :     0.063807
      dyz     :     0.024227
      dx2y2   :     0.029246
      dxy     :     0.066929
  1 C s       :     2.797743  s :     2.797743
      pz      :     1.009497  p :     3.015648
      px      :     1.004596
      py      :     1.001555
      dz2     :     0.048262  d :     0.203583
      dxz     :     0.055004
      dyz     :     0.014274
      dx2y2   :     0.032152
      dxy     :     0.053891
  2 C s       :     2.797450  s :     2.797450
      pz      :     0.998983  p :     2.996985
      px      :     0.992511
      py      :     1.005491
      dz2     :     0.046933  d :     0.232873
      dxz     :     0.068512
      dyz     :     0.021748
      dx2y2   :     0.034724
      dxy     :     0.060957
  3 C s       :     2.800824  s :     2.800824
      pz      :     1.017735  p :     2.902754
      px      :     0.943788
      py      :     0.941231
      dz2     :     0.056734  d :     0.312195
      dxz     :     0.081176
      dyz     :     0.038848
      dx2y2   :     0.053641
      dxy     :     0.081796
  4 C s       :     2.801095  s :     2.801095
      pz      :     1.000159  p :     2.985766
      px      :     0.990492
      py      :     0.995115
      dz2     :     0.051661  d :     0.238910
      dxz     :     0.061356
      dyz     :     0.020555
      dx2y2   :     0.039039
      dxy     :     0.066299
  5 C s       :     2.796570  s :     2.796570
      pz      :     1.002216  p :     3.023715
      px      :     1.011654
      py      :     1.009845
      dz2     :     0.046328  d :     0.204983
      dxz     :     0.059052
      dyz     :     0.017781
      dx2y2   :     0.030883
      dxy     :     0.050939
  6 C s       :     2.796303  s :     2.796303
      pz      :     0.999799  p :     3.020867
      px      :     1.011154
      py      :     1.009914
      dz2     :     0.046419  d :     0.203384
      dxz     :     0.057702
      dyz     :     0.017149
      dx2y2   :     0.026843
      dxy     :     0.055271
  7 C s       :     2.791316  s :     2.791316
      pz      :     0.999447  p :     2.999121
      px      :     0.998277
      py      :     1.001398
      dz2     :     0.061175  d :     0.247293
      dxz     :     0.065270
      dyz     :     0.023534
      dx2y2   :     0.030216
      dxy     :     0.067098
  8 C s       :     2.794877  s :     2.794877
      pz      :     1.006162  p :     3.022122
      px      :     1.010060
      py      :     1.005900
      dz2     :     0.048439  d :     0.205860
      dxz     :     0.055940
      dyz     :     0.015822
      dx2y2   :     0.031994
      dxy     :     0.053664
  9 C s       :     2.799152  s :     2.799152
      pz      :     1.020977  p :     3.017589
      px      :     0.995132
      py      :     1.001479
      dz2     :     0.033629  d :     0.206141
      dxz     :     0.063185
      dyz     :     0.017011
      dx2y2   :     0.037572
      dxy     :     0.054744
 10 C s       :     2.799713  s :     2.799713
      pz      :     1.023479  p :     3.032028
      px      :     1.004427
      py      :     1.004122
      dz2     :     0.053516  d :     0.200243
      dxz     :     0.037809
      dyz     :     0.020852
      dx2y2   :     0.033270
      dxy     :     0.054796
 11 C s       :     2.796260  s :     2.796260
      pz      :     1.020914  p :     3.036363
      px      :     1.003092
      py      :     1.012358
      dz2     :     0.056756  d :     0.203428
      dxz     :     0.038953
      dyz     :     0.014541
      dx2y2   :     0.037561
      dxy     :     0.055616
 12 C s       :     2.802645  s :     2.802645
      pz      :     1.025450  p :     3.046134
      px      :     1.010807
      py      :     1.009876
      dz2     :     0.034960  d :     0.200770
      dxz     :     0.030944
      dyz     :     0.054221
      dx2y2   :     0.035611
      dxy     :     0.045033
 13 C s       :     2.801697  s :     2.801697
      pz      :     1.013318  p :     2.947954
      px      :     0.914216
      py      :     1.020420
      dz2     :     0.052000  d :     0.269032
      dxz     :     0.053937
      dyz     :     0.054526
      dx2y2   :     0.041750
      dxy     :     0.066819
 14 N s       :     3.076066  s :     3.076066
      pz      :     1.466416  p :     3.853064
      px      :     1.176558
      py      :     1.210090
      dz2     :     0.014157  d :     0.095998
      dxz     :     0.012451
      dyz     :     0.020540
      dx2y2   :     0.021768
      dxy     :     0.027081
 15 C s       :     2.808793  s :     2.808793
      pz      :     0.979072  p :     2.993875
      px      :     1.056469
      py      :     0.958333
      dz2     :     0.077105  d :     0.224809
      dxz     :     0.013726
      dyz     :     0.051635
      dx2y2   :     0.021169
      dxy     :     0.061174
 16 H s       :     0.908172  s :     0.908172
      pz      :     0.015101  p :     0.074538
      px      :     0.025415
      py      :     0.034023
 17 H s       :     0.907703  s :     0.907703
      pz      :     0.016031  p :     0.077484
      px      :     0.022417
      py      :     0.039036
 18 H s       :     0.903242  s :     0.903242
      pz      :     0.037369  p :     0.074954
      px      :     0.023220
      py      :     0.014365
 19 H s       :     0.908337  s :     0.908337
      pz      :     0.034935  p :     0.077508
      px      :     0.026304
      py      :     0.016269
 20 H s       :     0.908856  s :     0.908856
      pz      :     0.039165  p :     0.075154
      px      :     0.020761
      py      :     0.015228
 21 H s       :     0.907717  s :     0.907717
      pz      :     0.015763  p :     0.076608
      px      :     0.022457
      py      :     0.038388
 22 H s       :     0.905700  s :     0.905700
      pz      :     0.032530  p :     0.074861
      px      :     0.027567
      py      :     0.014764
 23 H s       :     0.907491  s :     0.907491
      pz      :     0.033635  p :     0.074794
      px      :     0.026274
      py      :     0.014885
 24 H s       :     0.902057  s :     0.902057
      pz      :     0.014789  p :     0.076658
      px      :     0.026489
      py      :     0.035379
 25 H s       :     0.908293  s :     0.908293
      pz      :     0.015082  p :     0.074380
      px      :     0.023802
      py      :     0.035497
 26 H s       :     0.905026  s :     0.905026
      pz      :     0.036543  p :     0.075059
      px      :     0.023853
      py      :     0.014664
 27 H s       :     0.904214  s :     0.904214
      pz      :     0.016553  p :     0.080353
      px      :     0.023773
      py      :     0.040027
 28 H s       :     0.910042  s :     0.910042
      pz      :     0.035552  p :     0.074551
      px      :     0.023631
      py      :     0.015368
 29 H s       :     0.909118  s :     0.909118
      pz      :     0.032397  p :     0.074672
      px      :     0.026948
      py      :     0.015327
 30 H s       :     0.902358  s :     0.902358
      pz      :     0.043013  p :     0.076819
      px      :     0.017459
      py      :     0.016346
 31 H s       :     0.898689  s :     0.898689
      pz      :     0.018535  p :     0.080085
      px      :     0.026388
      py      :     0.035162
 32 H s       :     0.902988  s :     0.902988
      pz      :     0.015416  p :     0.074382
      px      :     0.021723
      py      :     0.037244
 33 H s       :     0.907083  s :     0.907083
      pz      :     0.042952  p :     0.075119
      px      :     0.017425
      py      :     0.014742
 34 H s       :     0.903810  s :     0.903810
      pz      :     0.017953  p :     0.074818
      px      :     0.038565
      py      :     0.018299
 35 H s       :     0.905920  s :     0.905920
      pz      :     0.035526  p :     0.075593
      px      :     0.015819
      py      :     0.024248
 36 H s       :     0.910739  s :     0.910739
      pz      :     0.039399  p :     0.073706
      px      :     0.011545
      py      :     0.022762
 37 H s       :     0.906713  s :     0.906713
      pz      :     0.016621  p :     0.072599
      px      :     0.023352
      py      :     0.032626
 38 H s       :     0.905207  s :     0.905207
      pz      :     0.013232  p :     0.073412
      px      :     0.036002
      py      :     0.024178
 39 H s       :     0.909200  s :     0.909200
      pz      :     0.013038  p :     0.076032
      px      :     0.034524
      py      :     0.028470
 40 H s       :     0.920639  s :     0.920639
      pz      :     0.043789  p :     0.075914
      px      :     0.015467
      py      :     0.016658


                      *****************************
                      * MAYER POPULATION ANALYSIS *
                      *****************************

  NA   - Mulliken gross atomic population
  ZA   - Total nuclear charge
  QA   - Mulliken gross atomic charge
  VA   - Mayer's total valence
  BVA  - Mayer's bonded valence
  FA   - Mayer's free valence

  ATOM       NA         ZA         QA         VA         BVA        FA
  0 C      6.1548     6.0000    -0.1548     4.0178     4.0178    -0.0000
  1 C      5.9410     6.0000     0.0590     3.9199     3.9199    -0.0000
  2 C      6.1107     6.0000    -0.1107     3.9454     3.9454     0.0000
  3 C      6.0447     6.0000    -0.0447     3.8738     3.8738    -0.0000
  4 C      6.0528     6.0000    -0.0528     3.9452     3.9452     0.0000
  5 C      5.9436     6.0000     0.0564     3.8990     3.8990    -0.0000
  6 C      5.9248     6.0000     0.0752     3.9108     3.9108     0.0000
  7 C      6.1614     6.0000    -0.1614     4.0221     4.0221     0.0000
  8 C      5.9350     6.0000     0.0650     3.9044     3.9044     0.0000
  9 C      5.9358     6.0000     0.0642     3.9054     3.9054     0.0000
 10 C      6.0242     6.0000    -0.0242     3.9708     3.9708    -0.0000
 11 C      6.0059     6.0000    -0.0059     3.9816     3.9816     0.0000
 12 C      6.0588     6.0000    -0.0588     3.9689     3.9689     0.0000
 13 C      5.8908     6.0000     0.1092     3.9866     3.9866    -0.0000
 14 N      7.5152     7.0000    -0.5152     2.9511     2.9511     0.0000
 15 C      5.8989     6.0000     0.1011     3.9132     3.9132     0.0000
 16 H      0.9955     1.0000     0.0045     0.9745     0.9745    -0.0000
 17 H      0.9749     1.0000     0.0251     0.9707     0.9707    -0.0000
 18 H      0.9729     1.0000     0.0271     0.9724     0.9724     0.0000
 19 H      0.9843     1.0000     0.0157     0.9729     0.9729     0.0000
 20 H      0.9962     1.0000     0.0038     0.9817     0.9817    -0.0000
 21 H      0.9782     1.0000     0.0218     0.9730     0.9730    -0.0000
 22 H      0.9773     1.0000     0.0227     0.9726     0.9726    -0.0000
 23 H      0.9793     1.0000     0.0207     0.9704     0.9704    -0.0000
 24 H      0.9648     1.0000     0.0352     0.9797     0.9797     0.0000
 25 H      0.9968     1.0000     0.0032     0.9748     0.9748    -0.0000
 26 H      0.9787     1.0000     0.0213     0.9726     0.9726    -0.0000
 27 H      0.9771     1.0000     0.0229     0.9772     0.9772     0.0000
 28 H      0.9811     1.0000     0.0189     0.9705     0.9705    -0.0000
 29 H      0.9794     1.0000     0.0206     0.9719     0.9719    -0.0000
 30 H      0.9690     1.0000     0.0310     0.9675     0.9675    -0.0000
 31 H      0.9641     1.0000     0.0359     0.9756     0.9756    -0.0000
 32 H      0.9710     1.0000     0.0290     0.9668     0.9668     0.0000
 33 H      0.9711     1.0000     0.0289     0.9644     0.9644     0.0000
 34 H      0.9743     1.0000     0.0257     0.9674     0.9674     0.0000
 35 H      0.9714     1.0000     0.0286     0.9701     0.9701     0.0000
 36 H      0.9726     1.0000     0.0274     0.9680     0.9680    -0.0000
 37 H      0.9672     1.0000     0.0328     0.9760     0.9760    -0.0000
 38 H      0.9667     1.0000     0.0333     0.9804     0.9804     0.0000
 39 H      0.9620     1.0000     0.0380     0.9690     0.9690     0.0000
 40 H      0.9758     1.0000     0.0242     0.9614     0.9614    -0.0000

  Mayer bond orders larger than 0.1
B(  0-C ,  1-C ) :   1.0216 B(  0-C ,  5-C ) :   1.0188 B(  0-C ,  9-C ) :   1.0225 
B(  0-C , 16-H ) :   0.9678 B(  1-C ,  2-C ) :   1.0331 B(  1-C , 17-H ) :   0.9691 
B(  1-C , 18-H ) :   0.9658 B(  2-C ,  3-C ) :   0.9724 B(  2-C ,  8-C ) :   1.0295 
B(  2-C , 19-H ) :   0.9546 B(  3-C ,  4-C ) :   0.9993 B(  3-C , 10-C ) :   1.0440 
B(  3-C , 14-N ) :   0.9209 B(  4-C ,  5-C ) :   1.0218 B(  4-C ,  6-C ) :   1.0335 
B(  4-C , 20-H ) :   0.9516 B(  5-C , 21-H ) :   0.9679 B(  5-C , 22-H ) :   0.9652 
B(  6-C ,  7-C ) :   1.0218 B(  6-C , 23-H ) :   0.9660 B(  6-C , 24-H ) :   0.9631 
B(  7-C ,  8-C ) :   1.0195 B(  7-C ,  9-C ) :   1.0228 B(  7-C , 25-H ) :   0.9676 
B(  8-C , 26-H ) :   0.9676 B(  8-C , 27-H ) :   0.9708 B(  9-C , 28-H ) :   0.9667 
B(  9-C , 29-H ) :   0.9671 B( 10-C , 11-C ) :   1.0683 B( 10-C , 30-H ) :   0.9551 
B( 10-C , 31-H ) :   0.9571 B( 11-C , 12-C ) :   1.0213 B( 11-C , 32-H ) :   0.9710 
B( 11-C , 33-H ) :   0.9652 B( 12-C , 13-C ) :   1.0488 B( 12-C , 34-H ) :   0.9690 
B( 12-C , 35-H ) :   0.9671 B( 13-C , 14-N ) :   1.0144 B( 13-C , 36-H ) :   0.9689 
B( 13-C , 37-H ) :   0.9795 B( 14-N , 15-C ) :   1.0046 B( 15-C , 38-H ) :   0.9862 
B( 15-C , 39-H ) :   0.9851 B( 15-C , 40-H ) :   0.9712 

-------
TIMINGS
-------

Total SCF time: 0 days 0 hours 1 min 47 sec 

Total time                  ....     107.648 sec
Sum of individual times     ....     107.381 sec  ( 99.8%)

Fock matrix formation       ....     106.911 sec  ( 99.3%)
Diagonalization             ....       0.019 sec  (  0.0%)
Density matrix formation    ....       0.012 sec  (  0.0%)
Population analysis         ....       0.080 sec  (  0.1%)
Initial guess               ....       0.251 sec  (  0.2%)
Orbital Transformation      ....       0.000 sec  (  0.0%)
Orbital Orthonormalization  ....       0.000 sec  (  0.0%)
DIIS solution               ....       0.000 sec  (  0.0%)
SOSCF solution              ....       0.109 sec  (  0.1%)


           ************************************************************
           *        Program running with 4 parallel MPI-processes     *
           *              working on a common directory               *
           ************************************************************


------------------------------------------------------------------------------- 
                              ORCA-MATRIX DRIVEN CI                            
------------------------------------------------------------------------------- 


Wavefunction type
-----------------
Correlation treatment                      ...      CCSD     
Single excitations                         ... ON
Orbital optimization                       ... OFF
Calculation of Z vector                    ... OFF
Calculation of Brueckner orbitals          ... OFF
Perturbative triple excitations            ... ON
Calculation of F12 correction              ... OFF
Frozen core treatment                      ... chemical core (32 el)
Reference Wavefunction                     ... RHF
  Internal Orbitals:    16 ...   60 ( 45 MO's/ 90 electrons)
  Virtual  Orbitals:    61 ...  348 (288 MO's              )
Number of AO's                             ...    349
Number of electrons                        ...    122
Number of correlated electrons             ...     90

Algorithmic settings
--------------------
Integral transformation                    ... All integrals via the RI transformation
K(C) Formation                             ... RI-DLPNO
   PNO-Integral Storage                    ... ON DISK
   PNO occupation number cut-off           ... 1.000e-07
   Singles PNO occupation number cut-off   ... 3.000e-09
   PNO Mulliken prescreening cut-off       ... 1.000e-03
   Domain cut-off (Mulliken population)    ... 1.000e-03
   PNO Normalization                       ...    1
Maximum number of iterations               ...        50
Convergence tolerance (max. residuum)      ... 1.000e-05
Level shift for amplitude update           ... 2.000e-01
Maximum number of DIIS vectors             ...         7
DIIS turned on at iteration                ...         0
Damping before turning on DIIS             ...     0.500
Damping after turning on DIIS              ...     0.000
Pair specific amplitude update             ... OFF
Natural orbital iterations                 ... OFF
Perturbative natural orbital generation    ... OFF
Printlevel                                 ... 2

Singles Fock matrix elements calculated using PNOs.

Memory handling:
----------------
Maximum memory for working arrays          ...   8000 MB
Data storage in matrix containers          ... UNCOMPRESSED
Data type for integral storage             ... DOUBLE
In-Core Storage of quantities:
   Amplitudes+Sigma Vector      ... NO
   J+K operators                ... NO
   DIIS vectors                 ... NO
   3-external integrals         ... NO
   4-external integrals         ... NO

Localization treatment:
-----------------------
Localization option                        ...    6
Localization threshhold                    ... -1.0e+00
Using relative localization threshhold     ... 1.0e-08
Neglect threshold for strong pairs         ... 1.000e-05 Eh
[...]
    TCutPNO            =        1.000e-07
    TCutPNOSingles     =        3.000e-09
    TCutMP2Pairs       =        1.000e-06
    TCutMKN            =        1.000e-03
    TCutDO             =        5.000e-03

Pair selection                          .... not used
Type of local MP2 treatment                 .... full local PMP2
Strategy for PNO selection                  .... occupation number selection
Pair density normalization                  .... MP2 norm
Spin component scaling                      .... not used

PASS-1: Formation of initial guess LMP2 amplitudes
Initial amplitudes guess done. Entering LMP2 iteration loop:
   Max. no of iterations          ...  50
   Energy convergence tolerance   ...    1.0e-07
   Residual convergence tolerance ...    5.0e-07
   Fock matrix cutoff             ...    1.0e-05 Eh
   DIIS convergence acceleration parameters:
        Max # vectors in DIIS     ... 7
        Start iteration of DIIS   ... 0
        Levelshift                ... 2.000e-01
        Damping factor 1          ... 5.000e-01
        Damping factor 2          ... 1.000e+00
   L-MP2 PNO cut-off              ...   1.0e-09
   L-MP2 PNO cut-off (core)       ...   1.0e-11
                           *** Turning on DIIS ***
LMP2-Iter=   0:  ELMP2= -2.272740634684  DE=   5.2e-02 RMAX=   3.6e-03
LMP2-Iter=   1:  ELMP2= -2.297860127743  DE=   2.5e-02 RMAX=   1.9e-03
LMP2-Iter=   2:  ELMP2= -2.301739709813  DE=   3.9e-03 RMAX=   2.9e-04
LMP2-Iter=   3:  ELMP2= -2.302023067029  DE=   2.8e-04 RMAX=   1.1e-04
LMP2-Iter=   4:  ELMP2= -2.302028788415  DE=   5.7e-06 RMAX=   1.2e-05
LMP2-Iter=   5:  ELMP2= -2.302025771760  DE=   3.0e-06 RMAX=   4.5e-06
LMP2-Iter=   6:  ELMP2= -2.302025504385  DE=   2.7e-07 RMAX=   4.8e-07
LMP2-Iter=   7:  ELMP2= -2.302025485942  DE=   1.8e-08 RMAX=   1.4e-07
LMP2-Iter=   8:  ELMP2= -2.302025490823  DE=   4.9e-09 RMAX=   2.2e-08 => CONVERGED
PASS-2: Formation of Pair natural orbitals
   .... Finished loop over pairs

 PNO Occupation Number Statistics: 
  | Av. % of trace(Dij) retained        ...  98.948101007383
  | sigma^2 in % of trace(Dij) retained ...   1.97e+00
  | Av. % of trace(Di) retained         ...  99.999806830904
  | sigma^2 in % of trace(Di) retained  ...   4.00e-09
 Distributions of % trace(Dij) recovered:
  |       >= 99.9  ...   216 ( 20.9 % of all pairs)
  |   [70.0, 80.0) ...     1 (  0.1 % of all pairs)
  |   [80.0, 90.0) ...     2 (  0.2 % of all pairs)
  |   [90.0, 99.0) ...   394 ( 38.1 % of all pairs)
  |   [99.0, 99.9) ...   421 ( 40.7 % of all pairs)
 Distributions of % trace(Di) recovered :
  |       >= 99.9  ...    45 (100.0 % of all I-pairs )

Making pair pair interaction lists          ... done

                       ===========================
                        888 OF 1034 PAIRS ARE KEPT
                       ===========================

Total time spent in the initial guess                 ...    93.225 sec
L-MP2 correlation energy (all non-screened pairs)     ...      -2.302025490823 Eh
L-MP2 PNO error correction                            ...      -0.000050954301 Eh
                                                          --------------------
Initial total L-MP2 energy (non-screened pairs)       ...      -2.302076445124 Eh

Initial PNO correlation energy                        ...      -2.299555157260 Eh
sum of pair energies estimated for screened out pairs ...      -0.000000997939 Eh
sum of MP2 pair energies for pairs that were not kept ...      -0.000999356297 Eh
sum of PNO error estimates for the kept pairs         ...      -0.001777155440 Eh
                                                          --------------------
sum of all corrections                                         -0.002777509676
Initial total correlation energy                               -2.302332666937
Thresholds for map construction and integral transformation for fine MP2 and CCSD(T) calculation:
   TCutMKN   ...     1.0e-03
   TCutDO    ...     5.0e-03
   TCutPairs ...     1.0e-05
   TCutCMO   ...     1.0e-03
   TCutCPAO  ...     1.0e-03

Time for aux screen maps:            0.031
Time for maps after fine MP2:            0.102
-----------------------------
LOCAL RI TRANSFORMATION (IJV)
-----------------------------

Orbital window:      16 to 60
Basis functions:    349 (171 shells)
Aux. functions:    1246 (438 shells)

Processing maps (0.0 sec)
Average map sizes:
   Aux shells -> MOs(i)           45.0
   Aux shells -> MOs(j)           45.0
   MOs        -> AO shells       154.8

Calculating integrals (1.9 sec, 19.255 MB)
Sorting integrals (0.1 sec, 19.241 MB)
Total time for the integral transformation: 2.0 sec
--------------------------------
LOCAL RI TRANSFORMATION (VABPAO)
--------------------------------

Number of PAOs:     349
Basis functions:    349 (171 shells)
Aux. functions:    1246 (438 shells)

Processing maps (0.0 sec)
Average map sizes:
   Aux shells -> PAOs            349.0
   PAOs       -> AO shells       169.6

Calculating integrals (4.9 sec, 2055.566 MB)
Finished


-------------------------------------
Pair Pair Term precalculation with     
RI-(ij|mn) and (im|jn) transformation  
ON THE FLY                             
-------------------------------------

   IBatch   1 (of   6)              ... done (   50.941 sec)
   IBatch   2 (of   6)              ... done (   55.321 sec)
   IBatch   3 (of   6)              ... done (   55.921 sec)
   IBatch   4 (of   6)              ... done (   63.279 sec)
   IBatch   5 (of   6)              ... done (   71.340 sec)
   IBatch   6 (of   6)              ... done (   55.091 sec)
Total EXT                           ...         351.893 sec

---------------------
RI-PNO TRANSFORMATION
---------------------

Total Number of PNOs                   ... 21955
Average number of PNOs per pair        ...    24
Maximal number of PNOs per pair        ...    47
   #pairs with  1 -  5 PNOs   :    0
   #pairs with  6 - 10 PNOs   :  138
   #pairs with 11 - 15 PNOs   :  114
   #pairs with 16 - 20 PNOs   :   64
   #pairs with 21 - 25 PNOs   :  163
   #pairs with 26 - 30 PNOs   :  113
   #pairs with 31 - 35 PNOs   :  100
   #pairs with 36 - 40 PNOs   :  135
   #pairs with 41 - 45 PNOs   :   47
   #pairs with 46 - 50 PNOs   :   14

Generation of (ij|ab)[P] integrals            ... on
Generation of (ia|bc)[P],(ja|bc)[P] integrals ... on
Storage of 3 and 4 external integrals         ... on
Generation of ALL (ka|bc)[P] integrals        ... on
Keep RI integrals in memory                   ... off

Ibatch:  1 (of  1)
Starting 2-4 index PNO integral generation ... done

Timings:
Total PNO integral transformation time     ...        102.795 sec
Size of the 3-external file                ...       171 MB
Size of the 4-external file                ...       782 MB
Size of the IKJL file                      ...         3 MB
Size of the all 3-external file            ...      3861 MB
Size of the 1-external file                ...        22 MB

Making pair/pair overlap matrices          ... done (   44.807 sec)
Size of the pair overlap file              ... 2263 MB
Redoing the guess amplitudes               ... done (    0.007 sec)

-------------------------
FINAL STARTUP INFORMATION
-------------------------

E(0)                                       ...   -637.031526832
E(L-MP2)                                   ...     -2.302076445
E(L-MP2) including corrections             ...     -2.302332667
Initial E(tot)                             ...   -639.333859499
<T|T>                                      ...      0.724295888
Number of pairs included                   ... 888
Total number of pairs                      ... 1035

------------------------------------------------
                  RHF COUPLED CLUSTER ITERATIONS
------------------------------------------------

Number of PNO amplitudes to be optimized   ...       656511
Number of non-PNO amplitudes               ...     73654272
Untruncated number of regular amplitudes   ...     85847040

Iter       E(tot)           E(Corr)          Delta-E          Residual     Time
  0   -639.251328274     -2.217023932      0.085052513      0.018995270   36.28
                           *** Turning on DIIS ***
  1   -639.400497631     -2.366193289     -0.149169357      0.007114116   34.11
  2   -639.475498616     -2.441194274     -0.075000985      0.001856959   34.35
  3   -639.485817491     -2.451513149     -0.010318875      0.000791911   34.22
  4   -639.487901232     -2.453596890     -0.002083741      0.000397834   34.19
  5   -639.488230421     -2.453926079     -0.000329189      0.000168602   34.12
  6   -639.488296089     -2.453991747     -0.000065668      0.000088871   34.05
  7   -639.488303678     -2.453999336     -0.000007589      0.000040882   34.04
  8   -639.488305468     -2.454001126     -0.000001790      0.000018251   34.05
  9   -639.488305542     -2.454001201     -0.000000075      0.000005554   34.10
               --- The Coupled-Cluster iterations have converged ---

----------------------
COUPLED CLUSTER ENERGY
----------------------

E(0)                                       ...   -637.031526832
E(CORR)(strong-pairs)                      ...     -2.454001201
E(CORR)(weak-pairs)                        ...     -0.002777510
E(CORR)(corrected)                         ...     -2.456778710
E(TOT)                                     ...   -639.488305542
Singles Norm <S|S>**1/2                    ...      0.078227296  
T1 diagnostic                              ...      0.008245881  

------------------
LARGEST AMPLITUDES
------------------
  38-> 70  38-> 70       0.041319
  42-> 70  42-> 70       0.040826
  39-> 61  39-> 61       0.040795
  46-> 70  46-> 70       0.040270
  54-> 70  54-> 70       0.040018
  50-> 61  50-> 61       0.039799
  40-> 61  40-> 61       0.039793
  44-> 61  44-> 61       0.039659
  53-> 61  53-> 61       0.039629
  46-> 61  46-> 61       0.039628
  43-> 61  43-> 61       0.039620
  41-> 61  41-> 61       0.039597
  37-> 61  37-> 61       0.039554
  42-> 61  42-> 61       0.039526
  48-> 61  48-> 61       0.039509
  49-> 61  49-> 61       0.039478


-------------------------------------------
DLPNO BASED TRIPLES CORRECTION
-------------------------------------------

Singles multiplier          ...  1.000000
TCutTNO                     ... 1.000e-09
TCutMP2Pairs                ... 1.000e-06
TCutDOStrong                ... 1.000e-02
TCutMKNStrong               ... 1.000e-02
TCutDOWeak                  ... 2.000e-02
TCutMKNWeak                 ... 1.000e-01

Fragment selection                          .... not used
Number of Triples that are to be computed   ...     14387

 . . . . . . . . .
10% done  
20% done               (    363.423 sec)
 . . . . . . . . .
30% done  
40% done               (    400.022 sec)
 . . . . . . . . .
50% done  
60% done  
70% done  
80% done               (    461.877 sec)
 . . . . . . . . .
90% done               (    138.830 sec)
Triples timings:
Total time for T0               ...  1507.549 sec
Total time for Iterative (T)    ...     0.000 sec
Total time of overall (T)       ...  1507.638 sec

Triples List generation         ...     0.000 sec
TNO generation                  ...   143.376 sec
Pair density generation         ...     0.009 sec
Look up tables                  ...     0.000 sec
Generating 3-index integrals    ...   882.047 sec
  Make 4-ind.int. from 3-ind.int...    99.788 sec
  Projecting amplitudes (D + S) ...   286.343 sec
  Downprojecting integrals      ...     0.027 sec
  Energy contr. (sum over a,b,c)...    23.891 sec
Fitting ET(->0)                 ...     0.000 sec

Everything after 3-index        ...   482.105 sec

Timing details:
 TNO integrals                  ...   970.659 sec
   Reading 3-index integrals    ...     1.663 sec
   Sorting integrals            ...   129.242 sec
       Sorting integrals 1      ...     0.030 sec
       Sorting integrals 2      ...    89.985 sec
       Sorting integrals 3      ...     5.700 sec
       Sorting integrals 4      ...     1.270 sec
       Sorting integrals 5      ...     2.236 sec
       Sorting integrals 6      ...    30.022 sec
   Calculating local VM**-1/2   ...     7.069 sec
   Orthogonal. integrals        ...     8.114 sec
   Multipl. 3-index integrals   ...   824.572 sec
   All concerning IRIab (w/TNO) ...    49.958 sec

 Calculate W0/W1                ...    71.938 sec
 W 3-ext contribution           ...    32.455 sec
 W 3-int contribution           ...    20.980 sec
 Sorting W                      ...    17.171 sec

 V exchange contribution        ...     9.260 sec

 Timings for Triples without generation
     of 3-index integrals       ...   482.061 sec
       0 weak pairs             ...   417.822 sec
       1 weak pair              ...    64.239 sec
       2 weak pairs             ...     0.000 sec
       3 weak pairs             ...     0.000 sec
  Extra time for extrapolation  ...     0.000 sec

Number of Triples   (0, 1, 2, 3 weak pairs; overall):  11033    3354       0       0  ( 14387)
Number of Atoms     (0, 1, 2, 3 weak pairs; overall):   31.5    24.5     0.0     0.0  (    41)
Number of PAOs      (0, 1, 2, 3 weak pairs; overall):  283.8   237.9     0.0     0.0  (   349)
Number of AuxFcns   (0, 1, 2, 3 weak pairs; overall):  370.6   251.9     0.0     0.0  (  1246)
Number of TNOs      (0, 1, 2, 3 weak pairs         ):   65.7    46.9     0.0     0.0
Aver. Number of NTNO, Atoms, PAOs, AuxFcns / Triples:  14387    61.3    29.9   273.1   342.9

Triples Correction (T)                     ...     -0.085266489
Final correlation energy                   ...     -2.542045200
E(CCSD)                                    ...   -639.488305542
E(CCSD(T))                                 ...   -639.573572032


Maximum memory used throughout the entire calculation: 8239.3 MB


------------------------------------------------------------------------------- 
                                     TIMINGS                                   
------------------------------------------------------------------------------- 


Total execution time                   ...     2506.387 sec

Localization of occupied MO's          ...        1.243 sec (  0.0%)
Fock Matrix Formation                  ...       14.649 sec (  0.6%)
Global overlap, Fock, MKN matrices     ...        0.254 sec (  0.0%)
Differential overlap integrals         ...        0.677 sec (  0.0%)
Organizing maps                        ...        0.301 sec (  0.0%)
RI 3-index integral generations        ...       12.216 sec (  0.5%)
RI-PNO integral transformation         ...      516.285 sec ( 20.6%)
Initial Guess                          ...      107.193 sec (  4.3%)
DIIS Solver                            ...        3.096 sec (  0.1%)
State Vector Update                    ...        0.057 sec (  0.0%)
Sigma-vector construction              ...      342.892 sec ( 13.7%)
  <0|H|D>                              ...        0.002 sec (  0.0% of sigma)
  <D|H|D>(0-ext)                       ...       39.416 sec ( 11.5% of sigma)
  <D|H|D>(2-ext Fock)                  ...        0.054 sec (  0.0% of sigma)
  <D|H|D>(2-ext)                       ...       88.423 sec ( 25.8% of sigma)
  <D|H|D>(4-ext)                       ...        9.489 sec (  2.8% of sigma)
  <D|H|D>(4-ext-corr)                  ...       66.143 sec ( 19.3% of sigma)
  CCSD doubles correction              ...        1.924 sec (  0.6% of sigma)
  <S|H|S>                              ...        2.473 sec (  0.7% of sigma)
  <S|H|D>(1-ext)                       ...        3.250 sec (  0.9% of sigma)
  <D|H|S>(1-ext)                       ...        0.086 sec (  0.0% of sigma)
  <S|H|D>(3-ext)                       ...        0.678 sec (  0.2% of sigma)
  CCSD singles correction              ...        0.002 sec (  0.0% of sigma)
  Fock-dressing                        ...       76.348 sec ( 22.3% of sigma)
  Singles amplitudes                   ...        2.143 sec (  0.6% of sigma)
  (ik|jl)-dressing                     ...       33.946 sec (  9.9% of sigma)
  (ij|ab),(ia|jb)-dressing             ...       13.087 sec (  3.8% of sigma)
  Pair energies                        ...        0.019 sec (  0.0% of sigma)
Total Time for computing (T)           ...     1507.793 sec ( 60.2% of ALL)


-------------------------   --------------------
FINAL SINGLE POINT ENERGY      -639.573572031688
-------------------------   --------------------


                            ***************************************
                            *     ORCA property calculations      *
                            ***************************************

                                    ---------------------
                                    Active property flags
                                    ---------------------
   (+) Dipole Moment


------------------------------------------------------------------------------
                       ORCA ELECTRIC PROPERTIES CALCULATION
------------------------------------------------------------------------------

Dipole Moment Calculation                       ... on
Quadrupole Moment Calculation                   ... off
Polarizability Calculation                      ... off
GBWName                                         ... N_Me_spiro_piperidine_2_2p_adamantane_b.gbw
Electron density file                           ... N_Me_spiro_piperidine_2_2p_adamantane_b.scfp.tmp
The origin for moment calculation is the CENTER OF MASS  = ( 0.017747,  0.002652  0.016084)

-------------
DIPOLE MOMENT
-------------
                                X             Y             Z
Electronic contribution:      1.95251       0.18353       1.71370
Nuclear contribution   :     -2.16513      -0.32350      -1.96211
                        -----------------------------------------
Total Dipole Moment    :     -0.21262      -0.13997      -0.24841
                        -----------------------------------------
Magnitude (a.u.)       :      0.35568
Magnitude (Debye)      :      0.90407



--------------------
Rotational spectrum 
--------------------
 
Rotational constants in cm-1:     0.034525     0.015725     0.014141 
Rotational constants in MHz :  1035.048239   471.426525   423.951299 

 Dipole components along the rotational axes: 
x,y,z [a.u.] :    -0.211894    -0.145021    -0.246126 
x,y,z [Debye]:    -0.538592    -0.368614    -0.625602 

 

Timings for individual modules:

Sum of individual times         ...     2621.403 sec (=  43.690 min)
GTO integral calculation        ...        1.555 sec (=   0.026 min)   0.1 %
SCF iterations                  ...      107.800 sec (=   1.797 min)   4.1 %
MDCI module                     ...     2512.048 sec (=  41.867 min)  95.8 %
                             ****ORCA TERMINATED NORMALLY****
TOTAL RUN TIME: 0 days 0 hours 43 minutes 42 seconds 233 msec
N_Me_spiro_piperidine_2_2p_adamantane_b.gbw -> /home1/pantazis/klk/VDZ/Energy_barrier/N_Me_spiro_piperidine_2_2p_adamantane_b.gbw
N_Me_spiro_piperidine_2_2p_adamantane_b.ges -> /home1/pantazis/klk/VDZ/Energy_barrier/N_Me_spiro_piperidine_2_2p_adamantane_b.ges
N_Me_spiro_piperidine_2_2p_adamantane_b.job -> /home1/pantazis/klk/VDZ/Energy_barrier/N_Me_spiro_piperidine_2_2p_adamantane_b.job
N_Me_spiro_piperidine_2_2p_adamantane_b.loc -> /home1/pantazis/klk/VDZ/Energy_barrier/N_Me_spiro_piperidine_2_2p_adamantane_b.loc
N_Me_spiro_piperidine_2_2p_adamantane_b.nodes -> /home1/pantazis/klk/VDZ/Energy_barrier/N_Me_spiro_piperidine_2_2p_adamantane_b.nodes
N_Me_spiro_piperidine_2_2p_adamantane_b.prop -> /home1/pantazis/klk/VDZ/Energy_barrier/N_Me_spiro_piperidine_2_2p_adamantane_b.prop
N_Me_spiro_piperidine_2_2p_adamantane_b_property.txt -> /home1/pantazis/klk/VDZ/Energy_barrier/N_Me_spiro_piperidine_2_2p_adamantane_b_property.txt
N_Me_spiro_piperidine_2_2p_adamantane_b.xyz -> /home1/pantazis/klk/VDZ/Energy_barrier/N_Me_spiro_piperidine_2_2p_adamantane_b.xyz
cp: cannot stat N_Me_spiro_piperidine_2_2p_adamantane_b.asa.inp: No such file or directory
