! Job execution by suborca V 6.07 on ZEUS !
Job started from zeus1, running /scratch/pantazis/P_Me_phosphorinane_eq__RLdgiS/orca/orca copied from /opt/orca on zeussn126 in /scratch/pantazis/P_Me_phosphorinane_eq__RLdgiS
Job execution start: Sat Jun 29 11:54:47 CEST 2019
Shared library path: /scratch/pantazis/P_Me_phosphorinane_eq__RLdgiS/orca:/opt/openmpi_1.10.2/lib:/opt/intel/mkl/lib/intel64:/opt/intel/lib/intel64:
PBS Job ID is: 158940.icqc
izeussn126
izeussn126
izeussn126
izeussn126

                                 *****************
                                 * O   R   C   A *
                                 *****************

           --- An Ab Initio, DFT and Semiempirical electronic structure package ---

                  #######################################################
                  #                        -***-                        #
                  #          Department of theory and spectroscopy      #
                  #               Directorship: Frank Neese             #
                  #        Max Planck Institute fuer Kohlenforschung    #
                  #                Kaiser Wilhelm Platz 1               #
                  #                 D-45470 Muelheim/Ruhr               #
                  #                      Germany                        #
                  #                                                     #
                  #                  All rights reserved                #
                  #                        -***-                        #
                  #######################################################


                         Program Version 4.1.x  -  STABLE  -
                                (SVN: $Rev: 14094$)
                ($Date: 2019-06-14 15:01:15 +0200 (Fri, 14 Jun 2019) $)

                         (BUILD: $Sun Jun 23 06:18:31 CEST 2019$)


 With contributions from (in alphabetic order):
   Daniel Aravena         : Magnetic Properties
   Michael Atanasov       : Ab Initio Ligand Field Theory
   Alexander A. Auer      : GIAO ZORA
   Ute Becker             : Parallelization
   Giovanni Bistoni       : ED, Open-shell LED
   Martin Brehm           : Molecular dynamics
   Dmytro Bykov           : SCF Hessian
   Vijay G. Chilkuri      : MRCI spin determinant printing
   Dipayan Datta          : RHF DLPNO-CCSD density
   Achintya Kumar Dutta   : EOM-CC, STEOM-CC
   Dmitry Ganyushin       : Spin-Orbit,Spin-Spin,Magnetic field MRCI
   Miquel Garcia          : C-PCM Hessian
   Yang Guo               : DLPNO-NEVPT2, CIM, IAO-localization
   Andreas Hansen         : Spin unrestricted coupled pair/coupled cluster methods
   Benjamin Helmich-Paris : CASSCF linear response (MC-RPA)
   Lee Huntington         : MR-EOM, pCC
   Robert Izsak           : Overlap fitted RIJCOSX, COSX-SCS-MP3, EOM
   Christian Kollmar      : KDIIS, OOCD, Brueckner-CCSD(T), CCSD density
   Simone Kossmann        : Meta GGA functionals, TD-DFT gradient, OOMP2, MP2 Hessian
   Martin Krupicka        : AUTO-CI
   Lucas Lang             : DCDCAS
   Dagmar Lenk            : GEPOL surface, SMD
   Dimitrios Liakos       : Extrapolation schemes; parallel MDCI
   Dimitrios Manganas     : ROCIS; embedding schemes
   Dimitrios Pantazis     : SARC Basis sets
   Taras Petrenko         : DFT Hessian,TD-DFT gradient, ASA, ECA, R-Raman, ABS, FL, XAS/XES, NRVS
   Peter Pinski           : DLPNO-MP2, DLPNO-MP2 Gradient
   Christoph Reimann      : Effective Core Potentials
   Marius Retegan         : Local ZFS, SOC
   Christoph Riplinger    : Optimizer, TS searches, QM/MM, DLPNO-CCSD(T), (RO)-DLPNO pert. Triples
   Tobias Risthaus        : Range-separated hybrids, TD-DFT gradient, RPA, STAB
   Michael Roemelt        : Restricted open shell CIS
   Masaaki Saitow         : Open-shell DLPNO
   Barbara Sandhoefer     : DKH picture change effects
   Avijit Sen             : IP-ROCIS
   Kantharuban Sivalingam : CASSCF convergence, NEVPT2, FIC-MRCI
   Bernardo de Souza      : ESD, SOC TD-DFT
   Georgi Stoychev        : AutoAux, RI-MP2 NMR
   Willem Van den Heuvel  : Paramagnetic NMR
   Boris Wezisla          : Elementary symmetry handling
   Frank Wennmohs         : Technical directorship


 We gratefully acknowledge several colleagues who have allowed us to
 interface, adapt or use parts of their codes:
   Stefan Grimme, W. Hujo, H. Kruse,             : VdW corrections, initial TS optimization,
                  C. Bannwarth                     DFT functionals, gCP, sTDA/sTD-DF
   Ed Valeev                                     : LibInt (2-el integral package), F12 methods
   Garnet Chan, S. Sharma, J. Yang, R. Olivares  : DMRG
   Ulf Ekstrom                                   : XCFun DFT Library
   Mihaly Kallay                                 : mrcc  (arbitrary order and MRCC methods)
   Andreas Klamt, Michael Diedenhofen            : otool_cosmo (COSMO solvation model)
   Jiri Pittner, Ondrej Demel                    : Mk-CCSD
   Frank Weinhold                                : gennbo (NPA and NBO analysis)
   Christopher J. Cramer and Donald G. Truhlar   : smd solvation model
   Lars Goerigk                                  : TD-DFT with DH, B97 family of functionals
   V. Asgeirsson, H. Jonsson                     : NEB implementation
   FAccTs GmbH                                   : IRC, NEB, NEB-TS, Multilevel


 Your calculation uses the libint2 library for the computation of 2-el integrals
 For citations please refer to: http://libint.valeyev.net

 This ORCA versions uses:
   CBLAS   interface :  Fast vector & matrix operations
   LAPACKE interface :  Fast linear algebra routines
   SCALAPACK package :  Parallel linear algebra routines




***************************************
The coordinates will be read from file: P_Me_phosphorinane_eq.xyz
***************************************


----- Orbital basis set information -----
Your calculation utilizes the basis: cc-pVDZ 
       H, B-Ne : Obtained from the ccRepo (grant-hill.group.shef.ac.uk/ccrepo) Feb. 2017
                 T. H. Dunning, Jr., J. Chem. Phys. 90, 1007 (1989)
            He : Obtained from the ccRepo (grant-hill.group.shef.ac.uk/ccrepo) Feb. 2017
                 D. E. Woon, T. H. Dunning, Jr., J. Chem. Phys. 100, 2975 (1994)
  Li-Be, Na-Mg : Obtained from the ccRepo (grant-hill.group.shef.ac.uk/ccrepo) Feb. 2017
                 B. P. Prascher, D. E. Woon, K. A. Peterson, T. H. Dunning, Jr., A. K. Wilson, Theor. Chem. Acc. 128, 69 (2011)
         Al-Ar : Obtained from the ccRepo (grant-hill.group.shef.ac.uk/ccrepo) Feb. 2017
                 D. E. Woon, T. H. Dunning, Jr., J. Chem. Phys. 98, 1358 (1993)
            Ca : Obtained from the Peterson Research Group Website (tyr0.chem.wsu.edu/~kipeters) Feb. 2017
                 J. Koput, K. A. Peterson, J. Phys. Chem. 106, 9595 (2002)
         Sc-Zn : Obtained from the ccRepo (grant-hill.group.shef.ac.uk/ccrepo) Feb. 2017
                 N. B. Balabanov, K. A. Peterson, J. Chem. Phys. 123, 064107 (2005)
                 N. B. Balabanov, K. A. Peterson, J. Chem. Phys. 125, 074110 (2006)
         Ga-Kr : Obtained from the ccRepo (grant-hill.group.shef.ac.uk/ccrepo) Feb. 2017
                 A. K. Wilson, D. E. Woon, K. A. Peterson, T. H. Dunning, Jr., J. Chem. Phys. 110, 7667 (1999)

----- AuxC basis set information -----
Your calculation utilizes the auxiliary basis: cc-pVDZ/C 
  H-He, B, Ne, Al-Ar, Ga-Br : Obtained from the EMSL Basis Set Exchange (bse.pnl.gov) Feb. 2017
                              F. Weigend, A. Kohn, C. Hattig, J. Chem. Phys. 116, 3175 (2002)
               Li-Be, Na-Mg : Obtained from the EMSL Basis Set Exchange (bse.pnl.gov) Feb. 2017
                              C. Haettig, Phys. Chem. Chem. Phys. 7, 59 (2005)
                        C-F : Obtained from the EMSL Basis Set Exchange (bse.pnl.gov) Feb. 2017
                              C. Haettig, Phys. Chem. Chem. Phys. 7, 59 (2005)
                              F. Weigend, A. Kohn, C. Hattig, J. Chem. Phys. 116, 3175 (2002)
                         Kr : Obtained from the TURBOMOLE 7.0 basis set library
                              F. Weigend, A. Kohn, C. Hattig, J. Chem. Phys. 116, 3175 (2002)
                              S function revised in Sep. 2009

----- AuxJK basis set information -----
Your calculation utilizes the auxiliary basis: cc-pVTZ/JK 
  H, B-F, Al-Cl, Ga-Br : Obtained from the TURBOMOLE 7.0 basis set library

================================================================================
                                        WARNINGS
                       Please study these warnings very carefully!
================================================================================


WARNING: MDCI localization with Augmented Hessian Foster-Boys
  ===> : Switching off randomization!

WARNING: Post HF methods need fully converged wavefunctions
  ===> : Setting SCFConvForced true
         You can overwrite this default with %scf ConvForced false 


INFO   : the flag for use of LIBINT has been found!

================================================================================
                                       INPUT FILE
================================================================================
NAME = P_Me_phosphorinane_eq.inp
|  1> ! RHF DLPNO-CCSD(T) cc-pVDZ RIJK cc-pVTZ/JK cc-pVDZ/C
|  2> ! KDIIS SOSCF TightSCF TightPNO
|  3> 
|  4> %pal nprocs 4 end
|  5> 
|  6> %maxcore 8000
|  7> 
|  8> %scf maxiter 300
|  9>      shift shift 0.2 erroff 0.1 end
| 10> end
| 11> 
| 12> * xyzfile 0 1 P_Me_phosphorinane_eq.xyz 
| 13> 
| 14> 
| 15>                          ****END OF INPUT****
================================================================================

                       ****************************
                       * Single Point Calculation *
                       ****************************

---------------------------------
CARTESIAN COORDINATES (ANGSTROEM)
---------------------------------
  C      2.573490   -0.000000    0.441590
  P      1.032440   -0.000010   -0.610410
  C      0.069290    1.398100    0.185260
  C     -1.430010    1.289880   -0.151030
  C     -2.076810    0.000010    0.384630
  C     -1.430030   -1.289870   -0.151020
  C      0.069280   -1.398100    0.185260
  H      0.472920   -2.350540   -0.177910
  H      0.209350   -1.378960    1.276060
  H     -1.957680   -2.158700    0.263520
  H     -1.564550   -1.338500   -1.240640
  H     -2.016810    0.000010    1.483060
  H     -3.144990    0.000000    0.133640
  H     -1.957650    2.158710    0.263500
  H     -1.564540    1.338530   -1.240650
  H      0.209340    1.378940    1.276070
  H      0.472980    2.350530   -0.177890
  H      2.350730    0.000040    1.515460
  H      3.176460   -0.883310    0.206920
  H      3.176500    0.883260    0.206870

----------------------------
CARTESIAN COORDINATES (A.U.)
----------------------------
  NO LB      ZA    FRAG     MASS         X           Y           Z
   0 C     6.0000    0    12.011    4.863191   -0.000000    0.834484
   1 P    15.0000    0    30.974    1.951029   -0.000019   -1.153508
   2 C     6.0000    0    12.011    0.130939    2.642026    0.350091
   3 C     6.0000    0    12.011   -2.702327    2.437520   -0.285405
   4 C     6.0000    0    12.011   -3.924602    0.000019    0.726845
   5 C     6.0000    0    12.011   -2.702365   -2.437501   -0.285386
   6 C     6.0000    0    12.011    0.130920   -2.642026    0.350091
   7 H     1.0000    0     1.008    0.893689   -4.441877   -0.336201
   8 H     1.0000    0     1.008    0.395614   -2.605857    2.411404
   9 H     1.0000    0     1.008   -3.699479   -4.079352    0.497981
  10 H     1.0000    0     1.008   -2.956571   -2.529398   -2.344470
  11 H     1.0000    0     1.008   -3.811219    0.000019    2.802577
  12 H     1.0000    0     1.008   -5.943170    0.000000    0.252543
  13 H     1.0000    0     1.008   -3.699422    4.079371    0.497943
  14 H     1.0000    0     1.008   -2.956552    2.529455   -2.344489
  15 H     1.0000    0     1.008    0.395595    2.605819    2.411423
  16 H     1.0000    0     1.008    0.893803    4.441858   -0.336163
  17 H     1.0000    0     1.008    4.442236    0.000076    2.863804
  18 H     1.0000    0     1.008    6.002639   -1.669214    0.391022
  19 H     1.0000    0     1.008    6.002715    1.669120    0.390928

--------------------------------
INTERNAL COORDINATES (ANGSTROEM)
--------------------------------
 C      0   0   0     0.000000000000     0.00000000     0.00000000
 P      1   0   0     1.865888287814     0.00000000     0.00000000
 C      2   1   0     1.874956064419   100.66094329     0.00000000
 C      3   2   1     1.540358082557   110.79120864   200.36525642
 C      4   3   2     1.539170715840   113.07420182    62.25055000
 C      5   4   3     1.539167211612   113.86606097   300.95327647
 C      6   5   4     1.540366335454   113.07410513    59.04607234
 H      7   6   5     1.096339204854   110.30885657   177.52983430
 H      7   6   5     1.099922990259   109.82993161    59.50760174
 H      6   5   4     1.097781172639   109.26065460   180.95572197
 H      6   5   4     1.098968721893   109.31123363   296.89017725
 H      5   4   3     1.100067481976   108.94016238    62.76058842
 H      5   4   3     1.097271385119   109.23763370   178.54357870
 H      4   3   2     1.097772590020   109.25606311   184.16222095
 H      4   3   2     1.098970831187   109.42077867   300.15362618
 H      3   2   1     1.099930708818   110.02638221   322.00596365
 H      3   2   1     1.096342302157   108.54676571    79.09840493
 H      1   2   3     1.096730958850   112.60041426    49.35412017
 H      1   2   3     1.094933507525   109.51041177   170.50028178
 H      1   2   3     1.094925918088   109.51134713   288.20764806

---------------------------
INTERNAL COORDINATES (A.U.)
---------------------------
 C      0   0   0     0.000000000000     0.00000000     0.00000000
 P      1   0   0     3.526017860459     0.00000000     0.00000000
 C      2   1   0     3.543153474886   100.66094329     0.00000000
 C      3   2   1     2.910854924206   110.79120864   200.36525642
 C      4   3   2     2.908611126289   113.07420182    62.25055000
 C      5   4   3     2.908604504257   113.86606097   300.95327647
 C      6   5   4     2.910870519920   113.07410513    59.04607234
 H      7   6   5     2.071780847055   110.30885657   177.52983430
 H      7   6   5     2.078553219993   109.82993161    59.50760174
 H      6   5   4     2.074505771262   109.26065460   180.95572197
 H      6   5   4     2.076749914124   109.31123363   296.89017725
 H      5   4   3     2.078826269766   108.94016238    62.76058842
 H      5   4   3     2.073542412463   109.23763370   178.54357870
 H      4   3   2     2.074489552464   109.25606311   184.16222095
 H      4   3   2     2.076753900111   109.42077867   300.15362618
 H      3   2   1     2.078567805955   110.02638221   322.00596365
 H      3   2   1     2.071786700110   108.54676571    79.09840493
 H      1   2   3     2.072521154819   112.60041426    49.35412017
 H      1   2   3     2.069124464075   109.51041177   170.50028178
 H      1   2   3     2.069110122118   109.51134713   288.20764806

---------------------
BASIS SET INFORMATION
---------------------
There are 3 groups of distinct atoms

 Group   1 Type C   : 17s4p1d contracted to 3s2p1d pattern {881/31/1}
 Group   2 Type P   : 34s15p1d contracted to 4s3p1d pattern {1111111/771/1}
 Group   3 Type H   : 4s1p contracted to 2s1p pattern {31/1}

Atom   0C    basis set group =>   1
Atom   1P    basis set group =>   2
Atom   2C    basis set group =>   1
Atom   3C    basis set group =>   1
Atom   4C    basis set group =>   1
Atom   5C    basis set group =>   1
Atom   6C    basis set group =>   1
Atom   7H    basis set group =>   3
Atom   8H    basis set group =>   3
Atom   9H    basis set group =>   3
Atom  10H    basis set group =>   3
Atom  11H    basis set group =>   3
Atom  12H    basis set group =>   3
Atom  13H    basis set group =>   3
Atom  14H    basis set group =>   3
Atom  15H    basis set group =>   3
Atom  16H    basis set group =>   3
Atom  17H    basis set group =>   3
Atom  18H    basis set group =>   3
Atom  19H    basis set group =>   3
-------------------------------
AUXILIARY BASIS SET INFORMATION
-------------------------------
There are 3 groups of distinct atoms

 Group   1 Type C   : 7s5p4d2f contracted to 7s5p4d2f pattern {1111111/11111/1111/11}
 Group   2 Type P   : 9s7p5d3f contracted to 9s7p5d3f pattern {111111111/1111111/11111/111}
 Group   3 Type H   : 3s2p1d contracted to 3s2p1d pattern {111/11/1}

Atom   0C    basis set group =>   1
Atom   1P    basis set group =>   2
Atom   2C    basis set group =>   1
Atom   3C    basis set group =>   1
Atom   4C    basis set group =>   1
Atom   5C    basis set group =>   1
Atom   6C    basis set group =>   1
Atom   7H    basis set group =>   3
Atom   8H    basis set group =>   3
Atom   9H    basis set group =>   3
Atom  10H    basis set group =>   3
Atom  11H    basis set group =>   3
Atom  12H    basis set group =>   3
Atom  13H    basis set group =>   3
Atom  14H    basis set group =>   3
Atom  15H    basis set group =>   3
Atom  16H    basis set group =>   3
Atom  17H    basis set group =>   3
Atom  18H    basis set group =>   3
Atom  19H    basis set group =>   3
-------------------------------
AUXILIARY BASIS SET INFORMATION
-------------------------------
There are 3 groups of distinct atoms

 Group   1 Type C   : 10s7p5d2f1g contracted to 10s7p5d2f1g pattern {1111111111/1111111/11111/11/1}
 Group   2 Type P   : 13s11p9d3f1g contracted to 13s11p9d3f1g pattern {1111111111111/11111111111/111111111/111/1}
 Group   3 Type H   : 4s3p2d1f contracted to 4s3p2d1f pattern {1111/111/11/1}

Atom   0C    basis set group =>   1
Atom   1P    basis set group =>   2
Atom   2C    basis set group =>   1
Atom   3C    basis set group =>   1
Atom   4C    basis set group =>   1
Atom   5C    basis set group =>   1
Atom   6C    basis set group =>   1
Atom   7H    basis set group =>   3
Atom   8H    basis set group =>   3
Atom   9H    basis set group =>   3
Atom  10H    basis set group =>   3
Atom  11H    basis set group =>   3
Atom  12H    basis set group =>   3
Atom  13H    basis set group =>   3
Atom  14H    basis set group =>   3
Atom  15H    basis set group =>   3
Atom  16H    basis set group =>   3
Atom  17H    basis set group =>   3
Atom  18H    basis set group =>   3
Atom  19H    basis set group =>   3

Checking for AutoStart:
The File: P_Me_phosphorinane_eq.gbw exists
Trying to determine its content:
     ... Fine, the file contains calculation information
     ... Fine, the calculation information was read
     ... Fine, the file contains a basis set
     ... Fine, the basis set was read
     ... Fine, the file contains a geometry
     ... Fine, the geometry was read
     ... Fine, the file contains a set of orbitals
     ... Fine, the orbitals can be read
     => possible old guess file was deleted
     => GBW file was renamed to GES file
     => GES file is set as startup file
     => Guess is set to MORead
     ... now leaving AutoStart



           ************************************************************
           *        Program running with 4 parallel MPI-processes     *
           *              working on a common directory               *
           ************************************************************
------------------------------------------------------------------------------
                           ORCA GTO INTEGRAL CALCULATION
                           -- RI-GTO INTEGRALS CHOSEN --
------------------------------------------------------------------------------

                         BASIS SET STATISTICS AND STARTUP INFO

Gaussian basis set:
 # of primitive gaussian shells          ...  247
 # of primitive gaussian functions       ...  379
 # of contracted shells                  ...   83
 # of contracted basis functions         ...  167
 Highest angular momentum                ...    2
 Maximum contraction depth               ...   11
Auxiliary gaussian basis set:
 # of primitive gaussian shells          ...  317
 # of primitive gaussian functions       ...  985
 # of contracted shells                  ...  317
 # of contracted aux-basis functions     ...  985
 Highest angular momentum                ...    4
 Maximum contraction depth               ...    1
Ratio of auxiliary to basis functions    ...  5.90
Integral package used                  ... LIBINT
 One Electron integrals                  ... done
 Ordering auxiliary basis shells         ... done
 Integral threshhold             Thresh  ...  2.500e-11
 Primitive cut-off               TCut    ...  2.500e-12
 Pre-screening matrix                    ... done
 Shell pair data                         ... 
 Ordering of the shell pairs             ... done (   0.001 sec) 3430 of 3486 pairs
 Determination of significant pairs      ... done (   0.000 sec)
 Creation of shell pair data             ... done (   0.001 sec)
 Storage of shell pair data              ... done (   0.002 sec)
 Shell pair data done in (   0.004 sec)
 Computing two index integrals           ... done
 Cholesky decomposition of the V-matrix  ... done


Timings:
 Total evaluation time                   ...   0.465 sec (  0.008 min)
 One electron matrix time                ...   0.053 sec (  0.001 min) = 11.3%
 Schwartz matrix evaluation time         ...   0.237 sec (  0.004 min) = 51.0%
 Two index repulsion integral time       ...   0.075 sec (  0.001 min) = 16.2%
 Cholesky decomposition of V             ...   0.069 sec (  0.001 min) = 14.8%
 Three index repulsion integral time     ...   0.000 sec (  0.000 min) =  0.0%



           ************************************************************
           *        Program running with 4 parallel MPI-processes     *
           *              working on a common directory               *
           ************************************************************
-------------------------------------------------------------------------------
                                 ORCA SCF
-------------------------------------------------------------------------------

------------
SCF SETTINGS
------------
Hamiltonian:
 Ab initio Hamiltonian  Method          .... Hartree-Fock(GTOs)
 RI-approximation to the Coulomb term is turned on
   Number of auxiliary basis functions  .... 985
   RI-JK (J+K treated both via RI)      .... on


General Settings:
 Integral files         IntName         .... P_Me_phosphorinane_eq
 Hartree-Fock type      HFTyp           .... RHF
 Total Charge           Charge          ....    0
 Multiplicity           Mult            ....    1
 Number of Electrons    NEL             ....   64
 Basis Dimension        Dim             ....  167
 Nuclear Repulsion      ENuc            ....    394.0794615618 Eh

Convergence Acceleration:
 DIIS                   CNVDIIS         .... off
 Newton-Raphson         CNVNR           .... off
 SOSCF                  CNVSOSCF        .... on
   Start iteration      SOSCFMaxIt      ....   150
   Startup grad/error   SOSCFStart      ....  0.003300
 Level Shifting         CNVShift        .... on
   Level shift para.    LevelShift      ....    0.2000
   Turn off err/grad.   ShiftErr        ....    0.1000
 Zerner damping         CNVZerner       .... off
 Static damping         CNVDamp         .... off
 Fernandez-Rico         CNVRico         .... off

SCF Procedure:
 Maximum # iterations   MaxIter         ....   300
 SCF integral mode      SCFMode         .... Direct
   Integral package                     .... LIBINT
 Reset frequency        DirectResetFreq ....    20
 Integral Threshold     Thresh          ....  2.500e-11 Eh
 Primitive CutOff       TCut            ....  2.500e-12 Eh

Convergence Tolerance:
 Convergence Check Mode ConvCheckMode   .... Total+1el-Energy
 Convergence forced     ConvForced      .... 1
 Energy Change          TolE            ....  1.000e-08 Eh
 1-El. energy change                    ....  1.000e-05 Eh
 Orbital Gradient       TolG            ....  1.000e-05
 Orbital Rotation angle TolX            ....  1.000e-05


Diagonalization of the overlap matrix:
Smallest eigenvalue                        ... 3.362e-03
Time for diagonalization                   ...    0.007 sec
Threshold for overlap eigenvalues          ... 1.000e-08
Number of eigenvalues below threshold      ... 0
Time for construction of square roots      ...    0.005 sec
Total time needed                          ...    0.013 sec

---------------------
INITIAL GUESS: MOREAD
---------------------
Guess MOs are being read from file: P_Me_phosphorinane_eq.ges
Input Geometry matches current geometry (good)
Atom 0: N(Shells)= 6 and 10 - projection required
Input basis set needs projection
NBasis(read)= 396
NBasis(calc)= 167
Basis set overlap was calculated
Using GuessMode=FMatrix for the initial guess
C*T matrix was formed
Effective Fockian was calculated
Effective Fockian was diagonalized
Initial density was built
                      ------------------
                      INITIAL GUESS DONE (   0.1 sec)
                      ------------------
--------------
SCF ITERATIONS
--------------
ITER       Energy         Delta-E        Max-DP      RMS-DP      [F,P]   Gradient Norm
                             ****Turning on KDIIS(Cayley)****
  0   -575.5355792800   0.000000000000 0.00445509  0.00005961  0.0047490   0.005396464
  1   -575.5357310640  -0.000151784009 0.00897852  0.00011609  0.0043123   0.004910484
  2   -575.5359985199  -0.000267455976 0.01514093  0.00019054  0.0034532   0.003953343
                      *** Initiating the SOSCF procedure ***
                           *** Shutting down KDIIS ***
                      *** Re-Reading the Fockian *** 
                      *** Removing any level shift *** 
ITER      Energy       Delta-E        Grad      Rot      Max-DP    RMS-DP
  3   -575.53631888  -0.0003203551  0.002067  0.002067  0.023887  0.000290
  4   -575.53650143  -0.0001825521  0.000028  0.000029  0.000073  0.000002
  5   -575.53650145  -0.0000000220  0.000011  0.000023  0.000032  0.000001
                  ***Gradient check signals convergence***
              ***Rediagonalizing the Fockian in SOSCF/NRSCF***

               *****************************************************
               *                     SUCCESS                       *
               *           SCF CONVERGED AFTER   6 CYCLES          *
               *****************************************************


----------------
TOTAL SCF ENERGY
----------------

Total Energy       :         -575.53650145 Eh          -15661.14440 eV

Components:
Nuclear Repulsion  :          394.07946156 Eh           10723.44732 eV
Electronic Energy  :         -969.61596302 Eh          -26384.59172 eV
One Electron Energy:        -1570.66769890 Eh          -42740.04095 eV
Two Electron Energy:          601.05173588 Eh           16355.44923 eV

Virial components:
Potential Energy   :        -1150.69237203 Eh          -31311.93131 eV
Kinetic Energy     :          575.15587058 Eh           15650.78691 eV
Virial Ratio       :            2.00066179


---------------
SCF CONVERGENCE
---------------

  Last Energy change         ...   -4.5445e-09  Tolerance :   1.0000e-08
  Last MAX-Density change    ...    5.9081e-06  Tolerance :   1.0000e-07
  Last RMS-Density change    ...    2.3718e-07  Tolerance :   5.0000e-09
  Last Orbital Gradient      ...    1.8646e-06  Tolerance :   1.0000e-05
  Last Orbital Rotation      ...    5.4146e-06  Tolerance :   1.0000e-05

             **** THE GBW FILE WAS UPDATED (P_Me_phosphorinane_eq.gbw) ****
             **** DENSITY FILE WAS UPDATED (P_Me_phosphorinane_eq.scfp.tmp) ****
             **** ENERGY FILE WAS UPDATED (P_Me_phosphorinane_eq.en.tmp) ****
----------------
ORBITAL ENERGIES
----------------

  NO   OCC          E(Eh)            E(eV) 
   0   2.0000     -79.926163     -2174.9015 
   1   2.0000     -11.228705      -305.5486 
   2   2.0000     -11.228673      -305.5477 
   3   2.0000     -11.226176      -305.4798 
   4   2.0000     -11.226170      -305.4796 
   5   2.0000     -11.226056      -305.4765 
   6   2.0000     -11.225207      -305.4534 
   7   2.0000      -7.467625      -203.2044 
   8   2.0000      -5.361707      -145.8995 
   9   2.0000      -5.361511      -145.8941 
  10   2.0000      -5.359533      -145.8403 
  11   2.0000      -1.093801       -29.7638 
  12   2.0000      -1.003875       -27.3168 
  13   2.0000      -0.986204       -26.8360 
  14   2.0000      -0.920615       -25.0512 
  15   2.0000      -0.827749       -22.5242 
  16   2.0000      -0.782567       -21.2947 
  17   2.0000      -0.711904       -19.3719 
  18   2.0000      -0.630254       -17.1501 
  19   2.0000      -0.597589       -16.2612 
  20   2.0000      -0.596517       -16.2320 
  21   2.0000      -0.577848       -15.7240 
  22   2.0000      -0.562777       -15.3140 
  23   2.0000      -0.540884       -14.7182 
  24   2.0000      -0.534822       -14.5533 
  25   2.0000      -0.495609       -13.4862 
  26   2.0000      -0.487470       -13.2647 
  27   2.0000      -0.480938       -13.0870 
  28   2.0000      -0.461959       -12.5705 
  29   2.0000      -0.422715       -11.5027 
  30   2.0000      -0.404831       -11.0160 
  31   2.0000      -0.323732        -8.8092 
  32   0.0000       0.173259         4.7146 
  33   0.0000       0.180485         4.9112 
  34   0.0000       0.194294         5.2870 
  35   0.0000       0.205374         5.5885 
  36   0.0000       0.227184         6.1820 
  37   0.0000       0.229200         6.2368 
  38   0.0000       0.249183         6.7806 
  39   0.0000       0.254914         6.9366 
  40   0.0000       0.257829         7.0159 
  41   0.0000       0.271266         7.3815 
  42   0.0000       0.277598         7.5538 
  43   0.0000       0.281955         7.6724 
  44   0.0000       0.287596         7.8259 
  45   0.0000       0.311288         8.4706 
  46   0.0000       0.315187         8.5767 
  47   0.0000       0.331569         9.0224 
  48   0.0000       0.380325        10.3492 
  49   0.0000       0.382490        10.4081 
  50   0.0000       0.408782        11.1235 
  51   0.0000       0.436298        11.8723 
  52   0.0000       0.545383        14.8406 
  53   0.0000       0.548052        14.9133 
  54   0.0000       0.555027        15.1031 
  55   0.0000       0.590586        16.0707 
  56   0.0000       0.601251        16.3609 
  57   0.0000       0.608893        16.5688 
  58   0.0000       0.629173        17.1207 
  59   0.0000       0.637074        17.3357 
  60   0.0000       0.690176        18.7806 
  61   0.0000       0.755130        20.5481 
  62   0.0000       0.759285        20.6612 
  63   0.0000       0.760108        20.6836 
  64   0.0000       0.766268        20.8512 
  65   0.0000       0.768336        20.9075 
  66   0.0000       0.773256        21.0414 
  67   0.0000       0.821309        22.3490 
  68   0.0000       0.845061        22.9953 
  69   0.0000       0.852264        23.1913 
  70   0.0000       0.857081        23.3224 
  71   0.0000       0.873931        23.7809 
  72   0.0000       0.874192        23.7880 
  73   0.0000       0.889181        24.1958 
  74   0.0000       0.894583        24.3428 
  75   0.0000       0.897023        24.4092 
  76   0.0000       0.902662        24.5627 
  77   0.0000       0.917114        24.9559 
  78   0.0000       0.918714        24.9995 
  79   0.0000       0.928085        25.2545 
  80   0.0000       0.932104        25.3639 
  81   0.0000       0.935359        25.4524 
  82   0.0000       0.949988        25.8505 
  83   0.0000       0.956354        26.0237 
  84   0.0000       0.956615        26.0308 
  85   0.0000       0.986811        26.8525 
  86   0.0000       0.988672        26.9031 
  87   0.0000       1.039422        28.2841 
  88   0.0000       1.134994        30.8848 
  89   0.0000       1.140444        31.0331 
  90   0.0000       1.197432        32.5838 
  91   0.0000       1.204764        32.7833 
  92   0.0000       1.218015        33.1439 
  93   0.0000       1.265424        34.4339 
  94   0.0000       1.316304        35.8184 
  95   0.0000       1.325425        36.0666 
  96   0.0000       1.335390        36.3378 
  97   0.0000       1.340222        36.4693 
  98   0.0000       1.419174        38.6177 
  99   0.0000       1.433619        39.0108 
 100   0.0000       1.462286        39.7908 
 101   0.0000       1.475390        40.1474 
 102   0.0000       1.523480        41.4560 
 103   0.0000       1.628851        44.3233 
 104   0.0000       1.630855        44.3778 
 105   0.0000       1.648479        44.8574 
 106   0.0000       1.660401        45.1818 
 107   0.0000       1.682364        45.7794 
 108   0.0000       1.690116        45.9904 
 109   0.0000       1.834129        49.9092 
 110   0.0000       1.841305        50.1045 
 111   0.0000       1.859261        50.5931 
 112   0.0000       1.866320        50.7851 
 113   0.0000       1.887160        51.3522 
 114   0.0000       1.900163        51.7061 
 115   0.0000       1.907516        51.9062 
 116   0.0000       1.907556        51.9072 
 117   0.0000       1.917061        52.1659 
 118   0.0000       1.930965        52.5442 
 119   0.0000       1.937272        52.7158 
 120   0.0000       1.939806        52.7848 
 121   0.0000       1.957879        53.2766 
 122   0.0000       1.974192        53.7205 
 123   0.0000       1.981708        53.9250 
 124   0.0000       1.986383        54.0522 
 125   0.0000       1.997675        54.3595 
 126   0.0000       2.010654        54.7127 
 127   0.0000       2.025885        55.1271 
 128   0.0000       2.031773        55.2874 
 129   0.0000       2.037889        55.4538 
 130   0.0000       2.055891        55.9436 
 131   0.0000       2.079982        56.5992 
 132   0.0000       2.100966        57.1702 
 133   0.0000       2.108801        57.3834 
 134   0.0000       2.124367        57.8070 
 135   0.0000       2.165634        58.9299 
 136   0.0000       2.214481        60.2591 
 137   0.0000       2.220046        60.4105 
 138   0.0000       2.220232        60.4156 
 139   0.0000       2.294706        62.4421 
 140   0.0000       2.304753        62.7155 
 141   0.0000       2.308934        62.8293 
 142   0.0000       2.401628        65.3516 
 143   0.0000       2.401646        65.3521 
 144   0.0000       2.442693        66.4691 
 145   0.0000       2.447293        66.5942 
 146   0.0000       2.461250        66.9740 
 147   0.0000       2.472119        67.2698 
 148   0.0000       2.521987        68.6267 
 149   0.0000       2.526601        68.7523 
 150   0.0000       2.545044        69.2542 
 151   0.0000       2.555004        69.5252 
 152   0.0000       2.616605        71.2014 
 153   0.0000       2.626129        71.4606 
 154   0.0000       2.757120        75.0251 
 155   0.0000       2.758332        75.0580 
 156   0.0000       2.781781        75.6961 
 157   0.0000       2.788932        75.8907 
 158   0.0000       2.834925        77.1422 
 159   0.0000       2.841338        77.3167 
 160   0.0000       2.853656        77.6519 
 161   0.0000       2.892483        78.7085 
 162   0.0000       2.898637        78.8759 
 163   0.0000       2.980063        81.0916 
 164   0.0000       2.990118        81.3652 
 165   0.0000       2.999003        81.6070 
 166   0.0000       3.090787        84.1046 

                    ********************************
                    * MULLIKEN POPULATION ANALYSIS *
                    ********************************

-----------------------
MULLIKEN ATOMIC CHARGES
-----------------------
   0 C :   -0.228544
   1 P :    0.248039
   2 C :   -0.204961
   3 C :   -0.039330
   4 C :   -0.046189
   5 C :   -0.039337
   6 C :   -0.204956
   7 H :    0.048970
   8 H :    0.039343
   9 H :    0.029368
  10 H :    0.035297
  11 H :    0.022508
  12 H :    0.027075
  13 H :    0.029366
  14 H :    0.035296
  15 H :    0.039344
  16 H :    0.048971
  17 H :    0.046743
  18 H :    0.056498
  19 H :    0.056498
Sum of atomic charges:    0.0000000

--------------------------------
MULLIKEN REDUCED ORBITAL CHARGES
--------------------------------
  0 C s       :     3.127832  s :     3.127832
      pz      :     1.007855  p :     3.057826
      px      :     1.025188
      py      :     1.024783
      dz2     :     0.014507  d :     0.042885
      dxz     :     0.008358
      dyz     :     0.003029
      dx2y2   :     0.005507
      dxy     :     0.011485
  1 P s       :     5.582975  s :     5.582975
      pz      :     3.424904  p :     8.936236
      px      :     2.748635
      py      :     2.762697
      dz2     :     0.019874  d :     0.232751
      dxz     :     0.061867
      dyz     :     0.044928
      dx2y2   :     0.044326
      dxy     :     0.061756
  2 C s       :     3.140684  s :     3.140684
      pz      :     0.999296  p :     3.000130
      px      :     0.978015
      py      :     1.022818
      dz2     :     0.018237  d :     0.064147
      dxz     :     0.011039
      dyz     :     0.006749
      dx2y2   :     0.013731
      dxy     :     0.014391
  3 C s       :     3.071634  s :     3.071634
      pz      :     0.991421  p :     2.883302
      px      :     0.929196
      py      :     0.962686
      dz2     :     0.022584  d :     0.084394
      dxz     :     0.010814
      dyz     :     0.010151
      dx2y2   :     0.019809
      dxy     :     0.021035
  4 C s       :     3.077396  s :     3.077396
      pz      :     0.982241  p :     2.885983
      px      :     0.972766
      py      :     0.930977
      dz2     :     0.024136  d :     0.082810
      dxz     :     0.005347
      dyz     :     0.014152
      dx2y2   :     0.023263
      dxy     :     0.015911
  5 C s       :     3.071641  s :     3.071641
      pz      :     0.991420  p :     2.883302
      px      :     0.929197
      py      :     0.962685
      dz2     :     0.022585  d :     0.084394
      dxz     :     0.010814
      dyz     :     0.010151
      dx2y2   :     0.019809
      dxy     :     0.021035
  6 C s       :     3.140679  s :     3.140679
      pz      :     0.999297  p :     3.000130
      px      :     0.978017
      py      :     1.022816
      dz2     :     0.018236  d :     0.064147
      dxz     :     0.011039
      dyz     :     0.006750
      dx2y2   :     0.013732
      dxy     :     0.014390
  7 H s       :     0.920467  s :     0.920467
      pz      :     0.006890  p :     0.030563
      px      :     0.006531
      py      :     0.017142
  8 H s       :     0.930610  s :     0.930610
      pz      :     0.020747  p :     0.030047
      px      :     0.004230
      py      :     0.005070
  9 H s       :     0.941392  s :     0.941392
      pz      :     0.007142  p :     0.029239
      px      :     0.007713
      py      :     0.014384
 10 H s       :     0.935869  s :     0.935869
      pz      :     0.020517  p :     0.028834
      px      :     0.004023
      py      :     0.004294
 11 H s       :     0.948875  s :     0.948875
      pz      :     0.020387  p :     0.028616
      px      :     0.004583
      py      :     0.003646
 12 H s       :     0.943679  s :     0.943679
      pz      :     0.005670  p :     0.029246
      px      :     0.019732
      py      :     0.003844
 13 H s       :     0.941395  s :     0.941395
      pz      :     0.007142  p :     0.029240
      px      :     0.007713
      py      :     0.014384
 14 H s       :     0.935870  s :     0.935870
      pz      :     0.020517  p :     0.028834
      px      :     0.004023
      py      :     0.004294
 15 H s       :     0.930609  s :     0.930609
      pz      :     0.020747  p :     0.030047
      px      :     0.004230
      py      :     0.005070
 16 H s       :     0.920466  s :     0.920466
      pz      :     0.006890  p :     0.030563
      px      :     0.006532
      py      :     0.017141
 17 H s       :     0.921669  s :     0.921669
      pz      :     0.020611  p :     0.031588
      px      :     0.005913
      py      :     0.005064
 18 H s       :     0.911625  s :     0.911625
      pz      :     0.005929  p :     0.031877
      px      :     0.010354
      py      :     0.015594
 19 H s       :     0.911625  s :     0.911625
      pz      :     0.005929  p :     0.031878
      px      :     0.010355
      py      :     0.015593


                     *******************************
                     * LOEWDIN POPULATION ANALYSIS *
                     *******************************

----------------------
LOEWDIN ATOMIC CHARGES
----------------------
   0 C :   -0.193115
   1 P :    0.399549
   2 C :   -0.157535
   3 C :   -0.043297
   4 C :   -0.035406
   5 C :   -0.043295
   6 C :   -0.157536
   7 H :    0.017775
   8 H :    0.008654
   9 H :    0.021360
  10 H :    0.018752
  11 H :    0.015816
  12 H :    0.021678
  13 H :    0.021359
  14 H :    0.018753
  15 H :    0.008655
  16 H :    0.017775
  17 H :    0.013193
  18 H :    0.023432
  19 H :    0.023430

-------------------------------
LOEWDIN REDUCED ORBITAL CHARGES
-------------------------------
  0 C s       :     2.853429  s :     2.853429
      pz      :     1.072992  p :     3.217787
      px      :     1.077219
      py      :     1.067576
      dz2     :     0.042736  d :     0.121899
      dxz     :     0.022683
      dyz     :     0.007150
      dx2y2   :     0.014375
      dxy     :     0.034954
  1 P s       :     5.240423  s :     5.240423
      pz      :     3.456653  p :     9.053582
      px      :     2.791725
      py      :     2.805205
      dz2     :     0.030699  d :     0.306446
      dxz     :     0.075383
      dyz     :     0.054838
      dx2y2   :     0.062167
      dxy     :     0.083359
  2 C s       :     2.845810  s :     2.845810
      pz      :     1.056366  p :     3.146279
      px      :     1.027751
      py      :     1.062162
      dz2     :     0.048782  d :     0.165446
      dxz     :     0.025995
      dyz     :     0.018126
      dx2y2   :     0.034384
      dxy     :     0.038158
  3 C s       :     2.794297  s :     2.794297
      pz      :     1.033623  p :     3.041659
      px      :     0.996276
      py      :     1.011760
      dz2     :     0.057303  d :     0.207341
      dxz     :     0.025429
      dyz     :     0.024494
      dx2y2   :     0.048507
      dxy     :     0.051607
  4 C s       :     2.795427  s :     2.795427
      pz      :     1.025550  p :     3.035749
      px      :     1.017913
      py      :     0.992286
      dz2     :     0.062186  d :     0.204230
      dxz     :     0.012598
      dyz     :     0.032181
      dx2y2   :     0.058796
      dxy     :     0.038469
  5 C s       :     2.794300  s :     2.794300
      pz      :     1.033623  p :     3.041656
      px      :     0.996273
      py      :     1.011760
      dz2     :     0.057304  d :     0.207340
      dxz     :     0.025428
      dyz     :     0.024494
      dx2y2   :     0.048507
      dxy     :     0.051607
  6 C s       :     2.845808  s :     2.845808
      pz      :     1.056370  p :     3.146283
      px      :     1.027751
      py      :     1.062162
      dz2     :     0.048782  d :     0.165445
      dxz     :     0.025995
      dyz     :     0.018128
      dx2y2   :     0.034385
      dxy     :     0.038156
  7 H s       :     0.898733  s :     0.898733
      pz      :     0.019394  p :     0.083491
      px      :     0.021481
      py      :     0.042616
  8 H s       :     0.908187  s :     0.908187
      pz      :     0.048844  p :     0.083159
      px      :     0.016929
      py      :     0.017387
  9 H s       :     0.900182  s :     0.900182
      pz      :     0.020019  p :     0.078458
      px      :     0.023019
      py      :     0.035420
 10 H s       :     0.902708  s :     0.902708
      pz      :     0.046754  p :     0.078540
      px      :     0.015937
      py      :     0.015849
 11 H s       :     0.906317  s :     0.906317
      pz      :     0.046409  p :     0.077867
      px      :     0.015583
      py      :     0.015876
 12 H s       :     0.900124  s :     0.900124
      pz      :     0.017111  p :     0.078198
      px      :     0.045059
      py      :     0.016028
 13 H s       :     0.900181  s :     0.900181
      pz      :     0.020020  p :     0.078460
      px      :     0.023019
      py      :     0.035421
 14 H s       :     0.902708  s :     0.902708
      pz      :     0.046753  p :     0.078539
      px      :     0.015937
      py      :     0.015849
 15 H s       :     0.908187  s :     0.908187
      pz      :     0.048843  p :     0.083157
      px      :     0.016928
      py      :     0.017386
 16 H s       :     0.898734  s :     0.898734
      pz      :     0.019394  p :     0.083491
      px      :     0.021481
      py      :     0.042616
 17 H s       :     0.903785  s :     0.903785
      pz      :     0.049346  p :     0.083021
      px      :     0.018310
      py      :     0.015365
 18 H s       :     0.893321  s :     0.893321
      pz      :     0.017485  p :     0.083247
      px      :     0.028768
      py      :     0.036994
 19 H s       :     0.893321  s :     0.893321
      pz      :     0.017486  p :     0.083249
      px      :     0.028770
      py      :     0.036992


                      *****************************
                      * MAYER POPULATION ANALYSIS *
                      *****************************

  NA   - Mulliken gross atomic population
  ZA   - Total nuclear charge
  QA   - Mulliken gross atomic charge
  VA   - Mayer's total valence
  BVA  - Mayer's bonded valence
  FA   - Mayer's free valence

  ATOM       NA         ZA         QA         VA         BVA        FA
  0 C      6.2285     6.0000    -0.2285     3.9349     3.9349     0.0000
  1 P     14.7520    15.0000     0.2480     3.0258     3.0258     0.0000
  2 C      6.2050     6.0000    -0.2050     3.9223     3.9223     0.0000
  3 C      6.0393     6.0000    -0.0393     3.9990     3.9990    -0.0000
  4 C      6.0462     6.0000    -0.0462     3.9919     3.9919    -0.0000
  5 C      6.0393     6.0000    -0.0393     3.9990     3.9990    -0.0000
  6 C      6.2050     6.0000    -0.2050     3.9223     3.9223     0.0000
  7 H      0.9510     1.0000     0.0490     0.9713     0.9713     0.0000
  8 H      0.9607     1.0000     0.0393     0.9677     0.9677    -0.0000
  9 H      0.9706     1.0000     0.0294     0.9682     0.9682     0.0000
 10 H      0.9647     1.0000     0.0353     0.9661     0.9661    -0.0000
 11 H      0.9775     1.0000     0.0225     0.9662     0.9662    -0.0000
 12 H      0.9729     1.0000     0.0271     0.9702     0.9702    -0.0000
 13 H      0.9706     1.0000     0.0294     0.9682     0.9682     0.0000
 14 H      0.9647     1.0000     0.0353     0.9661     0.9661    -0.0000
 15 H      0.9607     1.0000     0.0393     0.9677     0.9677     0.0000
 16 H      0.9510     1.0000     0.0490     0.9713     0.9713     0.0000
 17 H      0.9533     1.0000     0.0467     0.9798     0.9798     0.0000
 18 H      0.9435     1.0000     0.0565     0.9783     0.9783     0.0000
 19 H      0.9435     1.0000     0.0565     0.9783     0.9783     0.0000

  Mayer bond orders larger than 0.1
B(  0-C ,  1-P ) :   1.0215 B(  0-C , 17-H ) :   0.9737 B(  0-C , 18-H ) :   0.9785 
B(  0-C , 19-H ) :   0.9785 B(  1-P ,  2-C ) :   0.9884 B(  1-P ,  6-C ) :   0.9884 
B(  2-C ,  3-C ) :   1.0403 B(  2-C , 15-H ) :   0.9599 B(  2-C , 16-H ) :   0.9698 
B(  3-C ,  4-C ) :   1.0429 B(  3-C , 13-H ) :   0.9707 B(  3-C , 14-H ) :   0.9635 
B(  4-C ,  5-C ) :   1.0429 B(  4-C , 11-H ) :   0.9648 B(  4-C , 12-H ) :   0.9728 
B(  5-C ,  6-C ) :   1.0403 B(  5-C ,  9-H ) :   0.9707 B(  5-C , 10-H ) :   0.9635 
B(  6-C ,  7-H ) :   0.9698 B(  6-C ,  8-H ) :   0.9599 

-------
TIMINGS
-------

Total SCF time: 0 days 0 hours 0 min 6 sec 

Total time                  ....       6.663 sec
Sum of individual times     ....       6.493 sec  ( 97.4%)

Fock matrix formation       ....       6.401 sec  ( 96.1%)
Diagonalization             ....       0.014 sec  (  0.2%)
Density matrix formation    ....       0.002 sec  (  0.0%)
Population analysis         ....       0.008 sec  (  0.1%)
Initial guess               ....       0.059 sec  (  0.9%)
Orbital Transformation      ....       0.000 sec  (  0.0%)
Orbital Orthonormalization  ....       0.000 sec  (  0.0%)
DIIS solution               ....       0.000 sec  (  0.0%)
SOSCF solution              ....       0.009 sec  (  0.1%)


           ************************************************************
           *        Program running with 4 parallel MPI-processes     *
           *              working on a common directory               *
           ************************************************************


------------------------------------------------------------------------------- 
                              ORCA-MATRIX DRIVEN CI                            
------------------------------------------------------------------------------- 


Wavefunction type
-----------------
Correlation treatment                      ...      CCSD     
Single excitations                         ... ON
Orbital optimization                       ... OFF
Calculation of Z vector                    ... OFF
Calculation of Brueckner orbitals          ... OFF
Perturbative triple excitations            ... ON
Calculation of F12 correction              ... OFF
Frozen core treatment                      ... chemical core (22 el)
Reference Wavefunction                     ... RHF
  Internal Orbitals:    11 ...   31 ( 21 MO's/ 42 electrons)
  Virtual  Orbitals:    32 ...  166 (135 MO's              )
Number of AO's                             ...    167
Number of electrons                        ...     64
Number of correlated electrons             ...     42

Algorithmic settings
--------------------
Integral transformation                    ... All integrals via the RI transformation
K(C) Formation                             ... RI-DLPNO
   PNO-Integral Storage                    ... ON DISK
   PNO occupation number cut-off           ... 1.000e-07
   Singles PNO occupation number cut-off   ... 3.000e-09
   PNO Mulliken prescreening cut-off       ... 1.000e-03
   Domain cut-off (Mulliken population)    ... 1.000e-03
   PNO Normalization                       ...    1
Maximum number of iterations               ...        50
Convergence tolerance (max. residuum)      ... 1.000e-05
Level shift for amplitude update           ... 2.000e-01
Maximum number of DIIS vectors             ...         7
DIIS turned on at iteration                ...         0
Damping before turning on DIIS             ...     0.500
Damping after turning on DIIS              ...     0.000
Pair specific amplitude update             ... OFF
Natural orbital iterations                 ... OFF
Perturbative natural orbital generation    ... OFF
Printlevel                                 ... 2

Singles Fock matrix elements calculated using PNOs.

Memory handling:
----------------
Maximum memory for working arrays          ...   8000 MB
Data storage in matrix containers          ... UNCOMPRESSED
Data type for integral storage             ... DOUBLE
In-Core Storage of quantities:
   Amplitudes+Sigma Vector      ... NO
   J+K operators                ... NO
   DIIS vectors                 ... NO
   3-external integrals         ... NO
   4-external integrals         ... NO

Localization treatment:
-----------------------
Localization option                        ...    6
Localization threshhold                    ... -1.0e+00
Using relative localization threshhold     ... 1.0e-08
Neglect threshold for strong pairs         ... 1.000e-05 Eh
Prescreening threshold for very weak pairs ... 1.000e-07 Eh

Initializing the integral package          ... done
Localizing the valence orbitals
------------------------------------------------------------------------------
                           ORCA ORBITAL LOCALIZATION
------------------------------------------------------------------------------

Input orbitals are from                  ... P_Me_phosphorinane_eq.proc0.gbw
Output orbitals are to                   ... P_Me_phosphorinane_eq.proc0.loc
Max. number of iterations                ... 128
Localizations seeded randomly            ... off
Convergence tolerance                    ... 1.000e-06
Using relative localization threshhold   ... 1.000e-08
Treshold for strong local MOs            ... 9.500e-01
Treshold for bond MOs                    ... 8.500e-01
Operator                                 ... 0
Orbital range for localization           ... 11 to 31
Localization criterion                   ... FOSTER-BOYS (AUGMENTED HESSIAN)
Doing the dipole integrals     ... o.k.
Initial value of the localization sum :   315.232618
ITERATION   0 : L=  340.6353074848 DL=  2.54e+01 (AVERGE_DL)=    0.3478004998 
ITERATION   1 : L=  342.3849824223 DL=  1.75e+00 (AVERGE_DL)=    0.0912786142 
ITERATION   2 : L=  342.4158814534 DL=  3.09e-02 (AVERGE_DL)=    0.0121300554 
ITERATION   3 : L=  342.4160103148 DL=  1.29e-04 (AVERGE_DL)=    0.0007833426 
ITERATION   4 : L=  342.4160108686 DL=  5.54e-07 (AVERGE_DL)=    0.0000513522 
LOCALIZATION SUM CONVERGED

------------------------------------------------------
AUGMENTED HESSIAN OPTIMIZATION OF FOSTER-BOYS ORBITALS
------------------------------------------------------

Spin operator:           0
Orbital window:          11 to 31
Number of iterations:    128
Gradient tolerance:      1.000e-06
Number of pairs:         210
Davidson threshold:      2000
Diagonalization method:  LAPACK
Iter:    0   L: 342.4160108686   Grad. norm: 1.391999e-03
   *** Likely close to a maximum now. ***
       Augmented Hessian eigenvalues:  1.11e-08 -1.68e+01 -1.74e+01 -1.77e+01 ... 
Iter:    1   L: 342.4160108741   Grad. norm: 4.227515e-10
LOCALIZATION HAS CONVERGED.

Eigenvalues of the Hessian:
  0 -1.683e+01
  1 -1.739e+01
  2 -1.775e+01
  3 -1.775e+01
  4 -1.785e+01
  5 -1.786e+01
  6 -1.789e+01
  7 -1.803e+01
  8 -1.812e+01
  9 -1.815e+01
    ...


------------------------------------------------------------------------------- 
                    LOCALIZED MOLECULAR ORBITAL COMPOSITIONS                   
------------------------------------------------------------------------------- 

The Mulliken populations for each LMO on each atom are computed
The LMO`s will be ordered according to atom index and type
  (A) Strongly localized MO`s have populations of >=0.950 on one atom
  (B) Two center bond orbitals have populations of >=0.850 on two atoms
  (C) Other MO`s are considered to be `delocalized`

FOUND  -   1 strongly local MO`s
       -  20 two center bond MO`s
       -   0 significantly delocalized MO`s

Rather strongly localized orbitals:
MO  11:   1P  -   1.015750
Bond-like localized orbitals:
MO  31:  19H  -   0.487173  and   0C  -   0.521568
MO  30:  18H  -   0.487173  and   0C  -   0.521568
MO  29:  17H  -   0.491908  and   0C  -   0.518072
MO  28:  16H  -   0.493050  and   2C  -   0.516019
MO  27:  15H  -   0.500268  and   2C  -   0.510730
MO  26:  14H  -   0.502737  and   3C  -   0.509980
MO  25:  13H  -   0.504303  and   3C  -   0.506829
MO  24:  12H  -   0.505367  and   4C  -   0.505904
MO  23:  11H  -   0.509972  and   4C  -   0.503074
MO  22:  10H  -   0.502737  and   5C  -   0.509979
MO  21:   9H  -   0.504301  and   5C  -   0.506830
MO  20:   8H  -   0.500269  and   6C  -   0.510729
MO  19:   7H  -   0.493051  and   6C  -   0.516018
MO  18:   6C  -   0.535447  and   5C  -   0.505573
MO  17:   6C  -   0.582085  and   1P  -   0.461355
MO  16:   5C  -   0.525102  and   4C  -   0.522233
MO  15:   4C  -   0.522233  and   3C  -   0.525101
MO  14:   3C  -   0.505573  and   2C  -   0.535446
MO  13:   2C  -   0.582086  and   1P  -   0.461356
MO  12:   1P  -   0.462230  and   0C  -   0.575359
Localized MO's were stored in: P_Me_phosphorinane_eq.proc0.loc

Localizing the core orbitals
------------------------------------------------------------------------------
                           ORCA ORBITAL LOCALIZATION
------------------------------------------------------------------------------

Input orbitals are from                  ... P_Me_phosphorinane_eq.proc0.loc
Output orbitals are to                   ... P_Me_phosphorinane_eq.proc0.loc
Max. number of iterations                ... 128
Localizations seeded randomly            ... off
Convergence tolerance                    ... 1.000e-06
Using relative localization threshhold   ... 1.000e-08
Treshold for strong local MOs            ... 9.500e-01
Treshold for bond MOs                    ... 8.500e-01
Operator                                 ... 0
Orbital range for localization           ... 0 to 10
Localization criterion                   ... FOSTER-BOYS (AUGMENTED HESSIAN)
Doing the dipole integrals     ... o.k.
Initial value of the localization sum :   106.852837
ITERATION   0 : L=  107.0911765475 DL=  2.38e-01 (AVERGE_DL)=    0.0658289753 
ITERATION   1 : L=  107.0983314441 DL=  7.15e-03 (AVERGE_DL)=    0.0114056578 
ITERATION   2 : L=  107.0986150404 DL=  2.84e-04 (AVERGE_DL)=    0.0022707482 
ITERATION   3 : L=  107.0986325218 DL=  1.75e-05 (AVERGE_DL)=    0.0005637760 
ITERATION   4 : L=  107.0986340897 DL=  1.57e-06 (AVERGE_DL)=    0.0001688411 
ITERATION   5 : L=  107.0986342065 DL=  1.17e-07 (AVERGE_DL)=    0.0000460805 
LOCALIZATION SUM CONVERGED

------------------------------------------------------
AUGMENTED HESSIAN OPTIMIZATION OF FOSTER-BOYS ORBITALS
------------------------------------------------------

Spin operator:           0
Orbital window:          0 to 10
Number of iterations:    128
Gradient tolerance:      1.000e-06
Number of pairs:         55
Davidson threshold:      2000
Diagonalization method:  LAPACK
Iter:    0   L: 107.0986342065   Grad. norm: 3.031880e-04
   *** Detected a saddle point. ***
       Augmented Hessian eigenvalues:  4.57e-04  1.58e-04  5.87e-05 -2.24e-04 ... 
Iter:    1   L: 107.0986454768   Grad. norm: 3.169394e-04
Iter:    2   L: 107.0986723261   Grad. norm: 3.270391e-04
Iter:    3   L: 107.0987074899   Grad. norm: 3.045612e-04
Iter:    4   L: 107.0987422634   Grad. norm: 2.335177e-04
Iter:    5   L: 107.0987669036   Grad. norm: 1.290633e-04
Iter:    6   L: 107.0987763323   Grad. norm: 1.603807e-05
   *** Likely close to a maximum now. ***
       Augmented Hessian eigenvalues:  9.02e-08 -3.63e-04 -3.98e-04 -4.96e-04 ... 
Iter:    7   L: 107.0987763775   Grad. norm: 7.436299e-08
LOCALIZATION HAS CONVERGED.

Eigenvalues of the Hessian:
  0 -3.620e-04
  1 -3.988e-04
  2 -4.956e-04
  3 -1.635e-01
  4 -1.642e-01
  5 -1.642e-01
  6 -4.917e-01
  7 -6.548e-01
  8 -6.563e-01
  9 -6.564e-01
    ...


------------------------------------------------------------------------------- 
                    LOCALIZED MOLECULAR ORBITAL COMPOSITIONS                   
------------------------------------------------------------------------------- 

The Mulliken populations for each LMO on each atom are computed
The LMO`s will be ordered according to atom index and type
  (A) Strongly localized MO`s have populations of >=0.950 on one atom
  (B) Two center bond orbitals have populations of >=0.850 on two atoms
  (C) Other MO`s are considered to be `delocalized`

FOUND  -  11 strongly local MO`s
       -   0 two center bond MO`s
       -   0 significantly delocalized MO`s

Rather strongly localized orbitals:
MO  10:   6C  -   0.999327
MO   9:   5C  -   0.999215
MO   8:   4C  -   0.999239
MO   7:   3C  -   0.999215
MO   6:   2C  -   0.999327
MO   5:   1P  -   0.999994
MO   4:   1P  -   0.999603
MO   3:   1P  -   0.999319
MO   2:   1P  -   0.999319
MO   1:   1P  -   0.999122
MO   0:   0C  -   0.999573
Localized MO's were stored in: P_Me_phosphorinane_eq.proc0.loc

Warning: internal orbitals are localized - no re-canonicalization of internal orbitals

--------------------------
CLOSED-SHELL FOCK OPERATOR
--------------------------

RI-JK section for the Fock operator:
  RHF full Fock operator         ... done
  RHF frozen core Fock operator  ... done
Time needed for Fock operator              ...            1.853 sec
Reference energy                           ...   -575.536501454

--------------
DLPNO SETTINGS (2015 fully linear scaling implementation)
--------------

TCutMKN:           1.000e-03
TCutPAO:           1.000e-03
TCutPNO:           1.000e-07
TCutPNOSingles:    3.000e-09
TCutEN:            9.700e-01
TCutPAOExt:        1.000e-01
TCutPairs:         1.000e-05
TCutPre:           1.000e-07
TCutOSV:           1.000e-06
TCutDOij:          1.000e-05
TCutDO:            5.000e-03
TCutC:             1.000e-04
TCutCPAO:          1.000e-03
TCutCMO:           1.000e-03
TScaleDOMP2PreScr: 2.000e+00
TScaleMKNMP2PreScr:1.000e+01
TScalePNOMP2PreScr:1.000e+00
PAO overlap thresh 1.000e-08
Using PNOs for Singles Fock computation
Use new domains
Use fully linear algorithm
TCutTNO:           1.000e-09
TCutMP2Pairs:      1.000e-06
TCutDOStrong:      2.000e-03
TCutMKNStrong:     1.000e-02
TCutMKNWeak:       1.000e-01
TCutDOWeak:        4.000e-03
NTCutTNO:          1

--------------------------
Calculating differential overlap integrals ... ok
--------------------------
ELECTRON PAIR PRESCREENING
--------------------------

Dipole-based pair screening          .... used

   TCutDOij = 1.000000e-05
   TCutPre  = 1.000000e-07
   .... Finished loop over pairs
Total time spent in the prescreening                  ...     0.000 sec
sum of pair energies estimated for screened out pairs ...       0.000000000000 Eh
Thresholds for map construction and integral transformation for crude MP2:
   TCutMKN                    ...     1.0e-02
   TCutDO                     ...     1.0e-02
   TCutPairs                  ...     1.0e-05
   TCutPNO_CrudeMP2           ...     1.0e-07
   TCutPNOSingles_CrudeMP2    ...     3.0e-09
--------------------------------
LOCAL RI TRANSFORMATION (IAVPAO)
--------------------------------

Orbital window:      11 to 31
Number of PAOs:     167
Basis functions:    167 (83 shells)
Aux. functions:     594 (210 shells)

Processing maps (0.0 sec)
Average map sizes:
   Aux shells -> MOs              21.0
   Aux shells -> PAOs            167.0
   MOs        -> AO shells        80.6
   PAOs       -> AO shells        83.0

Calculating integrals (0.5 sec, 15.900 MB)
Sorting integrals (0.0 sec, 15.893 MB)
Total time for the integral transformation: 0.6 sec
--------------------------------
INITIAL GUESS AND PNO GENERATION
--------------------------------

PNO truncation parameters                   .... 
    PAOOverlapThresh   =        1.000e-08

    TCutPairs          =        1.000e-05
    TCutPNO            =        1.000e-07
    TCutPNOSingles     =        3.000e-09
    TCutMP2Pairs       =        1.000e-06
    TCutMKN            =        1.000e-02
    TCutDO             =        1.000e-02

Pair selection                          .... not used
Type of local MP2 treatment                 .... semi-local MP2
Strategy for PNO selection                  .... occupation number selection
Pair density normalization                  .... MP2 norm
Spin component scaling                      .... not used

   .... Finished loop over pairs
Making pair pair interaction lists          ... done

                       ===========================
                        226 OF  231 PAIRS ARE KEPT CCSD PAIRS
                          5 OF  231 PAIRS ARE KEPT MP2 PAIRS FOR (T)
                          0 OF  231 PAIRS ARE SKIPPED
                       ===========================

Total time spent in the initial guess                 ...     0.765 sec
SL-MP2 correlation energy (all non-screened pairs)    ...      -0.948350141350 Eh

Initial PNO correlation energy                        ...      -0.947845017858 Eh
sum of pair energies prescreened and skipped MP2 pairs...       0.000000000000 Eh
sum of pair energies of crude MP2 skipped pairs only  ...       0.000000000000 Eh
sum of MP2 pair energies for pairs that were not kept ...      -0.000045633397 Eh
sum of PNO error estimates for the kept pairs         ...      -0.000459490095 Eh
                                                          --------------------
sum of all corrections                                         -0.000505123492
Initial total correlation energy                               -0.948350141350
Thresholds for map construction and integral transformation for fine MP2 and CCSD(T) calculation:
   TCutMKN   ...     1.0e-03
   TCutDO    ...     5.0e-03
   TCutPairs ...     1.0e-05
   TCutCMO   ...     1.0e-03
   TCutCPAO  ...     1.0e-03

Thresholds for map construction and integral transformation for strong Triples:
   TCutMKN   ...     1.0e-02
   TCutDO    ...     1.0e-02
   TCutCMO   ...     1.0e-03
   TCutCPAO  ...     1.0e-03

Thresholds for map construction and integral transformation for weak Triples:
   TCutMKN   ...     1.0e-01
   TCutDO    ...     2.0e-02
   TCutCMO   ...     1.0e-03
   TCutCPAO  ...     1.0e-03

--------------------------------
LOCAL RI TRANSFORMATION (IAVPAO)
--------------------------------

Orbital window:      11 to 31
Number of PAOs:     167
Basis functions:    167 (83 shells)
Aux. functions:     594 (210 shells)

Processing maps (0.0 sec)
Average map sizes:
   Aux shells -> MOs              21.0
   Aux shells -> PAOs            167.0
   MOs        -> AO shells        80.6
   PAOs       -> AO shells        83.0

Calculating integrals (0.5 sec, 15.900 MB)
Sorting integrals (0.0 sec, 15.893 MB)
Total time for the integral transformation: 0.6 sec
--------------------------------
INITIAL GUESS AND PNO GENERATION
--------------------------------

PNO truncation parameters                   .... 
    ScaleTCutPNO       =        1.000e-02
    PAOOverlapThresh   =        1.000e-08

    TCutPairs          =        1.000e-05
    TCutPNO            =        1.000e-07
    TCutPNOSingles     =        3.000e-09
    TCutMP2Pairs       =        1.000e-06
    TCutMKN            =        1.000e-03
    TCutDO             =        5.000e-03

Pair selection                          .... not used
Type of local MP2 treatment                 .... full local PMP2
Strategy for PNO selection                  .... occupation number selection
Pair density normalization                  .... MP2 norm
Spin component scaling                      .... not used

PASS-1: Formation of initial guess LMP2 amplitudes
Initial amplitudes guess done. Entering LMP2 iteration loop:
   Max. no of iterations          ...  50
   Energy convergence tolerance   ...    1.0e-07
   Residual convergence tolerance ...    5.0e-07
   Fock matrix cutoff             ...    1.0e-05 Eh
   DIIS convergence acceleration parameters:
        Max # vectors in DIIS     ... 7
        Start iteration of DIIS   ... 0
        Levelshift                ... 2.000e-01
        Damping factor 1          ... 5.000e-01
        Damping factor 2          ... 1.000e+00
   L-MP2 PNO cut-off              ...   1.0e-09
   L-MP2 PNO cut-off (core)       ...   1.0e-11
                           *** Turning on DIIS ***
LMP2-Iter=   0:  ELMP2= -0.968061548591  DE=   1.9e-02 RMAX=   4.0e-03
LMP2-Iter=   1:  ELMP2= -0.978193595385  DE=   1.0e-02 RMAX=   1.7e-03
LMP2-Iter=   2:  ELMP2= -0.979807385764  DE=   1.6e-03 RMAX=   2.8e-04
LMP2-Iter=   3:  ELMP2= -0.979937316493  DE=   1.3e-04 RMAX=   1.1e-04
LMP2-Iter=   4:  ELMP2= -0.979940681177  DE=   3.4e-06 RMAX=   2.1e-05
LMP2-Iter=   5:  ELMP2= -0.979939417345  DE=   1.3e-06 RMAX=   5.7e-06
LMP2-Iter=   6:  ELMP2= -0.979939313714  DE=   1.0e-07 RMAX=   7.9e-07
LMP2-Iter=   7:  ELMP2= -0.979939312940  DE=   7.7e-10 RMAX=   1.9e-07
LMP2-Iter=   8:  ELMP2= -0.979939315031  DE=   2.1e-09 RMAX=   1.9e-08 => CONVERGED
PASS-2: Formation of Pair natural orbitals
   .... Finished loop over pairs

 PNO Occupation Number Statistics: 
  | Av. % of trace(Dij) retained        ...  99.550675143705
  | sigma^2 in % of trace(Dij) retained ...   4.35e-01
  | Av. % of trace(Di) retained         ...  99.999873524751
  | sigma^2 in % of trace(Di) retained  ...   2.19e-09
 Distributions of % trace(Dij) recovered:
  |       >= 99.9  ...   104 ( 45.0 % of all pairs)
  |   [90.0, 99.0) ...    34 ( 14.7 % of all pairs)
  |   [99.0, 99.9) ...    93 ( 40.3 % of all pairs)
 Distributions of % trace(Di) recovered :
  |       >= 99.9  ...    21 (100.0 % of all I-pairs )

Making pair pair interaction lists          ... done

                       ===========================
                        226 OF  231 PAIRS ARE KEPT
                       ===========================

Total time spent in the initial guess                 ...     6.579 sec
L-MP2 correlation energy (all non-screened pairs)     ...      -0.979939315031 Eh
L-MP2 PNO error correction                            ...      -0.000007659453 Eh
                                                          --------------------
Initial total L-MP2 energy (non-screened pairs)       ...      -0.979946974485 Eh

Initial PNO correlation energy                        ...      -0.979531028272 Eh
sum of pair energies estimated for screened out pairs ...       0.000000000000 Eh
sum of MP2 pair energies for pairs that were not kept ...      -0.000054656584 Eh
sum of PNO error estimates for the kept pairs         ...      -0.000413953348 Eh
                                                          --------------------
sum of all corrections                                         -0.000468609932
Initial total correlation energy                               -0.979999638205
Thresholds for map construction and integral transformation for fine MP2 and CCSD(T) calculation:
   TCutMKN   ...     1.0e-03
   TCutDO    ...     5.0e-03
   TCutPairs ...     1.0e-05
   TCutCMO   ...     1.0e-03
   TCutCPAO  ...     1.0e-03

Time for aux screen maps:            0.003
Time for maps after fine MP2:            0.012
-----------------------------
LOCAL RI TRANSFORMATION (IJV)
-----------------------------

Orbital window:      11 to 31
Basis functions:    167 (83 shells)
Aux. functions:     594 (210 shells)

Processing maps (0.0 sec)
Average map sizes:
   Aux shells -> MOs(i)           21.0
   Aux shells -> MOs(j)           21.0
   MOs        -> AO shells        80.6

Calculating integrals (0.5 sec, 2.005 MB)
Sorting integrals (0.0 sec, 1.999 MB)
Total time for the integral transformation: 0.5 sec
--------------------------------
LOCAL RI TRANSFORMATION (VABPAO)
--------------------------------

Number of PAOs:     167
Basis functions:    167 (83 shells)
Aux. functions:     594 (210 shells)

Processing maps (0.0 sec)
Average map sizes:
   Aux shells -> PAOs            167.0
   PAOs       -> AO shells        83.0

Calculating integrals (0.7 sec, 224.065 MB)
Finished


-------------------------------------
Pair Pair Term precalculation with     
RI-(ij|mn) and (im|jn) transformation  
ON THE FLY                             
-------------------------------------

   IBatch   1 (of   1)              ... done (   24.280 sec)
Total EXT                           ...          24.364 sec

---------------------
RI-PNO TRANSFORMATION
---------------------

Total Number of PNOs                   ...  6438
Average number of PNOs per pair        ...    28
Maximal number of PNOs per pair        ...    44
   #pairs with  1 -  5 PNOs   :    0
   #pairs with  6 - 10 PNOs   :    9
   #pairs with 11 - 15 PNOs   :   15
   #pairs with 16 - 20 PNOs   :   23
   #pairs with 21 - 25 PNOs   :   37
   #pairs with 26 - 30 PNOs   :   32
   #pairs with 31 - 35 PNOs   :   51
   #pairs with 36 - 40 PNOs   :   48
   #pairs with 41 - 45 PNOs   :   11
   #pairs with 46 - 50 PNOs   :    0

Generation of (ij|ab)[P] integrals            ... on
Generation of (ia|bc)[P],(ja|bc)[P] integrals ... on
Storage of 3 and 4 external integrals         ... on
Generation of ALL (ka|bc)[P] integrals        ... on
Keep RI integrals in memory                   ... off

Ibatch:  1 (of  1)
Starting 2-4 index PNO integral generation ... done

Timings:
Total PNO integral transformation time     ...          6.809 sec
Size of the 3-external file                ...        53 MB
Size of the 4-external file                ...       241 MB
Size of the IKJL file                      ...         0 MB
Size of the all 3-external file            ...       562 MB
Size of the 1-external file                ...         3 MB

Making pair/pair overlap matrices          ... done (    1.307 sec)
Size of the pair overlap file              ... 210 MB
Redoing the guess amplitudes               ... done (    0.002 sec)

-------------------------
FINAL STARTUP INFORMATION
-------------------------

E(0)                                       ...   -575.536501454
E(L-MP2)                                   ...     -0.979946974
E(L-MP2) including corrections             ...     -0.979999638
Initial E(tot)                             ...   -576.516501092
<T|T>                                      ...      0.328711097
Number of pairs included                   ... 226
Total number of pairs                      ... 231

------------------------------------------------
                  RHF COUPLED CLUSTER ITERATIONS
------------------------------------------------

Number of PNO amplitudes to be optimized   ...       203016
Number of non-PNO amplitudes               ...      4118850
Untruncated number of regular amplitudes   ...      4209975

Iter       E(tot)           E(Corr)          Delta-E          Residual     Time
  0   -576.485183928     -0.948213864      0.031733110      0.019790841    4.11
                           *** Turning on DIIS ***
  1   -576.564812621     -1.027842557     -0.079628693      0.007323603    4.14
  2   -576.600864190     -1.063894126     -0.036051568      0.001938284    4.11
  3   -576.605706253     -1.068736189     -0.004842064      0.000898448    4.11
  4   -576.606734639     -1.069764575     -0.001028386      0.000315488    4.12
  5   -576.606927975     -1.069957911     -0.000193336      0.000154901    4.14
  6   -576.606974280     -1.070004216     -0.000046304      0.000073726    4.14
  7   -576.606980842     -1.070010778     -0.000006562      0.000030560    4.15
  8   -576.606982302     -1.070012238     -0.000001460      0.000009819    4.22
               --- The Coupled-Cluster iterations have converged ---

----------------------
COUPLED CLUSTER ENERGY
----------------------

E(0)                                       ...   -575.536501454
E(CORR)(strong-pairs)                      ...     -1.070012238
E(CORR)(weak-pairs)                        ...     -0.000468610
E(CORR)(corrected)                         ...     -1.070480848
E(TOT)                                     ...   -576.606982302
Singles Norm <S|S>**1/2                    ...      0.054545384  
T1 diagnostic                              ...      0.008416536  

------------------
LARGEST AMPLITUDES
------------------
  11-> 33  11-> 33       0.059094
  11-> 32  11-> 32       0.053423
  24-> 41  24-> 41       0.041097
  31-> 41  31-> 41       0.040982
  30-> 41  30-> 41       0.040981
  23-> 40  23-> 40       0.039652
  20-> 43  20-> 43       0.038358
  27-> 43  27-> 43       0.038357
  25-> 41  25-> 41       0.038261
  21-> 41  21-> 41       0.038261
  29-> 42  29-> 42       0.038162
  23-> 32  23-> 32       0.037661
  24-> 32  24-> 32       0.037083
  21-> 32  21-> 32       0.036555
  25-> 32  25-> 32       0.036554
  28-> 32  28-> 32       0.036424


-------------------------------------------
DLPNO BASED TRIPLES CORRECTION
-------------------------------------------

Singles multiplier          ...  1.000000
TCutTNO                     ... 1.000e-09
TCutMP2Pairs                ... 1.000e-06
TCutDOStrong                ... 1.000e-02
TCutMKNStrong               ... 1.000e-02
TCutDOWeak                  ... 2.000e-02
TCutMKNWeak                 ... 1.000e-01

Fragment selection                          .... not used
Number of Triples that are to be computed   ...      1734

 . . . . . . . . .
10% done  
20% done  
30% done  
40% done  
50% done  
60% done  
70% done  
80% done  
90% done               (     57.141 sec)
Triples timings:
Total time for T0               ...    61.510 sec
Total time for Iterative (T)    ...     0.000 sec
Total time of overall (T)       ...    61.755 sec

Triples List generation         ...     0.000 sec
TNO generation                  ...     4.365 sec
Pair density generation         ...     0.003 sec
Look up tables                  ...     0.000 sec
Generating 3-index integrals    ...    29.984 sec
  Make 4-ind.int. from 3-ind.int...     9.434 sec
  Projecting amplitudes (D + S) ...     6.407 sec
  Downprojecting integrals      ...     0.002 sec
  Energy contr. (sum over a,b,c)...     3.286 sec
Fitting ET(->0)                 ...     0.000 sec

Everything after 3-index        ...    27.156 sec

Timing details:
 TNO integrals                  ...    38.182 sec
   Reading 3-index integrals    ...     0.044 sec
   Sorting integrals            ...     6.492 sec
       Sorting integrals 1      ...     0.001 sec
       Sorting integrals 2      ...     2.492 sec
       Sorting integrals 3      ...     0.321 sec
       Sorting integrals 4      ...     0.037 sec
       Sorting integrals 5      ...     0.100 sec
       Sorting integrals 6      ...     3.540 sec
   Calculating local VM**-1/2   ...     0.297 sec
   Orthogonal. integrals        ...     0.573 sec
   Multipl. 3-index integrals   ...    30.777 sec
   All concerning IRIab (w/TNO) ...     4.632 sec

 Calculate W0/W1                ...     8.015 sec
 W 3-ext contribution           ...     4.394 sec
 W 3-int contribution           ...     1.498 sec
 Sorting W                      ...     1.956 sec

 V exchange contribution        ...     1.309 sec

 Timings for Triples without generation
     of 3-index integrals       ...    27.151 sec
       0 weak pairs             ...    26.308 sec
       1 weak pair              ...     0.843 sec
       2 weak pairs             ...     0.000 sec
       3 weak pairs             ...     0.000 sec
  Extra time for extrapolation  ...     0.000 sec

Number of Triples   (0, 1, 2, 3 weak pairs; overall):   1651      83       0       0  (  1734)
Number of Atoms     (0, 1, 2, 3 weak pairs; overall):   18.6    15.9     0.0     0.0  (    20)
Number of PAOs      (0, 1, 2, 3 weak pairs; overall):  158.8   144.5     0.0     0.0  (   167)
Number of AuxFcns   (0, 1, 2, 3 weak pairs; overall):  250.5   219.5     0.0     0.0  (   594)
Number of TNOs      (0, 1, 2, 3 weak pairs         ):   66.2    54.6     0.0     0.0
Aver. Number of NTNO, Atoms, PAOs, AuxFcns / Triples:   1734    65.7    18.5   158.1   249.1

Triples Correction (T)                     ...     -0.033942379
Final correlation energy                   ...     -1.104423228
E(CCSD)                                    ...   -576.606982302
E(CCSD(T))                                 ...   -576.640924682


Maximum memory used throughout the entire calculation: 5961.0 MB


------------------------------------------------------------------------------- 
                                     TIMINGS                                   
------------------------------------------------------------------------------- 


Total execution time                   ...      145.439 sec

Localization of occupied MO's          ...        0.476 sec (  0.3%)
Fock Matrix Formation                  ...        1.853 sec (  1.3%)
Global overlap, Fock, MKN matrices     ...        0.134 sec (  0.1%)
Differential overlap integrals         ...        0.147 sec (  0.1%)
Organizing maps                        ...        0.038 sec (  0.0%)
RI 3-index integral generations        ...        2.441 sec (  1.7%)
RI-PNO integral transformation         ...       33.593 sec ( 23.1%)
Initial Guess                          ...        7.363 sec (  5.1%)
DIIS Solver                            ...        0.653 sec (  0.4%)
State Vector Update                    ...        0.014 sec (  0.0%)
Sigma-vector construction              ...       37.109 sec ( 25.5%)
  <D|H|D>(0-ext)                       ...        2.692 sec (  7.3% of sigma)
  <D|H|D>(2-ext Fock)                  ...        0.014 sec (  0.0% of sigma)
  <D|H|D>(2-ext)                       ...        6.066 sec ( 16.3% of sigma)
  <D|H|D>(4-ext)                       ...        2.520 sec (  6.8% of sigma)
  <D|H|D>(4-ext-corr)                  ...       13.837 sec ( 37.3% of sigma)
  CCSD doubles correction              ...        0.215 sec (  0.6% of sigma)
  <S|H|S>                              ...        0.374 sec (  1.0% of sigma)
  <S|H|D>(1-ext)                       ...        0.323 sec (  0.9% of sigma)
  <D|H|S>(1-ext)                       ...        0.012 sec (  0.0% of sigma)
  <S|H|D>(3-ext)                       ...        0.189 sec (  0.5% of sigma)
  Fock-dressing                        ...        6.462 sec ( 17.4% of sigma)
  Singles amplitudes                   ...        0.246 sec (  0.7% of sigma)
  (ik|jl)-dressing                     ...        1.932 sec (  5.2% of sigma)
  (ij|ab),(ia|jb)-dressing             ...        1.923 sec (  5.2% of sigma)
  Pair energies                        ...        0.005 sec (  0.0% of sigma)
Total Time for computing (T)           ...       61.835 sec ( 42.5% of ALL)


-------------------------   --------------------
FINAL SINGLE POINT ENERGY      -576.640924681608
-------------------------   --------------------


                            ***************************************
                            *     ORCA property calculations      *
                            ***************************************

                                    ---------------------
                                    Active property flags
                                    ---------------------
   (+) Dipole Moment


------------------------------------------------------------------------------
                       ORCA ELECTRIC PROPERTIES CALCULATION
------------------------------------------------------------------------------

Dipole Moment Calculation                       ... on
Quadrupole Moment Calculation                   ... off
Polarizability Calculation                      ... off
GBWName                                         ... P_Me_phosphorinane_eq.gbw
Electron density file                           ... P_Me_phosphorinane_eq.scfp.tmp
The origin for moment calculation is the CENTER OF MASS  = ( 0.050468, -0.000001 -0.070653)

-------------
DIPOLE MOMENT
-------------
                                X             Y             Z
Electronic contribution:      3.10534      -0.00003      -4.04647
Nuclear contribution   :     -3.23010       0.00002       4.52181
                        -----------------------------------------
Total Dipole Moment    :     -0.12476      -0.00000       0.47534
                        -----------------------------------------
Magnitude (a.u.)       :      0.49144
Magnitude (Debye)      :      1.24915



--------------------
Rotational spectrum 
--------------------
 
Rotational constants in cm-1:     0.116695     0.057183     0.043981 
Rotational constants in MHz :  3498.418166  1714.296728  1318.526348 

 Dipole components along the rotational axes: 
x,y,z [a.u.] :     0.134952    -0.000002     0.472552 
x,y,z [Debye]:     0.343021    -0.000006     1.201131 

 

Timings for individual modules:

Sum of individual times         ...      152.942 sec (=   2.549 min)
GTO integral calculation        ...        0.563 sec (=   0.009 min)   0.4 %
SCF iterations                  ...        6.755 sec (=   0.113 min)   4.4 %
MDCI module                     ...      145.624 sec (=   2.427 min)  95.2 %
                             ****ORCA TERMINATED NORMALLY****
TOTAL RUN TIME: 0 days 0 hours 2 minutes 33 seconds 215 msec
P_Me_phosphorinane_eq.gbw -> /home1/pantazis/klk/VDZ/Phosphorus_compounds/P_Me_phosphorinane_eq.gbw
P_Me_phosphorinane_eq.ges -> /home1/pantazis/klk/VDZ/Phosphorus_compounds/P_Me_phosphorinane_eq.ges
P_Me_phosphorinane_eq.job -> /home1/pantazis/klk/VDZ/Phosphorus_compounds/P_Me_phosphorinane_eq.job
P_Me_phosphorinane_eq.loc -> /home1/pantazis/klk/VDZ/Phosphorus_compounds/P_Me_phosphorinane_eq.loc
P_Me_phosphorinane_eq.nodes -> /home1/pantazis/klk/VDZ/Phosphorus_compounds/P_Me_phosphorinane_eq.nodes
P_Me_phosphorinane_eq.prop -> /home1/pantazis/klk/VDZ/Phosphorus_compounds/P_Me_phosphorinane_eq.prop
P_Me_phosphorinane_eq_property.txt -> /home1/pantazis/klk/VDZ/Phosphorus_compounds/P_Me_phosphorinane_eq_property.txt
P_Me_phosphorinane_eq.xyz -> /home1/pantazis/klk/VDZ/Phosphorus_compounds/P_Me_phosphorinane_eq.xyz
cp: cannot stat P_Me_phosphorinane_eq.asa.inp: No such file or directory
