! Job execution by suborca V 6.07 on ZEUS !
Job started from zeus1, running /scratch/pantazis/piperidine_eq__KRrl3g/orca/orca copied from /opt/orca on zeussn126 in /scratch/pantazis/piperidine_eq__KRrl3g
Job execution start: Sat Jun 29 11:37:12 CEST 2019
Shared library path: /scratch/pantazis/piperidine_eq__KRrl3g/orca:/opt/openmpi_1.10.2/lib:/opt/intel/mkl/lib/intel64:/opt/intel/lib/intel64:
PBS Job ID is: 158865.icqc
izeussn126
izeussn126
izeussn126
izeussn126

                                 *****************
                                 * O   R   C   A *
                                 *****************

           --- An Ab Initio, DFT and Semiempirical electronic structure package ---

                  #######################################################
                  #                        -***-                        #
                  #          Department of theory and spectroscopy      #
                  #               Directorship: Frank Neese             #
                  #        Max Planck Institute fuer Kohlenforschung    #
                  #                Kaiser Wilhelm Platz 1               #
                  #                 D-45470 Muelheim/Ruhr               #
                  #                      Germany                        #
                  #                                                     #
                  #                  All rights reserved                #
                  #                        -***-                        #
                  #######################################################


                         Program Version 4.1.x  -  STABLE  -
                                (SVN: $Rev: 14094$)
                ($Date: 2019-06-14 15:01:15 +0200 (Fri, 14 Jun 2019) $)

                         (BUILD: $Sun Jun 23 06:18:31 CEST 2019$)


 With contributions from (in alphabetic order):
   Daniel Aravena         : Magnetic Properties
   Michael Atanasov       : Ab Initio Ligand Field Theory
   Alexander A. Auer      : GIAO ZORA
   Ute Becker             : Parallelization
   Giovanni Bistoni       : ED, Open-shell LED
   Martin Brehm           : Molecular dynamics
   Dmytro Bykov           : SCF Hessian
   Vijay G. Chilkuri      : MRCI spin determinant printing
   Dipayan Datta          : RHF DLPNO-CCSD density
   Achintya Kumar Dutta   : EOM-CC, STEOM-CC
   Dmitry Ganyushin       : Spin-Orbit,Spin-Spin,Magnetic field MRCI
   Miquel Garcia          : C-PCM Hessian
   Yang Guo               : DLPNO-NEVPT2, CIM, IAO-localization
   Andreas Hansen         : Spin unrestricted coupled pair/coupled cluster methods
   Benjamin Helmich-Paris : CASSCF linear response (MC-RPA)
   Lee Huntington         : MR-EOM, pCC
   Robert Izsak           : Overlap fitted RIJCOSX, COSX-SCS-MP3, EOM
   Christian Kollmar      : KDIIS, OOCD, Brueckner-CCSD(T), CCSD density
   Simone Kossmann        : Meta GGA functionals, TD-DFT gradient, OOMP2, MP2 Hessian
   Martin Krupicka        : AUTO-CI
   Lucas Lang             : DCDCAS
   Dagmar Lenk            : GEPOL surface, SMD
   Dimitrios Liakos       : Extrapolation schemes; parallel MDCI
   Dimitrios Manganas     : ROCIS; embedding schemes
   Dimitrios Pantazis     : SARC Basis sets
   Taras Petrenko         : DFT Hessian,TD-DFT gradient, ASA, ECA, R-Raman, ABS, FL, XAS/XES, NRVS
   Peter Pinski           : DLPNO-MP2, DLPNO-MP2 Gradient
   Christoph Reimann      : Effective Core Potentials
   Marius Retegan         : Local ZFS, SOC
   Christoph Riplinger    : Optimizer, TS searches, QM/MM, DLPNO-CCSD(T), (RO)-DLPNO pert. Triples
   Tobias Risthaus        : Range-separated hybrids, TD-DFT gradient, RPA, STAB
   Michael Roemelt        : Restricted open shell CIS
   Masaaki Saitow         : Open-shell DLPNO
   Barbara Sandhoefer     : DKH picture change effects
   Avijit Sen             : IP-ROCIS
   Kantharuban Sivalingam : CASSCF convergence, NEVPT2, FIC-MRCI
   Bernardo de Souza      : ESD, SOC TD-DFT
   Georgi Stoychev        : AutoAux, RI-MP2 NMR
   Willem Van den Heuvel  : Paramagnetic NMR
   Boris Wezisla          : Elementary symmetry handling
   Frank Wennmohs         : Technical directorship


 We gratefully acknowledge several colleagues who have allowed us to
 interface, adapt or use parts of their codes:
   Stefan Grimme, W. Hujo, H. Kruse,             : VdW corrections, initial TS optimization,
                  C. Bannwarth                     DFT functionals, gCP, sTDA/sTD-DF
   Ed Valeev                                     : LibInt (2-el integral package), F12 methods
   Garnet Chan, S. Sharma, J. Yang, R. Olivares  : DMRG
   Ulf Ekstrom                                   : XCFun DFT Library
   Mihaly Kallay                                 : mrcc  (arbitrary order and MRCC methods)
   Andreas Klamt, Michael Diedenhofen            : otool_cosmo (COSMO solvation model)
   Jiri Pittner, Ondrej Demel                    : Mk-CCSD
   Frank Weinhold                                : gennbo (NPA and NBO analysis)
   Christopher J. Cramer and Donald G. Truhlar   : smd solvation model
   Lars Goerigk                                  : TD-DFT with DH, B97 family of functionals
   V. Asgeirsson, H. Jonsson                     : NEB implementation
   FAccTs GmbH                                   : IRC, NEB, NEB-TS, Multilevel


 Your calculation uses the libint2 library for the computation of 2-el integrals
 For citations please refer to: http://libint.valeyev.net

 This ORCA versions uses:
   CBLAS   interface :  Fast vector & matrix operations
   LAPACKE interface :  Fast linear algebra routines
   SCALAPACK package :  Parallel linear algebra routines




***************************************
The coordinates will be read from file: piperidine_eq.xyz
***************************************


----- Orbital basis set information -----
Your calculation utilizes the basis: cc-pVDZ 
       H, B-Ne : Obtained from the ccRepo (grant-hill.group.shef.ac.uk/ccrepo) Feb. 2017
                 T. H. Dunning, Jr., J. Chem. Phys. 90, 1007 (1989)
            He : Obtained from the ccRepo (grant-hill.group.shef.ac.uk/ccrepo) Feb. 2017
                 D. E. Woon, T. H. Dunning, Jr., J. Chem. Phys. 100, 2975 (1994)
  Li-Be, Na-Mg : Obtained from the ccRepo (grant-hill.group.shef.ac.uk/ccrepo) Feb. 2017
                 B. P. Prascher, D. E. Woon, K. A. Peterson, T. H. Dunning, Jr., A. K. Wilson, Theor. Chem. Acc. 128, 69 (2011)
         Al-Ar : Obtained from the ccRepo (grant-hill.group.shef.ac.uk/ccrepo) Feb. 2017
                 D. E. Woon, T. H. Dunning, Jr., J. Chem. Phys. 98, 1358 (1993)
            Ca : Obtained from the Peterson Research Group Website (tyr0.chem.wsu.edu/~kipeters) Feb. 2017
                 J. Koput, K. A. Peterson, J. Phys. Chem. 106, 9595 (2002)
         Sc-Zn : Obtained from the ccRepo (grant-hill.group.shef.ac.uk/ccrepo) Feb. 2017
                 N. B. Balabanov, K. A. Peterson, J. Chem. Phys. 123, 064107 (2005)
                 N. B. Balabanov, K. A. Peterson, J. Chem. Phys. 125, 074110 (2006)
         Ga-Kr : Obtained from the ccRepo (grant-hill.group.shef.ac.uk/ccrepo) Feb. 2017
                 A. K. Wilson, D. E. Woon, K. A. Peterson, T. H. Dunning, Jr., J. Chem. Phys. 110, 7667 (1999)

----- AuxC basis set information -----
Your calculation utilizes the auxiliary basis: cc-pVDZ/C 
  H-He, B, Ne, Al-Ar, Ga-Br : Obtained from the EMSL Basis Set Exchange (bse.pnl.gov) Feb. 2017
                              F. Weigend, A. Kohn, C. Hattig, J. Chem. Phys. 116, 3175 (2002)
               Li-Be, Na-Mg : Obtained from the EMSL Basis Set Exchange (bse.pnl.gov) Feb. 2017
                              C. Haettig, Phys. Chem. Chem. Phys. 7, 59 (2005)
                        C-F : Obtained from the EMSL Basis Set Exchange (bse.pnl.gov) Feb. 2017
                              C. Haettig, Phys. Chem. Chem. Phys. 7, 59 (2005)
                              F. Weigend, A. Kohn, C. Hattig, J. Chem. Phys. 116, 3175 (2002)
                         Kr : Obtained from the TURBOMOLE 7.0 basis set library
                              F. Weigend, A. Kohn, C. Hattig, J. Chem. Phys. 116, 3175 (2002)
                              S function revised in Sep. 2009

----- AuxJK basis set information -----
Your calculation utilizes the auxiliary basis: cc-pVTZ/JK 
  H, B-F, Al-Cl, Ga-Br : Obtained from the TURBOMOLE 7.0 basis set library

================================================================================
                                        WARNINGS
                       Please study these warnings very carefully!
================================================================================


WARNING: MDCI localization with Augmented Hessian Foster-Boys
  ===> : Switching off randomization!

WARNING: Post HF methods need fully converged wavefunctions
  ===> : Setting SCFConvForced true
         You can overwrite this default with %scf ConvForced false 


INFO   : the flag for use of LIBINT has been found!

================================================================================
                                       INPUT FILE
================================================================================
NAME = piperidine_eq.inp
|  1> ! RHF DLPNO-CCSD(T) cc-pVDZ RIJK cc-pVTZ/JK cc-pVDZ/C
|  2> ! KDIIS SOSCF TightSCF TightPNO
|  3> 
|  4> %pal nprocs 4 end
|  5> 
|  6> %maxcore 8000
|  7> 
|  8> %scf maxiter 300
|  9>      shift shift 0.2 erroff 0.1 end
| 10> end
| 11> 
| 12> * xyzfile 0 1 piperidine_eq.xyz 
| 13> 
| 14> 
| 15>                          ****END OF INPUT****
================================================================================

                       ****************************
                       * Single Point Calculation *
                       ****************************

---------------------------------
CARTESIAN COORDINATES (ANGSTROEM)
---------------------------------
  C      0.059440    1.458400    0.230910
  C      1.294550    0.664770   -0.225930
  C      1.187500   -0.802300    0.205460
  N     -0.056030   -1.380300   -0.312250
  C     -1.248790   -0.703430    0.205060
  C     -1.236350    0.767880   -0.225510
  H     -0.096580   -2.374940   -0.111070
  H      2.030090   -1.380340   -0.189830
  H      1.241420   -0.853970    1.312140
  H     -1.307670   -0.751380    1.311640
  H     -2.135310   -1.210730   -0.191290
  H      1.374320    0.703420   -1.319890
  H      2.210140    1.106460    0.186510
  H     -2.112790    1.282190    0.187750
  H     -1.313250    0.813610   -1.319420
  H      0.062520    1.529530    1.328630
  H      0.101270    2.486290   -0.149410

----------------------------
CARTESIAN COORDINATES (A.U.)
----------------------------
  NO LB      ZA    FRAG     MASS         X           Y           Z
   0 C     6.0000    0    12.011    0.112325    2.755977    0.436357
   1 C     6.0000    0    12.011    2.446345    1.256233   -0.426946
   2 C     6.0000    0    12.011    2.244050   -1.516127    0.388263
   3 N     7.0000    0    14.007   -0.105881   -2.608389   -0.590067
   4 C     6.0000    0    12.011   -2.359871   -1.329290    0.387507
   5 C     6.0000    0    12.011   -2.336363    1.451083   -0.426152
   6 H     1.0000    0     1.008   -0.182510   -4.487986   -0.209892
   7 H     1.0000    0     1.008    3.836314   -2.608465   -0.358727
   8 H     1.0000    0     1.008    2.345944   -1.613769    2.479585
   9 H     1.0000    0     1.008   -2.471138   -1.419902    2.478640
  10 H     1.0000    0     1.008   -4.035151   -2.287948   -0.361486
  11 H     1.0000    0     1.008    2.597088    1.329271   -2.494231
  12 H     1.0000    0     1.008    4.176559    2.090906    0.352453
  13 H     1.0000    0     1.008   -3.992594    2.422988    0.354796
  14 H     1.0000    0     1.008   -2.481683    1.537500   -2.493342
  15 H     1.0000    0     1.008    0.118146    2.890393    2.510747
  16 H     1.0000    0     1.008    0.191373    4.698407   -0.282344

--------------------------------
INTERNAL COORDINATES (ANGSTROEM)
--------------------------------
 C      0   0   0     0.000000000000     0.00000000     0.00000000
 C      1   0   0     1.537546121129     0.00000000     0.00000000
 C      2   1   0     1.532922509294   110.74931490     0.00000000
 N      3   2   1     1.465767548078   109.70892137    55.98370157
 C      4   3   2     1.465755453887   112.55793412   298.52527707
 C      5   4   3     1.533068294173   109.72225437    61.44106064
 H      4   3   2     1.015591662284   110.49375408   174.49023095
 H      3   2   1     1.095601357155   110.46861651   175.52857462
 H      3   2   1     1.109196906640   108.78183034   293.10467272
 H      5   4   3     1.109182290383   112.04512607   300.48720348
 H      5   4   3     1.095611392283   108.47872932   182.17714336
 H      2   1   3     1.097545241437   109.65523203   119.85844492
 H      2   1   3     1.097042322702   110.54292272   238.14728342
 H      6   5   4     1.097016716965   109.73408536   181.75863803
 H      6   5   4     1.097562723037   108.62292161    64.55501153
 H      1   2   3     1.100026436819   109.12480952    67.73090922
 H      1   2   3     1.096791184957   110.49187937   184.60206886

---------------------------
INTERNAL COORDINATES (A.U.)
---------------------------
 C      0   0   0     0.000000000000     0.00000000     0.00000000
 C      1   0   0     2.905541087207     0.00000000     0.00000000
 C      2   1   0     2.896803727089   110.74931490     0.00000000
 N      3   2   1     2.769899241858   109.70892137    55.98370157
 C      4   3   2     2.769876387148   112.55793412   298.52527707
 C      5   4   3     2.897079220586   109.72225437    61.44106064
 H      4   3   2     1.919190105610   110.49375408   174.49023095
 H      3   2   1     2.070386516975   110.46861651   175.52857462
 H      3   2   1     2.096078382142   108.78183034   293.10467272
 H      5   4   3     2.096050761420   112.04512607   300.48720348
 H      5   4   3     2.070405480619   108.47872932   182.17714336
 H      2   1   3     2.074059925904   109.65523203   119.85844492
 H      2   1   3     2.073109547228   110.54292272   238.14728342
 H      6   5   4     2.073061159397   109.73408536   181.75863803
 H      6   5   4     2.074092961340   108.62292161    64.55501153
 H      1   2   3     2.078748705661   109.12480952    67.73090922
 H      1   2   3     2.072634965668   110.49187937   184.60206886

---------------------
BASIS SET INFORMATION
---------------------
There are 3 groups of distinct atoms

 Group   1 Type C   : 17s4p1d contracted to 3s2p1d pattern {881/31/1}
 Group   2 Type N   : 17s4p1d contracted to 3s2p1d pattern {881/31/1}
 Group   3 Type H   : 4s1p contracted to 2s1p pattern {31/1}

Atom   0C    basis set group =>   1
Atom   1C    basis set group =>   1
Atom   2C    basis set group =>   1
Atom   3N    basis set group =>   2
Atom   4C    basis set group =>   1
Atom   5C    basis set group =>   1
Atom   6H    basis set group =>   3
Atom   7H    basis set group =>   3
Atom   8H    basis set group =>   3
Atom   9H    basis set group =>   3
Atom  10H    basis set group =>   3
Atom  11H    basis set group =>   3
Atom  12H    basis set group =>   3
Atom  13H    basis set group =>   3
Atom  14H    basis set group =>   3
Atom  15H    basis set group =>   3
Atom  16H    basis set group =>   3
-------------------------------
AUXILIARY BASIS SET INFORMATION
-------------------------------
There are 3 groups of distinct atoms

 Group   1 Type C   : 7s5p4d2f contracted to 7s5p4d2f pattern {1111111/11111/1111/11}
 Group   2 Type N   : 7s5p4d2f contracted to 7s5p4d2f pattern {1111111/11111/1111/11}
 Group   3 Type H   : 3s2p1d contracted to 3s2p1d pattern {111/11/1}

Atom   0C    basis set group =>   1
Atom   1C    basis set group =>   1
Atom   2C    basis set group =>   1
Atom   3N    basis set group =>   2
Atom   4C    basis set group =>   1
Atom   5C    basis set group =>   1
Atom   6H    basis set group =>   3
Atom   7H    basis set group =>   3
Atom   8H    basis set group =>   3
Atom   9H    basis set group =>   3
Atom  10H    basis set group =>   3
Atom  11H    basis set group =>   3
Atom  12H    basis set group =>   3
Atom  13H    basis set group =>   3
Atom  14H    basis set group =>   3
Atom  15H    basis set group =>   3
Atom  16H    basis set group =>   3
-------------------------------
AUXILIARY BASIS SET INFORMATION
-------------------------------
There are 3 groups of distinct atoms

 Group   1 Type C   : 10s7p5d2f1g contracted to 10s7p5d2f1g pattern {1111111111/1111111/11111/11/1}
 Group   2 Type N   : 10s7p5d2f1g contracted to 10s7p5d2f1g pattern {1111111111/1111111/11111/11/1}
 Group   3 Type H   : 4s3p2d1f contracted to 4s3p2d1f pattern {1111/111/11/1}

Atom   0C    basis set group =>   1
Atom   1C    basis set group =>   1
Atom   2C    basis set group =>   1
Atom   3N    basis set group =>   2
Atom   4C    basis set group =>   1
Atom   5C    basis set group =>   1
Atom   6H    basis set group =>   3
Atom   7H    basis set group =>   3
Atom   8H    basis set group =>   3
Atom   9H    basis set group =>   3
Atom  10H    basis set group =>   3
Atom  11H    basis set group =>   3
Atom  12H    basis set group =>   3
Atom  13H    basis set group =>   3
Atom  14H    basis set group =>   3
Atom  15H    basis set group =>   3
Atom  16H    basis set group =>   3

Checking for AutoStart:
The File: piperidine_eq.gbw exists
Trying to determine its content:
     ... Fine, the file contains calculation information
     ... Fine, the calculation information was read
     ... Fine, the file contains a basis set
     ... Fine, the basis set was read
     ... Fine, the file contains a geometry
     ... Fine, the geometry was read
     ... Fine, the file contains a set of orbitals
     ... Fine, the orbitals can be read
     => possible old guess file was deleted
     => GBW file was renamed to GES file
     => GES file is set as startup file
     => Guess is set to MORead
     ... now leaving AutoStart



           ************************************************************
           *        Program running with 4 parallel MPI-processes     *
           *              working on a common directory               *
           ************************************************************
------------------------------------------------------------------------------
                           ORCA GTO INTEGRAL CALCULATION
                           -- RI-GTO INTEGRALS CHOSEN --
------------------------------------------------------------------------------

                         BASIS SET STATISTICS AND STARTUP INFO

Gaussian basis set:
 # of primitive gaussian shells          ...  187
 # of primitive gaussian functions       ...  281
 # of contracted shells                  ...   69
 # of contracted basis functions         ...  139
 Highest angular momentum                ...    2
 Maximum contraction depth               ...    8
Auxiliary gaussian basis set:
 # of primitive gaussian shells          ...  260
 # of primitive gaussian functions       ...  804
 # of contracted shells                  ...  260
 # of contracted aux-basis functions     ...  804
 Highest angular momentum                ...    4
 Maximum contraction depth               ...    1
Ratio of auxiliary to basis functions    ...  5.78
Integral package used                  ... LIBINT
 One Electron integrals                  ... done
 Ordering auxiliary basis shells         ... done
 Integral threshhold             Thresh  ...  2.500e-11
 Primitive cut-off               TCut    ...  2.500e-12
 Pre-screening matrix                    ... done
 Shell pair data                         ... 
 Ordering of the shell pairs             ... done (   0.000 sec) 2413 of 2415 pairs
 Determination of significant pairs      ... done (   0.000 sec)
 Creation of shell pair data             ... done (   0.001 sec)
 Storage of shell pair data              ... done (   0.002 sec)
 Shell pair data done in (   0.003 sec)
 Computing two index integrals           ... done
 Cholesky decomposition of the V-matrix  ... done


Timings:
 Total evaluation time                   ...   0.322 sec (  0.005 min)
 One electron matrix time                ...   0.028 sec (  0.000 min) =  8.6%
 Schwartz matrix evaluation time         ...   0.161 sec (  0.003 min) = 50.0%
 Two index repulsion integral time       ...   0.053 sec (  0.001 min) = 16.5%
 Cholesky decomposition of V             ...   0.051 sec (  0.001 min) = 15.8%
 Three index repulsion integral time     ...   0.000 sec (  0.000 min) =  0.0%



           ************************************************************
           *        Program running with 4 parallel MPI-processes     *
           *              working on a common directory               *
           ************************************************************
-------------------------------------------------------------------------------
                                 ORCA SCF
-------------------------------------------------------------------------------

------------
SCF SETTINGS
------------
Hamiltonian:
 Ab initio Hamiltonian  Method          .... Hartree-Fock(GTOs)
 RI-approximation to the Coulomb term is turned on
   Number of auxiliary basis functions  .... 804
   RI-JK (J+K treated both via RI)      .... on


General Settings:
 Integral files         IntName         .... piperidine_eq
 Hartree-Fock type      HFTyp           .... RHF
 Total Charge           Charge          ....    0
 Multiplicity           Mult            ....    1
 Number of Electrons    NEL             ....   48
 Basis Dimension        Dim             ....  139
 Nuclear Repulsion      ENuc            ....    258.2371782670 Eh

Convergence Acceleration:
 DIIS                   CNVDIIS         .... off
 Newton-Raphson         CNVNR           .... off
 SOSCF                  CNVSOSCF        .... on
   Start iteration      SOSCFMaxIt      ....   150
   Startup grad/error   SOSCFStart      ....  0.003300
 Level Shifting         CNVShift        .... on
   Level shift para.    LevelShift      ....    0.2000
   Turn off err/grad.   ShiftErr        ....    0.1000
 Zerner damping         CNVZerner       .... off
 Static damping         CNVDamp         .... off
 Fernandez-Rico         CNVRico         .... off

SCF Procedure:
 Maximum # iterations   MaxIter         ....   300
 SCF integral mode      SCFMode         .... Direct
   Integral package                     .... LIBINT
 Reset frequency        DirectResetFreq ....    20
 Integral Threshold     Thresh          ....  2.500e-11 Eh
 Primitive CutOff       TCut            ....  2.500e-12 Eh

Convergence Tolerance:
 Convergence Check Mode ConvCheckMode   .... Total+1el-Energy
 Convergence forced     ConvForced      .... 1
 Energy Change          TolE            ....  1.000e-08 Eh
 1-El. energy change                    ....  1.000e-05 Eh
 Orbital Gradient       TolG            ....  1.000e-05
 Orbital Rotation angle TolX            ....  1.000e-05


Diagonalization of the overlap matrix:
Smallest eigenvalue                        ... 3.467e-03
Time for diagonalization                   ...    0.006 sec
Threshold for overlap eigenvalues          ... 1.000e-08
Number of eigenvalues below threshold      ... 0
Time for construction of square roots      ...    0.005 sec
Total time needed                          ...    0.012 sec

---------------------
INITIAL GUESS: MOREAD
---------------------
Guess MOs are being read from file: piperidine_eq.ges
Input Geometry matches current geometry (good)
Atom 0: N(Shells)= 6 and 10 - projection required
Input basis set needs projection
NBasis(read)= 334
NBasis(calc)= 139
Basis set overlap was calculated
Using GuessMode=FMatrix for the initial guess
C*T matrix was formed
Effective Fockian was calculated
Effective Fockian was diagonalized
Initial density was built
                      ------------------
                      INITIAL GUESS DONE (   0.0 sec)
                      ------------------
--------------
SCF ITERATIONS
--------------
ITER       Energy         Delta-E        Max-DP      RMS-DP      [F,P]   Gradient Norm
                             ****Turning on KDIIS(Cayley)****
  0   -250.2072183059   0.000000000000 0.00160999  0.00006009  0.0041028   0.005489288
  1   -250.2073223089  -0.000104003078 0.00321861  0.00011764  0.0037206   0.004985757
                      *** Initiating the SOSCF procedure ***
                           *** Shutting down KDIIS ***
                      *** Re-Reading the Fockian *** 
                      *** Removing any level shift *** 
ITER      Energy       Delta-E        Grad      Rot      Max-DP    RMS-DP
  2   -250.20749877  -0.0001764589  0.002983  0.002983  0.005145  0.000192
  3   -250.20770884  -0.0002100760  0.001786  0.000661  0.007054  0.000262
  4   -250.20782405  -0.0001152088  0.000310  0.000309  0.001181  0.000041
  5   -250.20782799  -0.0000039336  0.000091  0.000077  0.000308  0.000010
  6   -250.20782839  -0.0000004083  0.000027  0.000025  0.000079  0.000003
  7   -250.20782842  -0.0000000292  0.000007  0.000013  0.000029  0.000001
                  ***Gradient check signals convergence***
              ***Rediagonalizing the Fockian in SOSCF/NRSCF***

               *****************************************************
               *                     SUCCESS                       *
               *           SCF CONVERGED AFTER   8 CYCLES          *
               *****************************************************


----------------
TOTAL SCF ENERGY
----------------

Total Energy       :         -250.20782843 Eh           -6808.50115 eV

Components:
Nuclear Repulsion  :          258.23717827 Eh            7026.99087 eV
Electronic Energy  :         -508.44500669 Eh          -13835.49201 eV
One Electron Energy:         -849.54541400 Eh          -23117.30598 eV
Two Electron Energy:          341.10040731 Eh            9281.81396 eV

Virial components:
Potential Energy   :         -500.06653536 Eh          -13607.50222 eV
Kinetic Energy     :          249.85870694 Eh            6799.00107 eV
Virial Ratio       :            2.00139728


---------------
SCF CONVERGENCE
---------------

  Last Energy change         ...   -1.9198e-09  Tolerance :   1.0000e-08
  Last MAX-Density change    ...    8.0896e-06  Tolerance :   1.0000e-07
  Last RMS-Density change    ...    2.5049e-07  Tolerance :   5.0000e-09
  Last Orbital Gradient      ...    1.5643e-06  Tolerance :   1.0000e-05
  Last Orbital Rotation      ...    3.7046e-06  Tolerance :   1.0000e-05

             **** THE GBW FILE WAS UPDATED (piperidine_eq.gbw) ****
             **** DENSITY FILE WAS UPDATED (piperidine_eq.scfp.tmp) ****
             **** ENERGY FILE WAS UPDATED (piperidine_eq.en.tmp) ****
----------------
ORBITAL ENERGIES
----------------

  NO   OCC          E(Eh)            E(eV) 
   0   2.0000     -15.535402      -422.7398 
   1   2.0000     -11.246612      -306.0359 
   2   2.0000     -11.246593      -306.0354 
   3   2.0000     -11.220639      -305.3291 
   4   2.0000     -11.218270      -305.2647 
   5   2.0000     -11.218184      -305.2623 
   6   2.0000      -1.202655       -32.7259 
   7   2.0000      -1.050891       -28.5962 
   8   2.0000      -1.007304       -27.4101 
   9   2.0000      -0.859205       -23.3801 
  10   2.0000      -0.836409       -22.7598 
  11   2.0000      -0.749353       -20.3909 
  12   2.0000      -0.677631       -18.4393 
  13   2.0000      -0.615485       -16.7482 
  14   2.0000      -0.605987       -16.4897 
  15   2.0000      -0.580055       -15.7841 
  16   2.0000      -0.554726       -15.0949 
  17   2.0000      -0.539258       -14.6740 
  18   2.0000      -0.525695       -14.3049 
  19   2.0000      -0.482356       -13.1256 
  20   2.0000      -0.462188       -12.5768 
  21   2.0000      -0.439817       -11.9680 
  22   2.0000      -0.438476       -11.9315 
  23   2.0000      -0.359174        -9.7736 
  24   0.0000       0.180125         4.9014 
  25   0.0000       0.208690         5.6788 
  26   0.0000       0.217884         5.9289 
  27   0.0000       0.218229         5.9383 
  28   0.0000       0.252311         6.8657 
  29   0.0000       0.260798         7.0967 
  30   0.0000       0.263728         7.1764 
  31   0.0000       0.280522         7.6334 
  32   0.0000       0.281125         7.6498 
  33   0.0000       0.290137         7.8950 
  34   0.0000       0.302406         8.2289 
  35   0.0000       0.378080        10.2881 
  36   0.0000       0.390061        10.6141 
  37   0.0000       0.391397        10.6504 
  38   0.0000       0.419768        11.4225 
  39   0.0000       0.440444        11.9851 
  40   0.0000       0.455408        12.3923 
  41   0.0000       0.599506        16.3134 
  42   0.0000       0.626673        17.0526 
  43   0.0000       0.633529        17.2392 
  44   0.0000       0.639837        17.4109 
  45   0.0000       0.657281        17.8855 
  46   0.0000       0.689127        18.7521 
  47   0.0000       0.722102        19.6494 
  48   0.0000       0.796888        21.6844 
  49   0.0000       0.818027        22.2596 
  50   0.0000       0.839070        22.8323 
  51   0.0000       0.842128        22.9155 
  52   0.0000       0.859405        23.3856 
  53   0.0000       0.865700        23.5569 
  54   0.0000       0.877808        23.8864 
  55   0.0000       0.887930        24.1618 
  56   0.0000       0.893750        24.3202 
  57   0.0000       0.905468        24.6390 
  58   0.0000       0.906766        24.6744 
  59   0.0000       0.913987        24.8709 
  60   0.0000       0.930325        25.3154 
  61   0.0000       0.931378        25.3441 
  62   0.0000       0.935269        25.4500 
  63   0.0000       0.938848        25.5473 
  64   0.0000       0.963240        26.2111 
  65   0.0000       0.989103        26.9149 
  66   0.0000       1.089810        29.6552 
  67   0.0000       1.094927        29.7945 
  68   0.0000       1.136071        30.9141 
  69   0.0000       1.153295        31.3828 
  70   0.0000       1.182863        32.1873 
  71   0.0000       1.246854        33.9286 
  72   0.0000       1.329061        36.1656 
  73   0.0000       1.361913        37.0595 
  74   0.0000       1.426501        38.8171 
  75   0.0000       1.458650        39.6919 
  76   0.0000       1.474098        40.1123 
  77   0.0000       1.493506        40.6404 
  78   0.0000       1.501039        40.8453 
  79   0.0000       1.586479        43.1703 
  80   0.0000       1.626787        44.2671 
  81   0.0000       1.669261        45.4229 
  82   0.0000       1.670748        45.4634 
  83   0.0000       1.735532        47.2262 
  84   0.0000       1.748739        47.5856 
  85   0.0000       1.774176        48.2778 
  86   0.0000       1.838290        50.0224 
  87   0.0000       1.844422        50.1893 
  88   0.0000       1.891620        51.4736 
  89   0.0000       1.896471        51.6056 
  90   0.0000       1.910498        51.9873 
  91   0.0000       1.915153        52.1140 
  92   0.0000       1.917492        52.1776 
  93   0.0000       1.940523        52.8043 
  94   0.0000       1.968187        53.5571 
  95   0.0000       1.972331        53.6699 
  96   0.0000       1.978856        53.8474 
  97   0.0000       1.986515        54.0558 
  98   0.0000       1.995299        54.2948 
  99   0.0000       2.010891        54.7191 
 100   0.0000       2.019449        54.9520 
 101   0.0000       2.025201        55.1085 
 102   0.0000       2.040017        55.5117 
 103   0.0000       2.060036        56.0564 
 104   0.0000       2.062940        56.1355 
 105   0.0000       2.119417        57.6723 
 106   0.0000       2.170666        59.0668 
 107   0.0000       2.183132        59.4060 
 108   0.0000       2.211161        60.1688 
 109   0.0000       2.258125        61.4467 
 110   0.0000       2.284852        62.1740 
 111   0.0000       2.287321        62.2412 
 112   0.0000       2.317842        63.0717 
 113   0.0000       2.363107        64.3034 
 114   0.0000       2.385253        64.9060 
 115   0.0000       2.422757        65.9266 
 116   0.0000       2.443274        66.4849 
 117   0.0000       2.489415        67.7404 
 118   0.0000       2.549630        69.3789 
 119   0.0000       2.553034        69.4716 
 120   0.0000       2.566156        69.8287 
 121   0.0000       2.592777        70.5530 
 122   0.0000       2.610300        71.0299 
 123   0.0000       2.642201        71.8979 
 124   0.0000       2.670570        72.6699 
 125   0.0000       2.710109        73.7458 
 126   0.0000       2.742042        74.6148 
 127   0.0000       2.825086        76.8745 
 128   0.0000       2.864881        77.9574 
 129   0.0000       2.878934        78.3398 
 130   0.0000       2.888020        78.5870 
 131   0.0000       2.937840        79.9427 
 132   0.0000       2.951432        80.3125 
 133   0.0000       3.012546        81.9755 
 134   0.0000       3.030708        82.4697 
 135   0.0000       3.081683        83.8569 
 136   0.0000       3.122960        84.9801 
 137   0.0000       3.143580        85.5412 
 138   0.0000       3.423106        93.1475 

                    ********************************
                    * MULLIKEN POPULATION ANALYSIS *
                    ********************************

-----------------------
MULLIKEN ATOMIC CHARGES
-----------------------
   0 C :   -0.065236
   1 C :   -0.033456
   2 C :    0.099593
   3 N :   -0.372473
   4 C :    0.099594
   5 C :   -0.033519
   6 H :    0.094448
   7 H :    0.025658
   8 H :    0.003655
   9 H :    0.003674
  10 H :    0.025662
  11 H :    0.031741
  12 H :    0.020853
  13 H :    0.020867
  14 H :    0.031752
  15 H :    0.021264
  16 H :    0.025923
Sum of atomic charges:    0.0000000

--------------------------------
MULLIKEN REDUCED ORBITAL CHARGES
--------------------------------
  0 C s       :     3.080667  s :     3.080667
      pz      :     0.981275  p :     2.901268
      px      :     0.939275
      py      :     0.980719
      dz2     :     0.023418  d :     0.083300
      dxz     :     0.012278
      dyz     :     0.007756
      dx2y2   :     0.021539
      dxy     :     0.018310
  1 C s       :     3.066530  s :     3.066530
      pz      :     0.991960  p :     2.885653
      px      :     0.957333
      py      :     0.936361
      dz2     :     0.022380  d :     0.081273
      dxz     :     0.009713
      dyz     :     0.011271
      dx2y2   :     0.019972
      dxy     :     0.017937
  2 C s       :     3.029085  s :     3.029085
      pz      :     0.940662  p :     2.761654
      px      :     0.863309
      py      :     0.957683
      dz2     :     0.029778  d :     0.109668
      dxz     :     0.017895
      dyz     :     0.012428
      dx2y2   :     0.022693
      dxy     :     0.026874
  3 N s       :     3.470626  s :     3.470626
      pz      :     1.719869  p :     3.863947
      px      :     1.087171
      py      :     1.056907
      dz2     :     0.002946  d :     0.037900
      dxz     :     0.010307
      dyz     :     0.004931
      dx2y2   :     0.012029
      dxy     :     0.007687
  4 C s       :     3.029072  s :     3.029072
      pz      :     0.940685  p :     2.761671
      px      :     0.875108
      py      :     0.945878
      dz2     :     0.029758  d :     0.109664
      dxz     :     0.017053
      dyz     :     0.013286
      dx2y2   :     0.022587
      dxy     :     0.026980
  5 C s       :     3.066565  s :     3.066565
      pz      :     0.991961  p :     2.885690
      px      :     0.956388
      py      :     0.937341
      dz2     :     0.022369  d :     0.081265
      dxz     :     0.009963
      dyz     :     0.011025
      dx2y2   :     0.019467
      dxy     :     0.018440
  6 H s       :     0.851501  s :     0.851501
      pz      :     0.014135  p :     0.054052
      px      :     0.006318
      py      :     0.033599
  7 H s       :     0.945943  s :     0.945943
      pz      :     0.006947  p :     0.028399
      px      :     0.013118
      py      :     0.008333
  8 H s       :     0.969072  s :     0.969072
      pz      :     0.020520  p :     0.027273
      px      :     0.003156
      py      :     0.003598
  9 H s       :     0.969052  s :     0.969052
      pz      :     0.020518  p :     0.027274
      px      :     0.003272
      py      :     0.003484
 10 H s       :     0.945940  s :     0.945940
      pz      :     0.006959  p :     0.028397
      px      :     0.014260
      py      :     0.007179
 11 H s       :     0.939417  s :     0.939417
      pz      :     0.020769  p :     0.028842
      px      :     0.004271
      py      :     0.003803
 12 H s       :     0.949809  s :     0.949809
      pz      :     0.007041  p :     0.029339
      px      :     0.015545
      py      :     0.006752
 13 H s       :     0.949793  s :     0.949793
      pz      :     0.007051  p :     0.029340
      px      :     0.014562
      py      :     0.007726
 14 H s       :     0.939406  s :     0.939406
      pz      :     0.020767  p :     0.028841
      px      :     0.004216
      py      :     0.003859
 15 H s       :     0.950085  s :     0.950085
      pz      :     0.020443  p :     0.028651
      px      :     0.003701
      py      :     0.004508
 16 H s       :     0.944750  s :     0.944750
      pz      :     0.006845  p :     0.029327
      px      :     0.003916
      py      :     0.018565


                     *******************************
                     * LOEWDIN POPULATION ANALYSIS *
                     *******************************

----------------------
LOEWDIN ATOMIC CHARGES
----------------------
   0 C :   -0.035503
   1 C :   -0.034495
   2 C :   -0.012053
   3 N :   -0.043736
   4 C :   -0.012060
   5 C :   -0.034478
   6 H :    0.034304
   7 H :    0.016858
   8 H :   -0.003409
   9 H :   -0.003411
  10 H :    0.016864
  11 H :    0.019528
  12 H :    0.018899
  13 H :    0.018900
  14 H :    0.019530
  15 H :    0.015137
  16 H :    0.019126

-------------------------------
LOEWDIN REDUCED ORBITAL CHARGES
-------------------------------
  0 C s       :     2.794389  s :     2.794389
      pz      :     1.027263  p :     3.036150
      px      :     0.995748
      py      :     1.013138
      dz2     :     0.059593  d :     0.204964
      dxz     :     0.027611
      dyz     :     0.019410
      dx2y2   :     0.054621
      dxy     :     0.043728
  1 C s       :     2.794919  s :     2.794919
      pz      :     1.032543  p :     3.037189
      px      :     1.006877
      py      :     0.997769
      dz2     :     0.057293  d :     0.202387
      dxz     :     0.023687
      dyz     :     0.026008
      dx2y2   :     0.049172
      dxy     :     0.046227
  2 C s       :     2.798447  s :     2.798447
      pz      :     1.016282  p :     2.950275
      px      :     0.932563
      py      :     1.001430
      dz2     :     0.076088  d :     0.263332
      dxz     :     0.044314
      dyz     :     0.029177
      dx2y2   :     0.052260
      dxy     :     0.061493
  3 N s       :     3.076525  s :     3.076525
      pz      :     1.655320  p :     3.882653
      px      :     1.109301
      py      :     1.118031
      dz2     :     0.007788  d :     0.084558
      dxz     :     0.018016
      dyz     :     0.007959
      dx2y2   :     0.031425
      dxy     :     0.019370
  4 C s       :     2.798466  s :     2.798466
      pz      :     1.016334  p :     2.950285
      px      :     0.940863
      py      :     0.993088
      dz2     :     0.076030  d :     0.263308
      dxz     :     0.042219
      dyz     :     0.031320
      dx2y2   :     0.052439
      dxy     :     0.061300
  5 C s       :     2.794949  s :     2.794949
      pz      :     1.032557  p :     3.037179
      px      :     1.005869
      py      :     0.998753
      dz2     :     0.057257  d :     0.202349
      dxz     :     0.024081
      dyz     :     0.025631
      dx2y2   :     0.047545
      dxy     :     0.047835
  6 H s       :     0.819474  s :     0.819474
      pz      :     0.050889  p :     0.146222
      px      :     0.023381
      py      :     0.071952
  7 H s       :     0.906846  s :     0.906846
      pz      :     0.019097  p :     0.076296
      px      :     0.032834
      py      :     0.024365
  8 H s       :     0.928079  s :     0.928079
      pz      :     0.047450  p :     0.075330
      px      :     0.012635
      py      :     0.015244
  9 H s       :     0.928076  s :     0.928076
      pz      :     0.047446  p :     0.075335
      px      :     0.012800
      py      :     0.015089
 10 H s       :     0.906841  s :     0.906841
      pz      :     0.019120  p :     0.076295
      px      :     0.035006
      py      :     0.022169
 11 H s       :     0.901561  s :     0.901561
      pz      :     0.047393  p :     0.078912
      px      :     0.015606
      py      :     0.015914
 12 H s       :     0.902871  s :     0.902871
      pz      :     0.019827  p :     0.078231
      px      :     0.037207
      py      :     0.021196
 13 H s       :     0.902862  s :     0.902862
      pz      :     0.019845  p :     0.078238
      px      :     0.035452
      py      :     0.022940
 14 H s       :     0.901562  s :     0.901562
      pz      :     0.047385  p :     0.078908
      px      :     0.015664
      py      :     0.015859
 15 H s       :     0.906915  s :     0.906915
      pz      :     0.046245  p :     0.077948
      px      :     0.016082
      py      :     0.015622
 16 H s       :     0.902399  s :     0.902399
      pz      :     0.019177  p :     0.078475
      px      :     0.016362
      py      :     0.042937


                      *****************************
                      * MAYER POPULATION ANALYSIS *
                      *****************************

  NA   - Mulliken gross atomic population
  ZA   - Total nuclear charge
  QA   - Mulliken gross atomic charge
  VA   - Mayer's total valence
  BVA  - Mayer's bonded valence
  FA   - Mayer's free valence

  ATOM       NA         ZA         QA         VA         BVA        FA
  0 C      6.0652     6.0000    -0.0652     4.0090     4.0090    -0.0000
  1 C      6.0335     6.0000    -0.0335     3.9952     3.9952    -0.0000
  2 C      5.9004     6.0000     0.0996     3.9919     3.9919    -0.0000
  3 N      7.3725     7.0000    -0.3725     3.0103     3.0103     0.0000
  4 C      5.9004     6.0000     0.0996     3.9919     3.9919     0.0000
  5 C      6.0335     6.0000    -0.0335     3.9953     3.9953     0.0000
  6 H      0.9056     1.0000     0.0944     0.9931     0.9931    -0.0000
  7 H      0.9743     1.0000     0.0257     0.9735     0.9735    -0.0000
  8 H      0.9963     1.0000     0.0037     0.9606     0.9606     0.0000
  9 H      0.9963     1.0000     0.0037     0.9606     0.9606    -0.0000
 10 H      0.9743     1.0000     0.0257     0.9735     0.9735    -0.0000
 11 H      0.9683     1.0000     0.0317     0.9712     0.9712    -0.0000
 12 H      0.9791     1.0000     0.0209     0.9699     0.9699    -0.0000
 13 H      0.9791     1.0000     0.0209     0.9699     0.9699    -0.0000
 14 H      0.9682     1.0000     0.0318     0.9712     0.9712    -0.0000
 15 H      0.9787     1.0000     0.0213     0.9651     0.9651     0.0000
 16 H      0.9741     1.0000     0.0259     0.9692     0.9692    -0.0000

  Mayer bond orders larger than 0.1
B(  0-C ,  1-C ) :   1.0458 B(  0-C ,  5-C ) :   1.0458 B(  0-C , 15-H ) :   0.9645 
B(  0-C , 16-H ) :   0.9746 B(  1-C ,  2-C ) :   1.0442 B(  1-C , 11-H ) :   0.9619 
B(  1-C , 12-H ) :   0.9724 B(  2-C ,  3-N ) :   1.0207 B(  2-C ,  7-H ) :   0.9754 
B(  2-C ,  8-H ) :   0.9595 B(  3-N ,  4-C ) :   1.0207 B(  3-N ,  6-H ) :   0.9707 
B(  4-C ,  5-C ) :   1.0442 B(  4-C ,  9-H ) :   0.9595 B(  4-C , 10-H ) :   0.9754 
B(  5-C , 13-H ) :   0.9724 B(  5-C , 14-H ) :   0.9619 

-------
TIMINGS
-------

Total SCF time: 0 days 0 hours 0 min 7 sec 

Total time                  ....       7.601 sec
Sum of individual times     ....       7.410 sec  ( 97.5%)

Fock matrix formation       ....       7.329 sec  ( 96.4%)
Diagonalization             ....       0.022 sec  (  0.3%)
Density matrix formation    ....       0.002 sec  (  0.0%)
Population analysis         ....       0.006 sec  (  0.1%)
Initial guess               ....       0.039 sec  (  0.5%)
Orbital Transformation      ....       0.000 sec  (  0.0%)
Orbital Orthonormalization  ....       0.000 sec  (  0.0%)
DIIS solution               ....       0.000 sec  (  0.0%)
SOSCF solution              ....       0.012 sec  (  0.2%)


           ************************************************************
           *        Program running with 4 parallel MPI-processes     *
           *              working on a common directory               *
           ************************************************************


------------------------------------------------------------------------------- 
                              ORCA-MATRIX DRIVEN CI                            
------------------------------------------------------------------------------- 


Wavefunction type
-----------------
Correlation treatment                      ...      CCSD     
Single excitations                         ... ON
Orbital optimization                       ... OFF
Calculation of Z vector                    ... OFF
Calculation of Brueckner orbitals          ... OFF
Perturbative triple excitations            ... ON
Calculation of F12 correction              ... OFF
Frozen core treatment                      ... chemical core (12 el)
Reference Wavefunction                     ... RHF
  Internal Orbitals:     6 ...   23 ( 18 MO's/ 36 electrons)
  Virtual  Orbitals:    24 ...  138 (115 MO's              )
Number of AO's                             ...    139
Number of electrons                        ...     48
Number of correlated electrons             ...     36

Algorithmic settings
--------------------
Integral transformation                    ... All integrals via the RI transformation
K(C) Formation                             ... RI-DLPNO
   PNO-Integral Storage                    ... ON DISK
   PNO occupation number cut-off           ... 1.000e-07
   Singles PNO occupation number cut-off   ... 3.000e-09
   PNO Mulliken prescreening cut-off       ... 1.000e-03
   Domain cut-off (Mulliken population)    ... 1.000e-03
   PNO Normalization                       ...    1
Maximum number of iterations               ...        50
Convergence tolerance (max. residuum)      ... 1.000e-05
Level shift for amplitude update           ... 2.000e-01
Maximum number of DIIS vectors             ...         7
DIIS turned on at iteration                ...         0
Damping before turning on DIIS             ...     0.500
Damping after turning on DIIS              ...     0.000
Pair specific amplitude update             ... OFF
Natural orbital iterations                 ... OFF
Perturbative natural orbital generation    ... OFF
Printlevel                                 ... 2

Singles Fock matrix elements calculated using PNOs.

Memory handling:
----------------
Maximum memory for working arrays          ...   8000 MB
Data storage in matrix containers          ... UNCOMPRESSED
Data type for integral storage             ... DOUBLE
In-Core Storage of quantities:
   Amplitudes+Sigma Vector      ... NO
   J+K operators                ... NO
   DIIS vectors                 ... NO
   3-external integrals         ... NO
   4-external integrals         ... NO

Localization treatment:
-----------------------
Localization option                        ...    6
Localization threshhold                    ... -1.0e+00
Using relative localization threshhold     ... 1.0e-08
Neglect threshold for strong pairs         ... 1.000e-05 Eh
Prescreening threshold for very weak pairs ... 1.000e-07 Eh

Initializing the integral package          ... done
Localizing the valence orbitals
------------------------------------------------------------------------------
                           ORCA ORBITAL LOCALIZATION
------------------------------------------------------------------------------

Input orbitals are from                  ... piperidine_eq.proc0.gbw
Output orbitals are to                   ... piperidine_eq.proc0.loc
Max. number of iterations                ... 128
Localizations seeded randomly            ... off
Convergence tolerance                    ... 1.000e-06
Using relative localization threshhold   ... 1.000e-08
Treshold for strong local MOs            ... 9.500e-01
Treshold for bond MOs                    ... 8.500e-01
Operator                                 ... 0
Orbital range for localization           ... 6 to 23
Localization criterion                   ... FOSTER-BOYS (AUGMENTED HESSIAN)
Doing the dipole integrals     ... o.k.
Initial value of the localization sum :   180.504746
ITERATION   0 : L=  191.8935669369 DL=  1.14e+01 (AVERGE_DL)=    0.2728309750 
ITERATION   1 : L=  194.5391767169 DL=  2.65e+00 (AVERGE_DL)=    0.1314974037 
ITERATION   2 : L=  194.5766563204 DL=  3.75e-02 (AVERGE_DL)=    0.0156513491 
ITERATION   3 : L=  194.5768105310 DL=  1.54e-04 (AVERGE_DL)=    0.0010039487 
ITERATION   4 : L=  194.5768110617 DL=  5.31e-07 (AVERGE_DL)=    0.0000588902 
LOCALIZATION SUM CONVERGED

------------------------------------------------------
AUGMENTED HESSIAN OPTIMIZATION OF FOSTER-BOYS ORBITALS
------------------------------------------------------

Spin operator:           0
Orbital window:          6 to 23
Number of iterations:    128
Gradient tolerance:      1.000e-06
Number of pairs:         153
Davidson threshold:      2000
Diagonalization method:  LAPACK
Iter:    0   L: 194.5768110617   Grad. norm: 6.915593e-04
   *** Likely close to a maximum now. ***
       Augmented Hessian eigenvalues:  6.90e-09 -6.41e+00 -6.41e+00 -9.32e+00 ... 
Iter:    1   L: 194.5768110651   Grad. norm: 7.460052e-10
LOCALIZATION HAS CONVERGED.

Eigenvalues of the Hessian:
  0 -6.411e+00
  1 -6.413e+00
  2 -9.321e+00
  3 -1.232e+01
  4 -1.592e+01
  5 -1.629e+01
  6 -1.800e+01
  7 -1.801e+01
  8 -1.808e+01
  9 -1.829e+01
    ...


------------------------------------------------------------------------------- 
                    LOCALIZED MOLECULAR ORBITAL COMPOSITIONS                   
------------------------------------------------------------------------------- 

The Mulliken populations for each LMO on each atom are computed
The LMO`s will be ordered according to atom index and type
  (A) Strongly localized MO`s have populations of >=0.950 on one atom
  (B) Two center bond orbitals have populations of >=0.850 on two atoms
  (C) Other MO`s are considered to be `delocalized`

FOUND  -   1 strongly local MO`s
       -  17 two center bond MO`s
       -   0 significantly delocalized MO`s

Rather strongly localized orbitals:
MO   6:   3N  -   0.979728
Bond-like localized orbitals:
MO  23:  16H  -   0.506096  and   0C  -   0.506379
MO  22:  15H  -   0.511114  and   0C  -   0.502259
MO  21:  14H  -   0.502903  and   5C  -   0.507799
MO  20:  13H  -   0.509042  and   5C  -   0.502518
MO  19:  12H  -   0.509048  and   1C  -   0.502514
MO  18:  11H  -   0.502891  and   1C  -   0.507809
MO  17:  10H  -   0.504142  and   4C  -   0.507327
MO  16:   9H  -   0.521515  and   4C  -   0.498157
MO  15:   8H  -   0.521519  and   2C  -   0.498153
MO  14:   7H  -   0.504138  and   2C  -   0.507330
MO  13:   6H  -   0.465227  and   3N  -   0.536914
MO  12:   5C  -   0.512438  and   4C  -   0.533242
MO  11:   5C  -   0.522047  and   0C  -   0.523986
MO  10:   4C  -   0.427271  and   3N  -   0.606095
MO   9:   3N  -   0.606108  and   2C  -   0.427266
MO   8:   2C  -   0.533255  and   1C  -   0.512430
MO   7:   1C  -   0.522047  and   0C  -   0.523987
Localized MO's were stored in: piperidine_eq.proc0.loc

Localizing the core orbitals
------------------------------------------------------------------------------
                           ORCA ORBITAL LOCALIZATION
------------------------------------------------------------------------------

Input orbitals are from                  ... piperidine_eq.proc0.loc
Output orbitals are to                   ... piperidine_eq.proc0.loc
Max. number of iterations                ... 128
Localizations seeded randomly            ... off
Convergence tolerance                    ... 1.000e-06
Using relative localization threshhold   ... 1.000e-08
Treshold for strong local MOs            ... 9.500e-01
Treshold for bond MOs                    ... 8.500e-01
Operator                                 ... 0
Orbital range for localization           ... 0 to 5
Localization criterion                   ... FOSTER-BOYS (AUGMENTED HESSIAN)
Doing the dipole integrals     ... o.k.
Initial value of the localization sum :    45.423439
ITERATION   0 : L=   45.4234493229 DL=  1.03e-05 (AVERGE_DL)=    0.0008273396 
ITERATION   1 : L=   45.4234493229 DL=  0.00e+00 (AVERGE_DL)=    0.0000000000 
LOCALIZATION SUM CONVERGED

------------------------------------------------------
AUGMENTED HESSIAN OPTIMIZATION OF FOSTER-BOYS ORBITALS
------------------------------------------------------

Spin operator:           0
Orbital window:          0 to 5
Number of iterations:    128
Gradient tolerance:      1.000e-06
Number of pairs:         15
Davidson threshold:      2000
Diagonalization method:  LAPACK
Iter:    0   L: 45.4234493229   Grad. norm: 4.686313e-06
   *** Likely close to a maximum now. ***
       Augmented Hessian eigenvalues:  2.04e-13 -3.07e+01 -3.07e+01 -3.36e+01 ... 
Iter:    1   L: 45.4234493229   Grad. norm: 3.472856e-19
LOCALIZATION HAS CONVERGED.

Eigenvalues of the Hessian:
  0 -3.069e+01
  1 -3.069e+01
  2 -3.357e+01
  3 -3.357e+01
  4 -3.377e+01
  5 -3.377e+01
  6 -8.492e+01
  7 -8.590e+01
  8 -8.593e+01
  9 -9.119e+01
    ...


------------------------------------------------------------------------------- 
                    LOCALIZED MOLECULAR ORBITAL COMPOSITIONS                   
------------------------------------------------------------------------------- 

The Mulliken populations for each LMO on each atom are computed
The LMO`s will be ordered according to atom index and type
  (A) Strongly localized MO`s have populations of >=0.950 on one atom
  (B) Two center bond orbitals have populations of >=0.850 on two atoms
  (C) Other MO`s are considered to be `delocalized`

FOUND  -   6 strongly local MO`s
       -   0 two center bond MO`s
       -   0 significantly delocalized MO`s

Rather strongly localized orbitals:
MO   5:   5C  -   0.999220
MO   4:   4C  -   0.999370
MO   3:   3N  -   0.999629
MO   2:   2C  -   0.999369
MO   1:   1C  -   0.999220
MO   0:   0C  -   0.999236
Localized MO's were stored in: piperidine_eq.proc0.loc

Warning: internal orbitals are localized - no re-canonicalization of internal orbitals

--------------------------
CLOSED-SHELL FOCK OPERATOR
--------------------------

RI-JK section for the Fock operator:
  RHF full Fock operator         ... done
  RHF frozen core Fock operator  ... done
Time needed for Fock operator              ...            1.125 sec
Reference energy                           ...   -250.207828426

--------------
DLPNO SETTINGS (2015 fully linear scaling implementation)
--------------

TCutMKN:           1.000e-03
TCutPAO:           1.000e-03
TCutPNO:           1.000e-07
TCutPNOSingles:    3.000e-09
TCutEN:            9.700e-01
TCutPAOExt:        1.000e-01
TCutPairs:         1.000e-05
TCutPre:           1.000e-07
TCutOSV:           1.000e-06
TCutDOij:          1.000e-05
TCutDO:            5.000e-03
TCutC:             1.000e-04
TCutCPAO:          1.000e-03
TCutCMO:           1.000e-03
TScaleDOMP2PreScr: 2.000e+00
TScaleMKNMP2PreScr:1.000e+01
TScalePNOMP2PreScr:1.000e+00
PAO overlap thresh 1.000e-08
Using PNOs for Singles Fock computation
Use new domains
Use fully linear algorithm
TCutTNO:           1.000e-09
TCutMP2Pairs:      1.000e-06
TCutDOStrong:      2.000e-03
TCutMKNStrong:     1.000e-02
TCutMKNWeak:       1.000e-01
TCutDOWeak:        4.000e-03
NTCutTNO:          1

--------------------------
Calculating differential overlap integrals ... ok
--------------------------
ELECTRON PAIR PRESCREENING
--------------------------

Dipole-based pair screening          .... used

   TCutDOij = 1.000000e-05
   TCutPre  = 1.000000e-07
   .... Finished loop over pairs
Total time spent in the prescreening                  ...     0.000 sec
sum of pair energies estimated for screened out pairs ...       0.000000000000 Eh
Thresholds for map construction and integral transformation for crude MP2:
   TCutMKN                    ...     1.0e-02
   TCutDO                     ...     1.0e-02
   TCutPairs                  ...     1.0e-05
   TCutPNO_CrudeMP2           ...     1.0e-07
   TCutPNOSingles_CrudeMP2    ...     3.0e-09
--------------------------------
LOCAL RI TRANSFORMATION (IAVPAO)
--------------------------------

Orbital window:       6 to 23
Number of PAOs:     139
Basis functions:    139 (69 shells)
Aux. functions:     490 (174 shells)

Processing maps (0.0 sec)
Average map sizes:
   Aux shells -> MOs              18.0
   Aux shells -> PAOs            139.0
   MOs        -> AO shells        68.3
   PAOs       -> AO shells        69.0

Calculating integrals (0.4 sec, 9.359 MB)
Sorting integrals (0.0 sec, 9.354 MB)
Total time for the integral transformation: 0.4 sec
--------------------------------
INITIAL GUESS AND PNO GENERATION
--------------------------------

PNO truncation parameters                   .... 
    PAOOverlapThresh   =        1.000e-08

    TCutPairs          =        1.000e-05
    TCutPNO            =        1.000e-07
    TCutPNOSingles     =        3.000e-09
    TCutMP2Pairs       =        1.000e-06
    TCutMKN            =        1.000e-02
    TCutDO             =        1.000e-02

Pair selection                          .... not used
Type of local MP2 treatment                 .... semi-local MP2
Strategy for PNO selection                  .... occupation number selection
Pair density normalization                  .... MP2 norm
Spin component scaling                      .... not used

   .... Finished loop over pairs
Making pair pair interaction lists          ... done

                       ===========================
                        171 OF  171 PAIRS ARE KEPT CCSD PAIRS
                          0 OF  171 PAIRS ARE KEPT MP2 PAIRS FOR (T)
                          0 OF  171 PAIRS ARE SKIPPED
                       ===========================

Total time spent in the initial guess                 ...     0.420 sec
SL-MP2 correlation energy (all non-screened pairs)    ...      -0.851035942491 Eh

Initial PNO correlation energy                        ...      -0.850637944815 Eh
sum of pair energies prescreened and skipped MP2 pairs...       0.000000000000 Eh
sum of pair energies of crude MP2 skipped pairs only  ...       0.000000000000 Eh
sum of MP2 pair energies for pairs that were not kept ...       0.000000000000 Eh
sum of PNO error estimates for the kept pairs         ...      -0.000397997676 Eh
                                                          --------------------
sum of all corrections                                         -0.000397997676
Initial total correlation energy                               -0.851035942491
Thresholds for map construction and integral transformation for fine MP2 and CCSD(T) calculation:
   TCutMKN   ...     1.0e-03
   TCutDO    ...     5.0e-03
   TCutPairs ...     1.0e-05
   TCutCMO   ...     1.0e-03
   TCutCPAO  ...     1.0e-03

Thresholds for map construction and integral transformation for strong Triples:
   TCutMKN   ...     1.0e-02
   TCutDO    ...     1.0e-02
   TCutCMO   ...     1.0e-03
   TCutCPAO  ...     1.0e-03

Thresholds for map construction and integral transformation for weak Triples:
   TCutMKN   ...     1.0e-01
   TCutDO    ...     2.0e-02
   TCutCMO   ...     1.0e-03
   TCutCPAO  ...     1.0e-03

--------------------------------
LOCAL RI TRANSFORMATION (IAVPAO)
--------------------------------

Orbital window:       6 to 23
Number of PAOs:     139
Basis functions:    139 (69 shells)
Aux. functions:     490 (174 shells)

Processing maps (0.0 sec)
Average map sizes:
   Aux shells -> MOs              18.0
   Aux shells -> PAOs            139.0
   MOs        -> AO shells        68.3
   PAOs       -> AO shells        69.0

Calculating integrals (1.9 sec, 9.359 MB)
Sorting integrals (0.0 sec, 9.354 MB)
Total time for the integral transformation: 1.9 sec
--------------------------------
INITIAL GUESS AND PNO GENERATION
--------------------------------

PNO truncation parameters                   .... 
    ScaleTCutPNO       =        1.000e-02
    PAOOverlapThresh   =        1.000e-08

    TCutPairs          =        1.000e-05
    TCutPNO            =        1.000e-07
    TCutPNOSingles     =        3.000e-09
    TCutMP2Pairs       =        1.000e-06
    TCutMKN            =        1.000e-03
    TCutDO             =        5.000e-03

Pair selection                          .... not used
Type of local MP2 treatment                 .... full local PMP2
Strategy for PNO selection                  .... occupation number selection
Pair density normalization                  .... MP2 norm
Spin component scaling                      .... not used

PASS-1: Formation of initial guess LMP2 amplitudes
Initial amplitudes guess done. Entering LMP2 iteration loop:
   Max. no of iterations          ...  50
   Energy convergence tolerance   ...    1.0e-07
   Residual convergence tolerance ...    5.0e-07
   Fock matrix cutoff             ...    1.0e-05 Eh
   DIIS convergence acceleration parameters:
        Max # vectors in DIIS     ... 7
        Start iteration of DIIS   ... 0
        Levelshift                ... 2.000e-01
        Damping factor 1          ... 5.000e-01
        Damping factor 2          ... 1.000e+00
   L-MP2 PNO cut-off              ...   1.0e-09
   L-MP2 PNO cut-off (core)       ...   1.0e-11
                           *** Turning on DIIS ***
LMP2-Iter=   0:  ELMP2= -0.869018897068  DE=   1.8e-02 RMAX=   4.3e-03
LMP2-Iter=   1:  ELMP2= -0.877895466179  DE=   8.9e-03 RMAX=   1.7e-03
LMP2-Iter=   2:  ELMP2= -0.879208324058  DE=   1.3e-03 RMAX=   3.1e-04
LMP2-Iter=   3:  ELMP2= -0.879309497327  DE=   1.0e-04 RMAX=   8.8e-05
LMP2-Iter=   4:  ELMP2= -0.879312367504  DE=   2.9e-06 RMAX=   1.2e-05
LMP2-Iter=   5:  ELMP2= -0.879311407475  DE=   9.6e-07 RMAX=   5.5e-06
LMP2-Iter=   6:  ELMP2= -0.879311324585  DE=   8.3e-08 RMAX=   6.9e-07
LMP2-Iter=   7:  ELMP2= -0.879311324601  DE=   1.5e-11 RMAX=   2.9e-07
LMP2-Iter=   8:  ELMP2= -0.879311329258  DE=   4.7e-09 RMAX=   2.9e-08 => CONVERGED
PASS-2: Formation of Pair natural orbitals
   .... Finished loop over pairs

 PNO Occupation Number Statistics: 
  | Av. % of trace(Dij) retained        ...  99.764750608879
  | sigma^2 in % of trace(Dij) retained ...   8.79e-02
  | Av. % of trace(Di) retained         ...  99.999854435855
  | sigma^2 in % of trace(Di) retained  ...   1.07e-09
 Distributions of % trace(Dij) recovered:
  |       >= 99.9  ...    92 ( 53.8 % of all pairs)
  |   [90.0, 99.0) ...    11 (  6.4 % of all pairs)
  |   [99.0, 99.9) ...    68 ( 39.8 % of all pairs)
 Distributions of % trace(Di) recovered :
  |       >= 99.9  ...    18 (100.0 % of all I-pairs )

Making pair pair interaction lists          ... done

                       ===========================
                        171 OF  171 PAIRS ARE KEPT
                       ===========================

Total time spent in the initial guess                 ...     3.951 sec
L-MP2 correlation energy (all non-screened pairs)     ...      -0.879311329258 Eh
L-MP2 PNO error correction                            ...      -0.000005866820 Eh
                                                          --------------------
Initial total L-MP2 energy (non-screened pairs)       ...      -0.879317196078 Eh

Initial PNO correlation energy                        ...      -0.878962391763 Eh
sum of pair energies estimated for screened out pairs ...       0.000000000000 Eh
sum of MP2 pair energies for pairs that were not kept ...       0.000000000000 Eh
sum of PNO error estimates for the kept pairs         ...      -0.000354804315 Eh
                                                          --------------------
sum of all corrections                                         -0.000354804315
Initial total correlation energy                               -0.879317196078
Thresholds for map construction and integral transformation for fine MP2 and CCSD(T) calculation:
   TCutMKN   ...     1.0e-03
   TCutDO    ...     5.0e-03
   TCutPairs ...     1.0e-05
   TCutCMO   ...     1.0e-03
   TCutCPAO  ...     1.0e-03

Time for aux screen maps:            0.002
Time for maps after fine MP2:            0.007
-----------------------------
LOCAL RI TRANSFORMATION (IJV)
-----------------------------

Orbital window:       6 to 23
Basis functions:    139 (69 shells)
Aux. functions:     490 (174 shells)

Processing maps (0.0 sec)
Average map sizes:
   Aux shells -> MOs(i)           18.0
   Aux shells -> MOs(j)           18.0
   MOs        -> AO shells        68.3

Calculating integrals (0.4 sec, 1.217 MB)
Sorting integrals (0.0 sec, 1.211 MB)
Total time for the integral transformation: 0.4 sec
--------------------------------
LOCAL RI TRANSFORMATION (VABPAO)
--------------------------------

Number of PAOs:     139
Basis functions:    139 (69 shells)
Aux. functions:     490 (174 shells)

Processing maps (0.0 sec)
Average map sizes:
   Aux shells -> PAOs            139.0
   PAOs       -> AO shells        69.0

Calculating integrals (0.5 sec, 128.255 MB)
Finished


-------------------------------------
Pair Pair Term precalculation with     
RI-(ij|mn) and (im|jn) transformation  
ON THE FLY                             
-------------------------------------

   IBatch   1 (of   1)              ... done (   14.745 sec)
Total EXT                           ...          14.830 sec

---------------------
RI-PNO TRANSFORMATION
---------------------

Total Number of PNOs                   ...  5229
Average number of PNOs per pair        ...    30
Maximal number of PNOs per pair        ...    43
   #pairs with  1 -  5 PNOs   :    0
   #pairs with  6 - 10 PNOs   :    0
   #pairs with 11 - 15 PNOs   :    7
   #pairs with 16 - 20 PNOs   :    7
   #pairs with 21 - 25 PNOs   :   36
   #pairs with 26 - 30 PNOs   :   24
   #pairs with 31 - 35 PNOs   :   47
   #pairs with 36 - 40 PNOs   :   42
   #pairs with 41 - 45 PNOs   :    8
   #pairs with 46 - 50 PNOs   :    0

Generation of (ij|ab)[P] integrals            ... on
Generation of (ia|bc)[P],(ja|bc)[P] integrals ... on
Storage of 3 and 4 external integrals         ... on
Generation of ALL (ka|bc)[P] integrals        ... on
Keep RI integrals in memory                   ... off

Ibatch:  1 (of  1)
Starting 2-4 index PNO integral generation ... done

Timings:
Total PNO integral transformation time     ...          4.454 sec
Size of the 3-external file                ...        44 MB
Size of the 4-external file                ...       199 MB
Size of the IKJL file                      ...         0 MB
Size of the all 3-external file            ...       402 MB
Size of the 1-external file                ...         2 MB

Making pair/pair overlap matrices          ... done (    0.710 sec)
Size of the pair overlap file              ... 141 MB
Redoing the guess amplitudes               ... done (    0.001 sec)

-------------------------
FINAL STARTUP INFORMATION
-------------------------

E(0)                                       ...   -250.207828426
E(L-MP2)                                   ...     -0.879317196
E(L-MP2) including corrections             ...     -0.879317196
Initial E(tot)                             ...   -251.087145622
<T|T>                                      ...      0.270739537
Number of pairs included                   ... 171
Total number of pairs                      ... 171

------------------------------------------------
                  RHF COUPLED CLUSTER ITERATIONS
------------------------------------------------

Number of PNO amplitudes to be optimized   ...       168937
Number of non-PNO amplitudes               ...      2261475
Untruncated number of regular amplitudes   ...      2261475

Iter       E(tot)           E(Corr)          Delta-E          Residual     Time
  0   -251.059036007     -0.850852777      0.028464419      0.019419270    3.02
                           *** Turning on DIIS ***
  1   -251.123663103     -0.915479873     -0.064627096      0.007428339    3.00
  2   -251.153670162     -0.945486932     -0.030007059      0.001650549    3.01
  3   -251.157590895     -0.949407665     -0.003920733      0.000711446    3.00
  4   -251.158406313     -0.950223083     -0.000815419      0.000311264    2.97
  5   -251.158537734     -0.950354504     -0.000131421      0.000163697    2.92
  6   -251.158567002     -0.950383772     -0.000029268      0.000088123    2.92
  7   -251.158571367     -0.950388137     -0.000004365      0.000040064    2.94
  8   -251.158572669     -0.950389439     -0.000001302      0.000014729    2.93
  9   -251.158572820     -0.950389590     -0.000000151      0.000003420    3.81
               --- The Coupled-Cluster iterations have converged ---

----------------------
COUPLED CLUSTER ENERGY
----------------------

E(0)                                       ...   -250.207828426
E(CORR)(strong-pairs)                      ...     -0.950389590
E(CORR)(weak-pairs)                        ...     -0.000354804
E(CORR)(corrected)                         ...     -0.950744395
E(TOT)                                     ...   -251.158572820
Singles Norm <S|S>**1/2                    ...      0.045648708  
T1 diagnostic                              ...      0.007608118  

------------------
LARGEST AMPLITUDES
------------------
  17-> 33  17-> 33       0.041428
  14-> 33  14-> 33       0.041394
  23-> 33  23-> 33       0.040938
  22-> 33  22-> 33       0.039138
  15-> 24  15-> 24       0.038947
  16-> 24  16-> 24       0.038944
  20-> 33  20-> 33       0.038909
  19-> 33  19-> 33       0.038886
  22-> 24  22-> 24       0.037811
  19-> 24  19-> 24       0.037414
  20-> 24  20-> 24       0.037410
  23-> 24  23-> 24       0.036983
  21-> 24  21-> 24       0.036956
  18-> 24  18-> 24       0.036952
  17-> 24  17-> 24       0.036830
  14-> 24  14-> 24       0.036830


-------------------------------------------
DLPNO BASED TRIPLES CORRECTION
-------------------------------------------

Singles multiplier          ...  1.000000
TCutTNO                     ... 1.000e-09
TCutMP2Pairs                ... 1.000e-06
TCutDOStrong                ... 1.000e-02
TCutMKNStrong               ... 1.000e-02
TCutDOWeak                  ... 2.000e-02
TCutMKNWeak                 ... 1.000e-01

Fragment selection                          .... not used
Number of Triples that are to be computed   ...      1122

 . . . . . . . . .
10% done  
20% done  
30% done  
40% done  
50% done  
60% done  
70% done  
80% done  
90% done               (     30.382 sec)
Triples timings:
Total time for T0               ...    32.495 sec
Total time for Iterative (T)    ...     0.000 sec
Total time of overall (T)       ...    33.594 sec

Triples List generation         ...     0.000 sec
TNO generation                  ...     2.110 sec
Pair density generation         ...     0.002 sec
Look up tables                  ...     0.000 sec
Generating 3-index integrals    ...    13.665 sec
  Make 4-ind.int. from 3-ind.int...     6.296 sec
  Projecting amplitudes (D + S) ...     2.887 sec
  Downprojecting integrals      ...     0.002 sec
  Energy contr. (sum over a,b,c)...     2.213 sec
Fitting ET(->0)                 ...     0.000 sec

Everything after 3-index        ...    16.717 sec

Timing details:
 TNO integrals                  ...    19.237 sec
   Reading 3-index integrals    ...     0.027 sec
   Sorting integrals            ...     4.237 sec
       Sorting integrals 1      ...     0.001 sec
       Sorting integrals 2      ...     1.031 sec
       Sorting integrals 3      ...     0.196 sec
       Sorting integrals 4      ...     0.018 sec
       Sorting integrals 5      ...     0.047 sec
       Sorting integrals 6      ...     2.944 sec
   Calculating local VM**-1/2   ...     0.139 sec
   Orthogonal. integrals        ...     0.300 sec
   Multipl. 3-index integrals   ...    14.535 sec
   All concerning IRIab (w/TNO) ...     2.683 sec

 Calculate W0/W1                ...     5.312 sec
 W 3-ext contribution           ...     3.020 sec
 W 3-int contribution           ...     0.891 sec
 Sorting W                      ...     1.288 sec

 V exchange contribution        ...     0.901 sec

 Timings for Triples without generation
     of 3-index integrals       ...    16.714 sec
       0 weak pairs             ...    16.714 sec
       1 weak pair              ...     0.000 sec
       2 weak pairs             ...     0.000 sec
       3 weak pairs             ...     0.000 sec
  Extra time for extrapolation  ...     0.000 sec

Number of Triples   (0, 1, 2, 3 weak pairs; overall):   1122       0       0       0  (  1122)
Number of Atoms     (0, 1, 2, 3 weak pairs; overall):   16.7     0.0     0.0     0.0  (    17)
Number of PAOs      (0, 1, 2, 3 weak pairs; overall):  137.4     0.0     0.0     0.0  (   139)
Number of AuxFcns   (0, 1, 2, 3 weak pairs; overall):  225.6     0.0     0.0     0.0  (   490)
Number of TNOs      (0, 1, 2, 3 weak pairs         ):   68.4     0.0     0.0     0.0
Aver. Number of NTNO, Atoms, PAOs, AuxFcns / Triples:   1122    68.4    16.7   137.4   225.6

Triples Correction (T)                     ...     -0.028484244
Final correlation energy                   ...     -0.979228639
E(CCSD)                                    ...   -251.158572820
E(CCSD(T))                                 ...   -251.187057065


Maximum memory used throughout the entire calculation: 4272.4 MB


------------------------------------------------------------------------------- 
                                     TIMINGS                                   
------------------------------------------------------------------------------- 


Total execution time                   ...       95.950 sec

Localization of occupied MO's          ...        0.409 sec (  0.4%)
Fock Matrix Formation                  ...        1.125 sec (  1.2%)
Global overlap, Fock, MKN matrices     ...        0.131 sec (  0.1%)
Differential overlap integrals         ...        0.108 sec (  0.1%)
Organizing maps                        ...        0.021 sec (  0.0%)
RI 3-index integral generations        ...        3.114 sec (  3.2%)
RI-PNO integral transformation         ...       21.250 sec ( 22.1%)
Initial Guess                          ...        4.384 sec (  4.6%)
DIIS Solver                            ...        0.528 sec (  0.6%)
State Vector Update                    ...        0.013 sec (  0.0%)
Sigma-vector construction              ...       30.398 sec ( 31.7%)
  <D|H|D>(0-ext)                       ...        1.925 sec (  6.3% of sigma)
  <D|H|D>(2-ext Fock)                  ...        0.012 sec (  0.0% of sigma)
  <D|H|D>(2-ext)                       ...        4.153 sec ( 13.7% of sigma)
  <D|H|D>(4-ext)                       ...        2.355 sec (  7.7% of sigma)
  <D|H|D>(4-ext-corr)                  ...       12.199 sec ( 40.1% of sigma)
  CCSD doubles correction              ...        0.165 sec (  0.5% of sigma)
  <S|H|S>                              ...        0.282 sec (  0.9% of sigma)
  <S|H|D>(1-ext)                       ...        0.249 sec (  0.8% of sigma)
  <D|H|S>(1-ext)                       ...        0.010 sec (  0.0% of sigma)
  <S|H|D>(3-ext)                       ...        0.176 sec (  0.6% of sigma)
  Fock-dressing                        ...        4.799 sec ( 15.8% of sigma)
  Singles amplitudes                   ...        0.187 sec (  0.6% of sigma)
  (ik|jl)-dressing                     ...        1.416 sec (  4.7% of sigma)
  (ij|ab),(ia|jb)-dressing             ...        2.402 sec (  7.9% of sigma)
  Pair energies                        ...        0.005 sec (  0.0% of sigma)
Total Time for computing (T)           ...       33.642 sec ( 35.1% of ALL)


-------------------------   --------------------
FINAL SINGLE POINT ENERGY      -251.187057064926
-------------------------   --------------------


                            ***************************************
                            *     ORCA property calculations      *
                            ***************************************

                                    ---------------------
                                    Active property flags
                                    ---------------------
   (+) Dipole Moment


------------------------------------------------------------------------------
                       ORCA ELECTRIC PROPERTIES CALCULATION
------------------------------------------------------------------------------

Dipole Moment Calculation                       ... on
Quadrupole Moment Calculation                   ... off
Polarizability Calculation                      ... off
GBWName                                         ... piperidine_eq.gbw
Electron density file                           ... piperidine_eq.scfp.tmp
The origin for moment calculation is the CENTER OF MASS  = (-0.001185, -0.029602 -0.023027)

-------------
DIPOLE MOMENT
-------------
                                X             Y             Z
Electronic contribution:     -0.06107      -1.51972      -0.78699
Nuclear contribution   :      0.05698       1.42081       1.10521
                        -----------------------------------------
Total Dipole Moment    :     -0.00409      -0.09890       0.31822
                        -----------------------------------------
Magnitude (a.u.)       :      0.33326
Magnitude (Debye)      :      0.84708



--------------------
Rotational spectrum 
--------------------
 
Rotational constants in cm-1:     0.149836     0.147251     0.083999 
Rotational constants in MHz :  4491.959580  4414.468501  2518.239865 

 Dipole components along the rotational axes: 
x,y,z [a.u.] :    -0.094583     0.000006     0.319554 
x,y,z [Debye]:    -0.240412     0.000016     0.812243 

 

Timings for individual modules:

Sum of individual times         ...      104.222 sec (=   1.737 min)
GTO integral calculation        ...        0.430 sec (=   0.007 min)   0.4 %
SCF iterations                  ...        7.690 sec (=   0.128 min)   7.4 %
MDCI module                     ...       96.102 sec (=   1.602 min)  92.2 %
                             ****ORCA TERMINATED NORMALLY****
TOTAL RUN TIME: 0 days 0 hours 1 minutes 44 seconds 457 msec
piperidine_eq.gbw -> /home1/pantazis/klk/VDZ/Nitrogen_compounds/piperidine_eq.gbw
piperidine_eq.ges -> /home1/pantazis/klk/VDZ/Nitrogen_compounds/piperidine_eq.ges
piperidine_eq.job -> /home1/pantazis/klk/VDZ/Nitrogen_compounds/piperidine_eq.job
piperidine_eq.loc -> /home1/pantazis/klk/VDZ/Nitrogen_compounds/piperidine_eq.loc
piperidine_eq.nodes -> /home1/pantazis/klk/VDZ/Nitrogen_compounds/piperidine_eq.nodes
piperidine_eq.prop -> /home1/pantazis/klk/VDZ/Nitrogen_compounds/piperidine_eq.prop
piperidine_eq_property.txt -> /home1/pantazis/klk/VDZ/Nitrogen_compounds/piperidine_eq_property.txt
piperidine_eq.xyz -> /home1/pantazis/klk/VDZ/Nitrogen_compounds/piperidine_eq.xyz
cp: cannot stat piperidine_eq.asa.inp: No such file or directory
