! Job execution by suborca V 6.07 on ZEUS !
Job started from zeus1, running /scratch/pantazis/piperidine_ax__mp8EmW/orca/orca copied from /opt/orca on zeussn125 in /scratch/pantazis/piperidine_ax__mp8EmW
Job execution start: Sat Jun 29 11:36:34 CEST 2019
Shared library path: /scratch/pantazis/piperidine_ax__mp8EmW/orca:/opt/openmpi_1.10.2/lib:/opt/intel/mkl/lib/intel64:/opt/intel/lib/intel64:
PBS Job ID is: 158864.icqc
izeussn125
izeussn125
izeussn125
izeussn125

                                 *****************
                                 * O   R   C   A *
                                 *****************

           --- An Ab Initio, DFT and Semiempirical electronic structure package ---

                  #######################################################
                  #                        -***-                        #
                  #          Department of theory and spectroscopy      #
                  #               Directorship: Frank Neese             #
                  #        Max Planck Institute fuer Kohlenforschung    #
                  #                Kaiser Wilhelm Platz 1               #
                  #                 D-45470 Muelheim/Ruhr               #
                  #                      Germany                        #
                  #                                                     #
                  #                  All rights reserved                #
                  #                        -***-                        #
                  #######################################################


                         Program Version 4.1.x  -  STABLE  -
                                (SVN: $Rev: 14094$)
                ($Date: 2019-06-14 15:01:15 +0200 (Fri, 14 Jun 2019) $)

                         (BUILD: $Sun Jun 23 06:18:31 CEST 2019$)


 With contributions from (in alphabetic order):
   Daniel Aravena         : Magnetic Properties
   Michael Atanasov       : Ab Initio Ligand Field Theory
   Alexander A. Auer      : GIAO ZORA
   Ute Becker             : Parallelization
   Giovanni Bistoni       : ED, Open-shell LED
   Martin Brehm           : Molecular dynamics
   Dmytro Bykov           : SCF Hessian
   Vijay G. Chilkuri      : MRCI spin determinant printing
   Dipayan Datta          : RHF DLPNO-CCSD density
   Achintya Kumar Dutta   : EOM-CC, STEOM-CC
   Dmitry Ganyushin       : Spin-Orbit,Spin-Spin,Magnetic field MRCI
   Miquel Garcia          : C-PCM Hessian
   Yang Guo               : DLPNO-NEVPT2, CIM, IAO-localization
   Andreas Hansen         : Spin unrestricted coupled pair/coupled cluster methods
   Benjamin Helmich-Paris : CASSCF linear response (MC-RPA)
   Lee Huntington         : MR-EOM, pCC
   Robert Izsak           : Overlap fitted RIJCOSX, COSX-SCS-MP3, EOM
   Christian Kollmar      : KDIIS, OOCD, Brueckner-CCSD(T), CCSD density
   Simone Kossmann        : Meta GGA functionals, TD-DFT gradient, OOMP2, MP2 Hessian
   Martin Krupicka        : AUTO-CI
   Lucas Lang             : DCDCAS
   Dagmar Lenk            : GEPOL surface, SMD
   Dimitrios Liakos       : Extrapolation schemes; parallel MDCI
   Dimitrios Manganas     : ROCIS; embedding schemes
   Dimitrios Pantazis     : SARC Basis sets
   Taras Petrenko         : DFT Hessian,TD-DFT gradient, ASA, ECA, R-Raman, ABS, FL, XAS/XES, NRVS
   Peter Pinski           : DLPNO-MP2, DLPNO-MP2 Gradient
   Christoph Reimann      : Effective Core Potentials
   Marius Retegan         : Local ZFS, SOC
   Christoph Riplinger    : Optimizer, TS searches, QM/MM, DLPNO-CCSD(T), (RO)-DLPNO pert. Triples
   Tobias Risthaus        : Range-separated hybrids, TD-DFT gradient, RPA, STAB
   Michael Roemelt        : Restricted open shell CIS
   Masaaki Saitow         : Open-shell DLPNO
   Barbara Sandhoefer     : DKH picture change effects
   Avijit Sen             : IP-ROCIS
   Kantharuban Sivalingam : CASSCF convergence, NEVPT2, FIC-MRCI
   Bernardo de Souza      : ESD, SOC TD-DFT
   Georgi Stoychev        : AutoAux, RI-MP2 NMR
   Willem Van den Heuvel  : Paramagnetic NMR
   Boris Wezisla          : Elementary symmetry handling
   Frank Wennmohs         : Technical directorship


 We gratefully acknowledge several colleagues who have allowed us to
 interface, adapt or use parts of their codes:
   Stefan Grimme, W. Hujo, H. Kruse,             : VdW corrections, initial TS optimization,
                  C. Bannwarth                     DFT functionals, gCP, sTDA/sTD-DF
   Ed Valeev                                     : LibInt (2-el integral package), F12 methods
   Garnet Chan, S. Sharma, J. Yang, R. Olivares  : DMRG
   Ulf Ekstrom                                   : XCFun DFT Library
   Mihaly Kallay                                 : mrcc  (arbitrary order and MRCC methods)
   Andreas Klamt, Michael Diedenhofen            : otool_cosmo (COSMO solvation model)
   Jiri Pittner, Ondrej Demel                    : Mk-CCSD
   Frank Weinhold                                : gennbo (NPA and NBO analysis)
   Christopher J. Cramer and Donald G. Truhlar   : smd solvation model
   Lars Goerigk                                  : TD-DFT with DH, B97 family of functionals
   V. Asgeirsson, H. Jonsson                     : NEB implementation
   FAccTs GmbH                                   : IRC, NEB, NEB-TS, Multilevel


 Your calculation uses the libint2 library for the computation of 2-el integrals
 For citations please refer to: http://libint.valeyev.net

 This ORCA versions uses:
   CBLAS   interface :  Fast vector & matrix operations
   LAPACKE interface :  Fast linear algebra routines
   SCALAPACK package :  Parallel linear algebra routines




***************************************
The coordinates will be read from file: piperidine_ax.xyz
***************************************


----- Orbital basis set information -----
Your calculation utilizes the basis: cc-pVDZ 
       H, B-Ne : Obtained from the ccRepo (grant-hill.group.shef.ac.uk/ccrepo) Feb. 2017
                 T. H. Dunning, Jr., J. Chem. Phys. 90, 1007 (1989)
            He : Obtained from the ccRepo (grant-hill.group.shef.ac.uk/ccrepo) Feb. 2017
                 D. E. Woon, T. H. Dunning, Jr., J. Chem. Phys. 100, 2975 (1994)
  Li-Be, Na-Mg : Obtained from the ccRepo (grant-hill.group.shef.ac.uk/ccrepo) Feb. 2017
                 B. P. Prascher, D. E. Woon, K. A. Peterson, T. H. Dunning, Jr., A. K. Wilson, Theor. Chem. Acc. 128, 69 (2011)
         Al-Ar : Obtained from the ccRepo (grant-hill.group.shef.ac.uk/ccrepo) Feb. 2017
                 D. E. Woon, T. H. Dunning, Jr., J. Chem. Phys. 98, 1358 (1993)
            Ca : Obtained from the Peterson Research Group Website (tyr0.chem.wsu.edu/~kipeters) Feb. 2017
                 J. Koput, K. A. Peterson, J. Phys. Chem. 106, 9595 (2002)
         Sc-Zn : Obtained from the ccRepo (grant-hill.group.shef.ac.uk/ccrepo) Feb. 2017
                 N. B. Balabanov, K. A. Peterson, J. Chem. Phys. 123, 064107 (2005)
                 N. B. Balabanov, K. A. Peterson, J. Chem. Phys. 125, 074110 (2006)
         Ga-Kr : Obtained from the ccRepo (grant-hill.group.shef.ac.uk/ccrepo) Feb. 2017
                 A. K. Wilson, D. E. Woon, K. A. Peterson, T. H. Dunning, Jr., J. Chem. Phys. 110, 7667 (1999)

----- AuxC basis set information -----
Your calculation utilizes the auxiliary basis: cc-pVDZ/C 
  H-He, B, Ne, Al-Ar, Ga-Br : Obtained from the EMSL Basis Set Exchange (bse.pnl.gov) Feb. 2017
                              F. Weigend, A. Kohn, C. Hattig, J. Chem. Phys. 116, 3175 (2002)
               Li-Be, Na-Mg : Obtained from the EMSL Basis Set Exchange (bse.pnl.gov) Feb. 2017
                              C. Haettig, Phys. Chem. Chem. Phys. 7, 59 (2005)
                        C-F : Obtained from the EMSL Basis Set Exchange (bse.pnl.gov) Feb. 2017
                              C. Haettig, Phys. Chem. Chem. Phys. 7, 59 (2005)
                              F. Weigend, A. Kohn, C. Hattig, J. Chem. Phys. 116, 3175 (2002)
                         Kr : Obtained from the TURBOMOLE 7.0 basis set library
                              F. Weigend, A. Kohn, C. Hattig, J. Chem. Phys. 116, 3175 (2002)
                              S function revised in Sep. 2009

----- AuxJK basis set information -----
Your calculation utilizes the auxiliary basis: cc-pVTZ/JK 
  H, B-F, Al-Cl, Ga-Br : Obtained from the TURBOMOLE 7.0 basis set library

================================================================================
                                        WARNINGS
                       Please study these warnings very carefully!
================================================================================


WARNING: MDCI localization with Augmented Hessian Foster-Boys
  ===> : Switching off randomization!

WARNING: Post HF methods need fully converged wavefunctions
  ===> : Setting SCFConvForced true
         You can overwrite this default with %scf ConvForced false 


INFO   : the flag for use of LIBINT has been found!

================================================================================
                                       INPUT FILE
================================================================================
NAME = piperidine_ax.inp
|  1> ! RHF DLPNO-CCSD(T) cc-pVDZ RIJK cc-pVTZ/JK cc-pVDZ/C
|  2> ! KDIIS SOSCF TightSCF TightPNO
|  3> 
|  4> %pal nprocs 4 end
|  5> 
|  6> %maxcore 8000
|  7> 
|  8> %scf maxiter 300
|  9>      shift shift 0.2 erroff 0.1 end
| 10> end
| 11> 
| 12> * xyzfile 0 1 piperidine_ax.xyz 
| 13> 
| 14> 
| 15>                          ****END OF INPUT****
================================================================================

                       ****************************
                       * Single Point Calculation *
                       ****************************

---------------------------------
CARTESIAN COORDINATES (ANGSTROEM)
---------------------------------
  C     -0.000850    1.460800    0.221290
  C      1.265220    0.713270   -0.229120
  C      1.220830   -0.757720    0.222830
  N      0.000840   -1.471090   -0.174000
  C     -1.219980   -0.759110    0.222800
  C     -1.266030    0.711860   -0.229100
  H      0.000930   -1.615900   -1.181720
  H      2.084060   -1.310820   -0.164320
  H      1.283470   -0.801750    1.320000
  H     -1.282560   -0.803220    1.319970
  H     -2.082570   -1.313180   -0.164370
  H      1.341190    0.750530   -1.326000
  H      2.165230    1.201510    0.167600
  H     -2.166570    1.199100    0.167630
  H     -1.342030    0.749050   -1.325970
  H     -0.000890    1.540560    1.318540
  H     -0.001450    2.487100   -0.165600

----------------------------
CARTESIAN COORDINATES (A.U.)
----------------------------
  NO LB      ZA    FRAG     MASS         X           Y           Z
   0 C     6.0000    0    12.011   -0.001606    2.760512    0.418177
   1 C     6.0000    0    12.011    2.390919    1.347885   -0.432974
   2 C     6.0000    0    12.011    2.307034   -1.431883    0.421088
   3 N     7.0000    0    14.007    0.001587   -2.779957   -0.328812
   4 C     6.0000    0    12.011   -2.305428   -1.434510    0.421031
   5 C     6.0000    0    12.011   -2.392450    1.345220   -0.432936
   6 H     1.0000    0     1.008    0.001757   -3.053608   -2.233127
   7 H     1.0000    0     1.008    3.938303   -2.477091   -0.310520
   8 H     1.0000    0     1.008    2.425407   -1.515088    2.494438
   9 H     1.0000    0     1.008   -2.423687   -1.517866    2.494382
  10 H     1.0000    0     1.008   -3.935487   -2.481551   -0.310614
  11 H     1.0000    0     1.008    2.534482    1.418296   -2.505777
  12 H     1.0000    0     1.008    4.091692    2.270525    0.316718
  13 H     1.0000    0     1.008   -4.094224    2.265971    0.316775
  14 H     1.0000    0     1.008   -2.536069    1.415499   -2.505720
  15 H     1.0000    0     1.008   -0.001682    2.911236    2.491679
  16 H     1.0000    0     1.008   -0.002740    4.699938   -0.312939

--------------------------------
INTERNAL COORDINATES (ANGSTROEM)
--------------------------------
 C      0   0   0     0.000000000000     0.00000000     0.00000000
 C      1   0   0     1.537726735769     0.00000000     0.00000000
 C      2   1   0     1.539493700767   110.77912031     0.00000000
 N      3   2   1     1.467905448556   114.13917611    52.96046105
 C      4   3   2     1.467912542626   112.48362848   307.77453232
 C      1   2   3     1.537674448022   110.78529184   307.24407396
 H      4   3   2     1.018071482068   109.67233802    70.10969426
 H      3   2   1     1.095888117191   110.84388495   175.55406968
 H      3   2   1     1.099838360578   109.23648005   292.84546547
 H      5   4   3     1.099838150548   107.30924998   291.03829609
 H      5   4   3     1.095881235308   108.29418133   176.19987474
 H      2   1   3     1.100138847101   109.41633189   120.30789612
 H      2   1   3     1.098081534359   110.66210772   237.68939913
 H      6   1   2     1.098075499271   110.66054912   175.06683896
 H      6   1   2     1.100128580212   109.41518847   292.44770856
 H      1   2   3     1.100145091204   109.11161731    67.38705870
 H      1   2   3     1.096802590305   110.61018136   184.22098628

---------------------------
INTERNAL COORDINATES (A.U.)
---------------------------
 C      0   0   0     0.000000000000     0.00000000     0.00000000
 C      1   0   0     2.905882399413     0.00000000     0.00000000
 C      2   1   0     2.909221479346   110.77912031     0.00000000
 N      3   2   1     2.773939288261   114.13917611    52.96046105
 C      4   3   2     2.773952694112   112.48362848   307.77453232
 C      1   2   3     2.905783589890   110.78529184   307.24407396
 H      4   3   2     1.923876285864   109.67233802    70.10969426
 H      3   2   1     2.070928414909   110.84388495   175.55406968
 H      3   2   1     2.078393293074   109.23648005   292.84546547
 H      5   4   3     2.078392896173   107.30924998   291.03829609
 H      5   4   3     2.070915410035   108.29418133   176.19987474
 H      2   1   3     2.078961130308   109.41633189   120.30789612
 H      2   1   3     2.075073372654   110.66210772   237.68939913
 H      6   1   2     2.075061967992   110.66054912   175.06683896
 H      6   1   2     2.078941728701   109.41518847   292.44770856
 H      1   2   3     2.078972929953   109.11161731    67.38705870
 H      1   2   3     2.072656518652   110.61018136   184.22098628

---------------------
BASIS SET INFORMATION
---------------------
There are 3 groups of distinct atoms

 Group   1 Type C   : 17s4p1d contracted to 3s2p1d pattern {881/31/1}
 Group   2 Type N   : 17s4p1d contracted to 3s2p1d pattern {881/31/1}
 Group   3 Type H   : 4s1p contracted to 2s1p pattern {31/1}

Atom   0C    basis set group =>   1
Atom   1C    basis set group =>   1
Atom   2C    basis set group =>   1
Atom   3N    basis set group =>   2
Atom   4C    basis set group =>   1
Atom   5C    basis set group =>   1
Atom   6H    basis set group =>   3
Atom   7H    basis set group =>   3
Atom   8H    basis set group =>   3
Atom   9H    basis set group =>   3
Atom  10H    basis set group =>   3
Atom  11H    basis set group =>   3
Atom  12H    basis set group =>   3
Atom  13H    basis set group =>   3
Atom  14H    basis set group =>   3
Atom  15H    basis set group =>   3
Atom  16H    basis set group =>   3
-------------------------------
AUXILIARY BASIS SET INFORMATION
-------------------------------
There are 3 groups of distinct atoms

 Group   1 Type C   : 7s5p4d2f contracted to 7s5p4d2f pattern {1111111/11111/1111/11}
 Group   2 Type N   : 7s5p4d2f contracted to 7s5p4d2f pattern {1111111/11111/1111/11}
 Group   3 Type H   : 3s2p1d contracted to 3s2p1d pattern {111/11/1}

Atom   0C    basis set group =>   1
Atom   1C    basis set group =>   1
Atom   2C    basis set group =>   1
Atom   3N    basis set group =>   2
Atom   4C    basis set group =>   1
Atom   5C    basis set group =>   1
Atom   6H    basis set group =>   3
Atom   7H    basis set group =>   3
Atom   8H    basis set group =>   3
Atom   9H    basis set group =>   3
Atom  10H    basis set group =>   3
Atom  11H    basis set group =>   3
Atom  12H    basis set group =>   3
Atom  13H    basis set group =>   3
Atom  14H    basis set group =>   3
Atom  15H    basis set group =>   3
Atom  16H    basis set group =>   3
-------------------------------
AUXILIARY BASIS SET INFORMATION
-------------------------------
There are 3 groups of distinct atoms

 Group   1 Type C   : 10s7p5d2f1g contracted to 10s7p5d2f1g pattern {1111111111/1111111/11111/11/1}
 Group   2 Type N   : 10s7p5d2f1g contracted to 10s7p5d2f1g pattern {1111111111/1111111/11111/11/1}
 Group   3 Type H   : 4s3p2d1f contracted to 4s3p2d1f pattern {1111/111/11/1}

Atom   0C    basis set group =>   1
Atom   1C    basis set group =>   1
Atom   2C    basis set group =>   1
Atom   3N    basis set group =>   2
Atom   4C    basis set group =>   1
Atom   5C    basis set group =>   1
Atom   6H    basis set group =>   3
Atom   7H    basis set group =>   3
Atom   8H    basis set group =>   3
Atom   9H    basis set group =>   3
Atom  10H    basis set group =>   3
Atom  11H    basis set group =>   3
Atom  12H    basis set group =>   3
Atom  13H    basis set group =>   3
Atom  14H    basis set group =>   3
Atom  15H    basis set group =>   3
Atom  16H    basis set group =>   3

Checking for AutoStart:
The File: piperidine_ax.gbw exists
Trying to determine its content:
     ... Fine, the file contains calculation information
     ... Fine, the calculation information was read
     ... Fine, the file contains a basis set
     ... Fine, the basis set was read
     ... Fine, the file contains a geometry
     ... Fine, the geometry was read
     ... Fine, the file contains a set of orbitals
     ... Fine, the orbitals can be read
     => possible old guess file was deleted
     => GBW file was renamed to GES file
     => GES file is set as startup file
     => Guess is set to MORead
     ... now leaving AutoStart



           ************************************************************
           *        Program running with 4 parallel MPI-processes     *
           *              working on a common directory               *
           ************************************************************
------------------------------------------------------------------------------
                           ORCA GTO INTEGRAL CALCULATION
                           -- RI-GTO INTEGRALS CHOSEN --
------------------------------------------------------------------------------

                         BASIS SET STATISTICS AND STARTUP INFO

Gaussian basis set:
 # of primitive gaussian shells          ...  187
 # of primitive gaussian functions       ...  281
 # of contracted shells                  ...   69
 # of contracted basis functions         ...  139
 Highest angular momentum                ...    2
 Maximum contraction depth               ...    8
Auxiliary gaussian basis set:
 # of primitive gaussian shells          ...  260
 # of primitive gaussian functions       ...  804
 # of contracted shells                  ...  260
 # of contracted aux-basis functions     ...  804
 Highest angular momentum                ...    4
 Maximum contraction depth               ...    1
Ratio of auxiliary to basis functions    ...  5.78
Integral package used                  ... LIBINT
 One Electron integrals                  ... done
 Ordering auxiliary basis shells         ... done
 Integral threshhold             Thresh  ...  2.500e-11
 Primitive cut-off               TCut    ...  2.500e-12
 Pre-screening matrix                    ... done
 Shell pair data                         ... 
 Ordering of the shell pairs             ... done (   0.000 sec) 2413 of 2415 pairs
 Determination of significant pairs      ... done (   0.000 sec)
 Creation of shell pair data             ... done (   0.001 sec)
 Storage of shell pair data              ... done (   0.002 sec)
 Shell pair data done in (   0.003 sec)
 Computing two index integrals           ... done
 Cholesky decomposition of the V-matrix  ... done


Timings:
 Total evaluation time                   ...   0.317 sec (  0.005 min)
 One electron matrix time                ...   0.027 sec (  0.000 min) =  8.4%
 Schwartz matrix evaluation time         ...   0.158 sec (  0.003 min) = 49.7%
 Two index repulsion integral time       ...   0.053 sec (  0.001 min) = 16.9%
 Cholesky decomposition of V             ...   0.050 sec (  0.001 min) = 15.8%
 Three index repulsion integral time     ...   0.000 sec (  0.000 min) =  0.0%



           ************************************************************
           *        Program running with 4 parallel MPI-processes     *
           *              working on a common directory               *
           ************************************************************
-------------------------------------------------------------------------------
                                 ORCA SCF
-------------------------------------------------------------------------------

------------
SCF SETTINGS
------------
Hamiltonian:
 Ab initio Hamiltonian  Method          .... Hartree-Fock(GTOs)
 RI-approximation to the Coulomb term is turned on
   Number of auxiliary basis functions  .... 804
   RI-JK (J+K treated both via RI)      .... on


General Settings:
 Integral files         IntName         .... piperidine_ax
 Hartree-Fock type      HFTyp           .... RHF
 Total Charge           Charge          ....    0
 Multiplicity           Mult            ....    1
 Number of Electrons    NEL             ....   48
 Basis Dimension        Dim             ....  139
 Nuclear Repulsion      ENuc            ....    257.7536675767 Eh

Convergence Acceleration:
 DIIS                   CNVDIIS         .... off
 Newton-Raphson         CNVNR           .... off
 SOSCF                  CNVSOSCF        .... on
   Start iteration      SOSCFMaxIt      ....   150
   Startup grad/error   SOSCFStart      ....  0.003300
 Level Shifting         CNVShift        .... on
   Level shift para.    LevelShift      ....    0.2000
   Turn off err/grad.   ShiftErr        ....    0.1000
 Zerner damping         CNVZerner       .... off
 Static damping         CNVDamp         .... off
 Fernandez-Rico         CNVRico         .... off

SCF Procedure:
 Maximum # iterations   MaxIter         ....   300
 SCF integral mode      SCFMode         .... Direct
   Integral package                     .... LIBINT
 Reset frequency        DirectResetFreq ....    20
 Integral Threshold     Thresh          ....  2.500e-11 Eh
 Primitive CutOff       TCut            ....  2.500e-12 Eh

Convergence Tolerance:
 Convergence Check Mode ConvCheckMode   .... Total+1el-Energy
 Convergence forced     ConvForced      .... 1
 Energy Change          TolE            ....  1.000e-08 Eh
 1-El. energy change                    ....  1.000e-05 Eh
 Orbital Gradient       TolG            ....  1.000e-05
 Orbital Rotation angle TolX            ....  1.000e-05


Diagonalization of the overlap matrix:
Smallest eigenvalue                        ... 3.844e-03
Time for diagonalization                   ...    0.006 sec
Threshold for overlap eigenvalues          ... 1.000e-08
Number of eigenvalues below threshold      ... 0
Time for construction of square roots      ...    0.005 sec
Total time needed                          ...    0.011 sec

---------------------
INITIAL GUESS: MOREAD
---------------------
Guess MOs are being read from file: piperidine_ax.ges
Input Geometry matches current geometry (good)
Atom 0: N(Shells)= 6 and 10 - projection required
Input basis set needs projection
NBasis(read)= 334
NBasis(calc)= 139
Basis set overlap was calculated
Using GuessMode=FMatrix for the initial guess
C*T matrix was formed
Effective Fockian was calculated
Effective Fockian was diagonalized
Initial density was built
                      ------------------
                      INITIAL GUESS DONE (   0.0 sec)
                      ------------------
--------------
SCF ITERATIONS
--------------
ITER       Energy         Delta-E        Max-DP      RMS-DP      [F,P]   Gradient Norm
                             ****Turning on KDIIS(Cayley)****
  0   -250.2057610913   0.000000000000 0.00113990  0.00005876  0.0048612   0.005483269
  1   -250.2058660612  -0.000104969900 0.00249717  0.00011561  0.0044091   0.004982316
  2   -250.2060448764  -0.000178815206 0.00417152  0.00018802  0.0035317   0.004011059
                      *** Initiating the SOSCF procedure ***
                           *** Shutting down KDIIS ***
                      *** Re-Reading the Fockian *** 
                      *** Removing any level shift *** 
ITER      Energy       Delta-E        Grad      Rot      Max-DP    RMS-DP
  3   -250.20625751  -0.0002126372  0.002115  0.002115  0.006504  0.000284
  4   -250.20637849  -0.0001209751  0.000013  0.000018  0.000058  0.000002
  5   -250.20637850  -0.0000000088  0.000007  0.000012  0.000043  0.000001
                  ***Gradient check signals convergence***
              ***Rediagonalizing the Fockian in SOSCF/NRSCF***

               *****************************************************
               *                     SUCCESS                       *
               *           SCF CONVERGED AFTER   6 CYCLES          *
               *****************************************************


----------------
TOTAL SCF ENERGY
----------------

Total Energy       :         -250.20637850 Eh           -6808.46169 eV

Components:
Nuclear Repulsion  :          257.75366758 Eh            7013.83387 eV
Electronic Energy  :         -507.96004608 Eh          -13822.29557 eV
One Electron Energy:         -848.50293861 Eh          -23088.93878 eV
Two Electron Energy:          340.54289254 Eh            9266.64321 eV

Virial components:
Potential Energy   :         -500.06026104 Eh          -13607.33149 eV
Kinetic Energy     :          249.85388254 Eh            6798.86979 eV
Virial Ratio       :            2.00141081


---------------
SCF CONVERGENCE
---------------

  Last Energy change         ...   -1.7032e-09  Tolerance :   1.0000e-08
  Last MAX-Density change    ...    4.7721e-06  Tolerance :   1.0000e-07
  Last RMS-Density change    ...    1.5916e-07  Tolerance :   5.0000e-09
  Last Orbital Gradient      ...    1.6187e-06  Tolerance :   1.0000e-05
  Last Orbital Rotation      ...    1.1327e-06  Tolerance :   1.0000e-05

             **** THE GBW FILE WAS UPDATED (piperidine_ax.gbw) ****
             **** DENSITY FILE WAS UPDATED (piperidine_ax.scfp.tmp) ****
             **** ENERGY FILE WAS UPDATED (piperidine_ax.en.tmp) ****
----------------
ORBITAL ENERGIES
----------------

  NO   OCC          E(Eh)            E(eV) 
   0   2.0000     -15.535568      -422.7443 
   1   2.0000     -11.246497      -306.0327 
   2   2.0000     -11.246479      -306.0323 
   3   2.0000     -11.223614      -305.4101 
   4   2.0000     -11.220910      -305.3365 
   5   2.0000     -11.220835      -305.3344 
   6   2.0000      -1.202187       -32.7132 
   7   2.0000      -1.052011       -28.6267 
   8   2.0000      -1.007245       -27.4085 
   9   2.0000      -0.859246       -23.3813 
  10   2.0000      -0.840787       -22.8790 
  11   2.0000      -0.766969       -20.8703 
  12   2.0000      -0.658710       -17.9244 
  13   2.0000      -0.612519       -16.6675 
  14   2.0000      -0.604650       -16.4534 
  15   2.0000      -0.603279       -16.4161 
  16   2.0000      -0.542667       -14.7667 
  17   2.0000      -0.525724       -14.3057 
  18   2.0000      -0.518249       -14.1023 
  19   2.0000      -0.487285       -13.2597 
  20   2.0000      -0.484668       -13.1885 
  21   2.0000      -0.454555       -12.3691 
  22   2.0000      -0.443307       -12.0630 
  23   2.0000      -0.350563        -9.5393 
  24   0.0000       0.178531         4.8581 
  25   0.0000       0.196671         5.3517 
  26   0.0000       0.214868         5.8468 
  27   0.0000       0.223619         6.0850 
  28   0.0000       0.259541         7.0625 
  29   0.0000       0.259880         7.0717 
  30   0.0000       0.264939         7.2094 
  31   0.0000       0.267056         7.2670 
  32   0.0000       0.277702         7.5567 
  33   0.0000       0.287677         7.8281 
  34   0.0000       0.299753         8.1567 
  35   0.0000       0.374598        10.1933 
  36   0.0000       0.392683        10.6855 
  37   0.0000       0.394497        10.7348 
  38   0.0000       0.430327        11.7098 
  39   0.0000       0.435297        11.8450 
  40   0.0000       0.460604        12.5337 
  41   0.0000       0.588316        16.0089 
  42   0.0000       0.626844        17.0573 
  43   0.0000       0.629250        17.1228 
  44   0.0000       0.648303        17.6412 
  45   0.0000       0.672212        18.2918 
  46   0.0000       0.678444        18.4614 
  47   0.0000       0.692595        18.8465 
  48   0.0000       0.804620        21.8948 
  49   0.0000       0.815155        22.1815 
  50   0.0000       0.834215        22.7001 
  51   0.0000       0.843178        22.9440 
  52   0.0000       0.853886        23.2354 
  53   0.0000       0.863810        23.5055 
  54   0.0000       0.865451        23.5501 
  55   0.0000       0.886430        24.1210 
  56   0.0000       0.889907        24.2156 
  57   0.0000       0.903526        24.5862 
  58   0.0000       0.909163        24.7396 
  59   0.0000       0.917683        24.9714 
  60   0.0000       0.920343        25.0438 
  61   0.0000       0.931136        25.3375 
  62   0.0000       0.936544        25.4846 
  63   0.0000       0.939495        25.5650 
  64   0.0000       0.952248        25.9120 
  65   0.0000       0.996852        27.1257 
  66   0.0000       1.082563        29.4580 
  67   0.0000       1.084170        29.5018 
  68   0.0000       1.132940        30.8289 
  69   0.0000       1.148174        31.2434 
  70   0.0000       1.196930        32.5701 
  71   0.0000       1.247232        33.9389 
  72   0.0000       1.328874        36.1605 
  73   0.0000       1.377760        37.4908 
  74   0.0000       1.405576        38.2477 
  75   0.0000       1.417146        38.5625 
  76   0.0000       1.484275        40.3892 
  77   0.0000       1.492244        40.6060 
  78   0.0000       1.522536        41.4303 
  79   0.0000       1.523263        41.4501 
  80   0.0000       1.574179        42.8356 
  81   0.0000       1.619849        44.0783 
  82   0.0000       1.659636        45.1610 
  83   0.0000       1.738508        47.3072 
  84   0.0000       1.753221        47.7076 
  85   0.0000       1.773001        48.2458 
  86   0.0000       1.878380        51.1133 
  87   0.0000       1.883195        51.2443 
  88   0.0000       1.884747        51.2866 
  89   0.0000       1.892990        51.5109 
  90   0.0000       1.905656        51.8555 
  91   0.0000       1.906005        51.8650 
  92   0.0000       1.918886        52.2156 
  93   0.0000       1.936635        52.6985 
  94   0.0000       1.948048        53.0091 
  95   0.0000       1.963942        53.4416 
  96   0.0000       1.970489        53.6197 
  97   0.0000       1.975964        53.7687 
  98   0.0000       2.000127        54.4262 
  99   0.0000       2.007757        54.6338 
 100   0.0000       2.018518        54.9267 
 101   0.0000       2.035415        55.3865 
 102   0.0000       2.038278        55.4644 
 103   0.0000       2.057556        55.9889 
 104   0.0000       2.057884        55.9979 
 105   0.0000       2.115685        57.5707 
 106   0.0000       2.122532        57.7570 
 107   0.0000       2.197222        59.7895 
 108   0.0000       2.223622        60.5078 
 109   0.0000       2.227180        60.6047 
 110   0.0000       2.289792        62.3084 
 111   0.0000       2.295690        62.4689 
 112   0.0000       2.303616        62.6846 
 113   0.0000       2.378449        64.7209 
 114   0.0000       2.381681        64.8088 
 115   0.0000       2.398666        65.2710 
 116   0.0000       2.447086        66.5886 
 117   0.0000       2.460190        66.9452 
 118   0.0000       2.515578        68.4524 
 119   0.0000       2.535689        68.9996 
 120   0.0000       2.565067        69.7990 
 121   0.0000       2.569271        69.9134 
 122   0.0000       2.613556        71.1185 
 123   0.0000       2.648541        72.0705 
 124   0.0000       2.707819        73.6835 
 125   0.0000       2.749238        74.8106 
 126   0.0000       2.774538        75.4990 
 127   0.0000       2.805595        76.3441 
 128   0.0000       2.850426        77.5640 
 129   0.0000       2.872416        78.1624 
 130   0.0000       2.887348        78.5687 
 131   0.0000       2.922546        79.5265 
 132   0.0000       2.931496        79.7701 
 133   0.0000       2.998156        81.5840 
 134   0.0000       3.026471        82.3545 
 135   0.0000       3.035519        82.6007 
 136   0.0000       3.128126        85.1206 
 137   0.0000       3.175023        86.3968 
 138   0.0000       3.416240        92.9606 

                    ********************************
                    * MULLIKEN POPULATION ANALYSIS *
                    ********************************

-----------------------
MULLIKEN ATOMIC CHARGES
-----------------------
   0 C :   -0.055409
   1 C :   -0.057158
   2 C :    0.105893
   3 N :   -0.373911
   4 C :    0.105892
   5 C :   -0.057144
   6 H :    0.091641
   7 H :    0.026847
   8 H :    0.028237
   9 H :    0.028235
  10 H :    0.026849
  11 H :    0.017937
  12 H :    0.022552
  13 H :    0.022551
  14 H :    0.017933
  15 H :    0.023719
  16 H :    0.025336
Sum of atomic charges:   -0.0000000

--------------------------------
MULLIKEN REDUCED ORBITAL CHARGES
--------------------------------
  0 C s       :     3.079407  s :     3.079407
      pz      :     0.979869  p :     2.893058
      px      :     0.937665
      py      :     0.975524
      dz2     :     0.023188  d :     0.082944
      dxz     :     0.012084
      dyz     :     0.007891
      dx2y2   :     0.021395
      dxy     :     0.018386
  1 C s       :     3.074531  s :     3.074531
      pz      :     0.980898  p :     2.901643
      px      :     0.963722
      py      :     0.957022
      dz2     :     0.022761  d :     0.080984
      dxz     :     0.009201
      dyz     :     0.011006
      dx2y2   :     0.019528
      dxy     :     0.018489
  2 C s       :     3.033496  s :     3.033496
      pz      :     0.993510  p :     2.751904
      px      :     0.865560
      py      :     0.892834
      dz2     :     0.026967  d :     0.108706
      dxz     :     0.013715
      dyz     :     0.012685
      dx2y2   :     0.025117
      dxy     :     0.030223
  3 N s       :     3.478240  s :     3.478240
      pz      :     1.159489  p :     3.856835
      px      :     1.082205
      py      :     1.615141
      dz2     :     0.013739  d :     0.038836
      dxz     :     0.004811
      dyz     :     0.001648
      dx2y2   :     0.005153
      dxy     :     0.013485
  4 C s       :     3.033499  s :     3.033499
      pz      :     0.993512  p :     2.751905
      px      :     0.865378
      py      :     0.893015
      dz2     :     0.026966  d :     0.108704
      dxz     :     0.013725
      dyz     :     0.012674
      dx2y2   :     0.025106
      dxy     :     0.030233
  5 C s       :     3.074513  s :     3.074513
      pz      :     0.980899  p :     2.901644
      px      :     0.963741
      py      :     0.957004
      dz2     :     0.022762  d :     0.080987
      dxz     :     0.009198
      dyz     :     0.011009
      dx2y2   :     0.019536
      dxy     :     0.018482
  6 H s       :     0.854345  s :     0.854345
      pz      :     0.033172  p :     0.054014
      px      :     0.006493
      py      :     0.014350
  7 H s       :     0.944561  s :     0.944561
      pz      :     0.006683  p :     0.028592
      px      :     0.013662
      py      :     0.008247
  8 H s       :     0.943976  s :     0.943976
      pz      :     0.020657  p :     0.027787
      px      :     0.003235
      py      :     0.003895
  9 H s       :     0.943978  s :     0.943978
      pz      :     0.020657  p :     0.027787
      px      :     0.003233
      py      :     0.003897
 10 H s       :     0.944559  s :     0.944559
      pz      :     0.006683  p :     0.028592
      px      :     0.013645
      py      :     0.008263
 11 H s       :     0.953509  s :     0.953509
      pz      :     0.020292  p :     0.028554
      px      :     0.004346
      py      :     0.003916
 12 H s       :     0.948089  s :     0.948089
      pz      :     0.006891  p :     0.029359
      px      :     0.015076
      py      :     0.007392
 13 H s       :     0.948090  s :     0.948090
      pz      :     0.006891  p :     0.029359
      px      :     0.015090
      py      :     0.007378
 14 H s       :     0.953513  s :     0.953513
      pz      :     0.020292  p :     0.028554
      px      :     0.004347
      py      :     0.003915
 15 H s       :     0.947639  s :     0.947639
      pz      :     0.020419  p :     0.028642
      px      :     0.003726
      py      :     0.004497
 16 H s       :     0.945366  s :     0.945366
      pz      :     0.006891  p :     0.029299
      px      :     0.003885
      py      :     0.018522


                     *******************************
                     * LOEWDIN POPULATION ANALYSIS *
                     *******************************

----------------------
LOEWDIN ATOMIC CHARGES
----------------------
   0 C :   -0.035946
   1 C :   -0.047122
   2 C :   -0.014027
   3 N :   -0.038999
   4 C :   -0.014021
   5 C :   -0.047125
   6 H :    0.030802
   7 H :    0.017852
   8 H :    0.015535
   9 H :    0.015534
  10 H :    0.017851
  11 H :    0.012861
  12 H :    0.019487
  13 H :    0.019488
  14 H :    0.012860
  15 H :    0.016294
  16 H :    0.018675

-------------------------------
LOEWDIN REDUCED ORBITAL CHARGES
-------------------------------
  0 C s       :     2.794454  s :     2.794454
      pz      :     1.028242  p :     3.036880
      px      :     0.995618
      py      :     1.013020
      dz2     :     0.059090  d :     0.204612
      dxz     :     0.027238
      dyz     :     0.019951
      dx2y2   :     0.054310
      dxy     :     0.044023
  1 C s       :     2.800246  s :     2.800246
      pz      :     1.027222  p :     3.045094
      px      :     1.007898
      py      :     1.009974
      dz2     :     0.058598  d :     0.201782
      dxz     :     0.022427
      dyz     :     0.025456
      dx2y2   :     0.047500
      dxy     :     0.047801
  2 C s       :     2.797581  s :     2.797581
      pz      :     1.031334  p :     2.955108
      px      :     0.937665
      py      :     0.986109
      dz2     :     0.068483  d :     0.261338
      dxz     :     0.029740
      dyz     :     0.027918
      dx2y2   :     0.061878
      dxy     :     0.073318
  3 N s       :     3.082684  s :     3.082684
      pz      :     1.218247  p :     3.871355
      px      :     1.107916
      py      :     1.545192
      dz2     :     0.031424  d :     0.084960
      dxz     :     0.012192
      dyz     :     0.003473
      dx2y2   :     0.012600
      dxy     :     0.025271
  4 C s       :     2.797584  s :     2.797584
      pz      :     1.031335  p :     2.955105
      px      :     0.937552
      py      :     0.986217
      dz2     :     0.068482  d :     0.261332
      dxz     :     0.029757
      dyz     :     0.027899
      dx2y2   :     0.061833
      dxy     :     0.073362
  5 C s       :     2.800234  s :     2.800234
      pz      :     1.027222  p :     3.045099
      px      :     1.007920
      py      :     1.009957
      dz2     :     0.058601  d :     0.201792
      dxz     :     0.022423
      dyz     :     0.025462
      dx2y2   :     0.047525
      dxy     :     0.047781
  6 H s       :     0.823160  s :     0.823160
      pz      :     0.075998  p :     0.146037
      px      :     0.022969
      py      :     0.047070
  7 H s       :     0.905962  s :     0.905962
      pz      :     0.019010  p :     0.076186
      px      :     0.033826
      py      :     0.023350
  8 H s       :     0.909030  s :     0.909030
      pz      :     0.047698  p :     0.075435
      px      :     0.013053
      py      :     0.014683
  9 H s       :     0.909031  s :     0.909031
      pz      :     0.047698  p :     0.075435
      px      :     0.013049
      py      :     0.014688
 10 H s       :     0.905961  s :     0.905961
      pz      :     0.019011  p :     0.076188
      px      :     0.033793
      py      :     0.023384
 11 H s       :     0.908925  s :     0.908925
      pz      :     0.046079  p :     0.078214
      px      :     0.015720
      py      :     0.016415
 12 H s       :     0.901861  s :     0.901861
      pz      :     0.019227  p :     0.078651
      px      :     0.036456
      py      :     0.022968
 13 H s       :     0.901860  s :     0.901860
      pz      :     0.019228  p :     0.078652
      px      :     0.036481
      py      :     0.022944
 14 H s       :     0.908924  s :     0.908924
      pz      :     0.046080  p :     0.078216
      px      :     0.015720
      py      :     0.016416
 15 H s       :     0.905792  s :     0.905792
      pz      :     0.046223  p :     0.077914
      px      :     0.016050
      py      :     0.015640
 16 H s       :     0.902773  s :     0.902773
      pz      :     0.019303  p :     0.078552
      px      :     0.016322
      py      :     0.042927


                      *****************************
                      * MAYER POPULATION ANALYSIS *
                      *****************************

  NA   - Mulliken gross atomic population
  ZA   - Total nuclear charge
  QA   - Mulliken gross atomic charge
  VA   - Mayer's total valence
  BVA  - Mayer's bonded valence
  FA   - Mayer's free valence

  ATOM       NA         ZA         QA         VA         BVA        FA
  0 C      6.0554     6.0000    -0.0554     3.9949     3.9949    -0.0000
  1 C      6.0572     6.0000    -0.0572     3.9687     3.9687    -0.0000
  2 C      5.8941     6.0000     0.1059     3.9917     3.9917    -0.0000
  3 N      7.3739     7.0000    -0.3739     3.0201     3.0201     0.0000
  4 C      5.8941     6.0000     0.1059     3.9917     3.9917    -0.0000
  5 C      6.0571     6.0000    -0.0571     3.9687     3.9687    -0.0000
  6 H      0.9084     1.0000     0.0916     0.9919     0.9919     0.0000
  7 H      0.9732     1.0000     0.0268     0.9755     0.9755     0.0000
  8 H      0.9718     1.0000     0.0282     0.9691     0.9691    -0.0000
  9 H      0.9718     1.0000     0.0282     0.9691     0.9691     0.0000
 10 H      0.9732     1.0000     0.0268     0.9755     0.9755     0.0000
 11 H      0.9821     1.0000     0.0179     0.9684     0.9684    -0.0000
 12 H      0.9774     1.0000     0.0226     0.9712     0.9712     0.0000
 13 H      0.9774     1.0000     0.0226     0.9712     0.9712     0.0000
 14 H      0.9821     1.0000     0.0179     0.9684     0.9684     0.0000
 15 H      0.9763     1.0000     0.0237     0.9656     0.9656     0.0000
 16 H      0.9747     1.0000     0.0253     0.9696     0.9696     0.0000

  Mayer bond orders larger than 0.1
B(  0-C ,  1-C ) :   1.0405 B(  0-C ,  5-C ) :   1.0405 B(  0-C , 15-H ) :   0.9659 
B(  0-C , 16-H ) :   0.9758 B(  1-C ,  2-C ) :   1.0318 B(  1-C , 11-H ) :   0.9634 
B(  1-C , 12-H ) :   0.9700 B(  2-C ,  3-N ) :   1.0256 B(  2-C ,  7-H ) :   0.9799 
B(  2-C ,  8-H ) :   0.9681 B(  3-N ,  4-C ) :   1.0256 B(  3-N ,  6-H ) :   0.9713 
B(  4-C ,  5-C ) :   1.0318 B(  4-C ,  9-H ) :   0.9681 B(  4-C , 10-H ) :   0.9799 
B(  5-C , 13-H ) :   0.9700 B(  5-C , 14-H ) :   0.9634 

-------
TIMINGS
-------

Total SCF time: 0 days 0 hours 0 min 3 sec 

Total time                  ....       3.858 sec
Sum of individual times     ....       3.686 sec  ( 95.6%)

Fock matrix formation       ....       3.624 sec  ( 93.9%)
Diagonalization             ....       0.010 sec  (  0.3%)
Density matrix formation    ....       0.001 sec  (  0.0%)
Population analysis         ....       0.006 sec  (  0.2%)
Initial guess               ....       0.039 sec  (  1.0%)
Orbital Transformation      ....       0.000 sec  (  0.0%)
Orbital Orthonormalization  ....       0.000 sec  (  0.0%)
DIIS solution               ....       0.000 sec  (  0.0%)
SOSCF solution              ....       0.006 sec  (  0.2%)


           ************************************************************
           *        Program running with 4 parallel MPI-processes     *
           *              working on a common directory               *
           ************************************************************


------------------------------------------------------------------------------- 
                              ORCA-MATRIX DRIVEN CI                            
------------------------------------------------------------------------------- 


Wavefunction type
-----------------
Correlation treatment                      ...      CCSD     
Single excitations                         ... ON
Orbital optimization                       ... OFF
Calculation of Z vector                    ... OFF
Calculation of Brueckner orbitals          ... OFF
Perturbative triple excitations            ... ON
Calculation of F12 correction              ... OFF
Frozen core treatment                      ... chemical core (12 el)
Reference Wavefunction                     ... RHF
  Internal Orbitals:     6 ...   23 ( 18 MO's/ 36 electrons)
  Virtual  Orbitals:    24 ...  138 (115 MO's              )
Number of AO's                             ...    139
Number of electrons                        ...     48
Number of correlated electrons             ...     36

Algorithmic settings
--------------------
Integral transformation                    ... All integrals via the RI transformation
K(C) Formation                             ... RI-DLPNO
   PNO-Integral Storage                    ... ON DISK
   PNO occupation number cut-off           ... 1.000e-07
   Singles PNO occupation number cut-off   ... 3.000e-09
   PNO Mulliken prescreening cut-off       ... 1.000e-03
   Domain cut-off (Mulliken population)    ... 1.000e-03
   PNO Normalization                       ...    1
Maximum number of iterations               ...        50
Convergence tolerance (max. residuum)      ... 1.000e-05
Level shift for amplitude update           ... 2.000e-01
Maximum number of DIIS vectors             ...         7
DIIS turned on at iteration                ...         0
Damping before turning on DIIS             ...     0.500
Damping after turning on DIIS              ...     0.000
Pair specific amplitude update             ... OFF
Natural orbital iterations                 ... OFF
Perturbative natural orbital generation    ... OFF
Printlevel                                 ... 2

Singles Fock matrix elements calculated using PNOs.

Memory handling:
----------------
Maximum memory for working arrays          ...   8000 MB
Data storage in matrix containers          ... UNCOMPRESSED
Data type for integral storage             ... DOUBLE
In-Core Storage of quantities:
   Amplitudes+Sigma Vector      ... NO
   J+K operators                ... NO
   DIIS vectors                 ... NO
   3-external integrals         ... NO
   4-external integrals         ... NO

Localization treatment:
-----------------------
Localization option                        ...    6
Localization threshhold                    ... -1.0e+00
Using relative localization threshhold     ... 1.0e-08
Neglect threshold for strong pairs         ... 1.000e-05 Eh
Prescreening threshold for very weak pairs ... 1.000e-07 Eh

Initializing the integral package          ... done
Localizing the valence orbitals
------------------------------------------------------------------------------
                           ORCA ORBITAL LOCALIZATION
------------------------------------------------------------------------------

Input orbitals are from                  ... piperidine_ax.proc0.gbw
Output orbitals are to                   ... piperidine_ax.proc0.loc
Max. number of iterations                ... 128
Localizations seeded randomly            ... off
Convergence tolerance                    ... 1.000e-06
Using relative localization threshhold   ... 1.000e-08
Treshold for strong local MOs            ... 9.500e-01
Treshold for bond MOs                    ... 8.500e-01
Operator                                 ... 0
Orbital range for localization           ... 6 to 23
Localization criterion                   ... FOSTER-BOYS (AUGMENTED HESSIAN)
Doing the dipole integrals     ... o.k.
Initial value of the localization sum :   180.454626
ITERATION   0 : L=  192.1255560929 DL=  1.17e+01 (AVERGE_DL)=    0.2761894083 
ITERATION   1 : L=  194.6761882932 DL=  2.55e+00 (AVERGE_DL)=    0.1291154472 
ITERATION   2 : L=  194.7099342057 DL=  3.37e-02 (AVERGE_DL)=    0.0148513137 
ITERATION   3 : L=  194.7100599417 DL=  1.26e-04 (AVERGE_DL)=    0.0009065340 
ITERATION   4 : L=  194.7100604762 DL=  5.34e-07 (AVERGE_DL)=    0.0000591049 
LOCALIZATION SUM CONVERGED

------------------------------------------------------
AUGMENTED HESSIAN OPTIMIZATION OF FOSTER-BOYS ORBITALS
------------------------------------------------------

Spin operator:           0
Orbital window:          6 to 23
Number of iterations:    128
Gradient tolerance:      1.000e-06
Number of pairs:         153
Davidson threshold:      2000
Diagonalization method:  LAPACK
Iter:    0   L: 194.7100604762   Grad. norm: 7.836265e-04
   *** Likely close to a maximum now. ***
       Augmented Hessian eigenvalues:  8.35e-09 -6.38e+00 -6.54e+00 -9.39e+00 ... 
Iter:    1   L: 194.7100604804   Grad. norm: 9.955264e-10
LOCALIZATION HAS CONVERGED.

Eigenvalues of the Hessian:
  0 -6.377e+00
  1 -6.537e+00
  2 -9.393e+00
  3 -1.231e+01
  4 -1.586e+01
  5 -1.633e+01
  6 -1.801e+01
  7 -1.802e+01
  8 -1.803e+01
  9 -1.824e+01
    ...


------------------------------------------------------------------------------- 
                    LOCALIZED MOLECULAR ORBITAL COMPOSITIONS                   
------------------------------------------------------------------------------- 

The Mulliken populations for each LMO on each atom are computed
The LMO`s will be ordered according to atom index and type
  (A) Strongly localized MO`s have populations of >=0.950 on one atom
  (B) Two center bond orbitals have populations of >=0.850 on two atoms
  (C) Other MO`s are considered to be `delocalized`

FOUND  -   1 strongly local MO`s
       -  17 two center bond MO`s
       -   0 significantly delocalized MO`s

Rather strongly localized orbitals:
MO   6:   3N  -   0.971048
Bond-like localized orbitals:
MO  23:  16H  -   0.506239  and   0C  -   0.506885
MO  22:  15H  -   0.509633  and   0C  -   0.503830
MO  21:  14H  -   0.511765  and   5C  -   0.499557
MO  20:  13H  -   0.507271  and   5C  -   0.502929
MO  19:  12H  -   0.507270  and   1C  -   0.502930
MO  18:  11H  -   0.511761  and   1C  -   0.499560
MO  17:  10H  -   0.502708  and   4C  -   0.511337
MO  16:   9H  -   0.504833  and   4C  -   0.510948
MO  15:   8H  -   0.504831  and   2C  -   0.510950
MO  14:   7H  -   0.502709  and   2C  -   0.511337
MO  13:   6H  -   0.468273  and   3N  -   0.540036
MO  12:   5C  -   0.541590  and   4C  -   0.509761
MO  11:   5C  -   0.522136  and   0C  -   0.523602
MO  10:   4C  -   0.427797  and   3N  -   0.607800
MO   9:   3N  -   0.607801  and   2C  -   0.427796
MO   8:   2C  -   0.509761  and   1C  -   0.541589
MO   7:   1C  -   0.522139  and   0C  -   0.523602
Localized MO's were stored in: piperidine_ax.proc0.loc

Localizing the core orbitals
------------------------------------------------------------------------------
                           ORCA ORBITAL LOCALIZATION
------------------------------------------------------------------------------

Input orbitals are from                  ... piperidine_ax.proc0.loc
Output orbitals are to                   ... piperidine_ax.proc0.loc
Max. number of iterations                ... 128
Localizations seeded randomly            ... off
Convergence tolerance                    ... 1.000e-06
Using relative localization threshhold   ... 1.000e-08
Treshold for strong local MOs            ... 9.500e-01
Treshold for bond MOs                    ... 8.500e-01
Operator                                 ... 0
Orbital range for localization           ... 0 to 5
Localization criterion                   ... FOSTER-BOYS (AUGMENTED HESSIAN)
Doing the dipole integrals     ... o.k.
Initial value of the localization sum :    46.172029
ITERATION   0 : L=   46.1720406731 DL=  1.21e-05 (AVERGE_DL)=    0.0008965966 
ITERATION   1 : L=   46.1720406731 DL=  0.00e+00 (AVERGE_DL)=    0.0000000000 
LOCALIZATION SUM CONVERGED

------------------------------------------------------
AUGMENTED HESSIAN OPTIMIZATION OF FOSTER-BOYS ORBITALS
------------------------------------------------------

Spin operator:           0
Orbital window:          0 to 5
Number of iterations:    128
Gradient tolerance:      1.000e-06
Number of pairs:         15
Davidson threshold:      2000
Diagonalization method:  LAPACK
Iter:    0   L: 46.1720406731   Grad. norm: 4.740759e-06
   *** Likely close to a maximum now. ***
       Augmented Hessian eigenvalues:  1.97e-13 -3.08e+01 -3.08e+01 -3.38e+01 ... 
Iter:    1   L: 46.1720406731   Grad. norm: 3.297841e-19
LOCALIZATION HAS CONVERGED.

Eigenvalues of the Hessian:
  0 -3.078e+01
  1 -3.078e+01
  2 -3.377e+01
  3 -3.378e+01
  4 -3.386e+01
  5 -3.386e+01
  6 -8.510e+01
  7 -9.103e+01
  8 -9.103e+01
  9 -9.152e+01
    ...


------------------------------------------------------------------------------- 
                    LOCALIZED MOLECULAR ORBITAL COMPOSITIONS                   
------------------------------------------------------------------------------- 

The Mulliken populations for each LMO on each atom are computed
The LMO`s will be ordered according to atom index and type
  (A) Strongly localized MO`s have populations of >=0.950 on one atom
  (B) Two center bond orbitals have populations of >=0.850 on two atoms
  (C) Other MO`s are considered to be `delocalized`

FOUND  -   6 strongly local MO`s
       -   0 two center bond MO`s
       -   0 significantly delocalized MO`s

Rather strongly localized orbitals:
MO   5:   5C  -   0.999255
MO   4:   4C  -   0.999385
MO   3:   3N  -   0.999627
MO   2:   2C  -   0.999385
MO   1:   1C  -   0.999256
MO   0:   0C  -   0.999253
Localized MO's were stored in: piperidine_ax.proc0.loc

Warning: internal orbitals are localized - no re-canonicalization of internal orbitals

--------------------------
CLOSED-SHELL FOCK OPERATOR
--------------------------

RI-JK section for the Fock operator:
  RHF full Fock operator         ... done
  RHF frozen core Fock operator  ... done
Time needed for Fock operator              ...            1.264 sec
Reference energy                           ...   -250.206378499

--------------
DLPNO SETTINGS (2015 fully linear scaling implementation)
--------------

TCutMKN:           1.000e-03
TCutPAO:           1.000e-03
TCutPNO:           1.000e-07
TCutPNOSingles:    3.000e-09
TCutEN:            9.700e-01
TCutPAOExt:        1.000e-01
TCutPairs:         1.000e-05
TCutPre:           1.000e-07
TCutOSV:           1.000e-06
TCutDOij:          1.000e-05
TCutDO:            5.000e-03
TCutC:             1.000e-04
TCutCPAO:          1.000e-03
TCutCMO:           1.000e-03
TScaleDOMP2PreScr: 2.000e+00
TScaleMKNMP2PreScr:1.000e+01
TScalePNOMP2PreScr:1.000e+00
PAO overlap thresh 1.000e-08
Using PNOs for Singles Fock computation
Use new domains
Use fully linear algorithm
TCutTNO:           1.000e-09
TCutMP2Pairs:      1.000e-06
TCutDOStrong:      2.000e-03
TCutMKNStrong:     1.000e-02
TCutMKNWeak:       1.000e-01
TCutDOWeak:        4.000e-03
NTCutTNO:          1

--------------------------
Calculating differential overlap integrals ... ok
--------------------------
ELECTRON PAIR PRESCREENING
--------------------------

Dipole-based pair screening          .... used

   TCutDOij = 1.000000e-05
   TCutPre  = 1.000000e-07
   .... Finished loop over pairs
Total time spent in the prescreening                  ...     0.000 sec
sum of pair energies estimated for screened out pairs ...       0.000000000000 Eh
Thresholds for map construction and integral transformation for crude MP2:
   TCutMKN                    ...     1.0e-02
   TCutDO                     ...     1.0e-02
   TCutPairs                  ...     1.0e-05
   TCutPNO_CrudeMP2           ...     1.0e-07
   TCutPNOSingles_CrudeMP2    ...     3.0e-09
--------------------------------
LOCAL RI TRANSFORMATION (IAVPAO)
--------------------------------

Orbital window:       6 to 23
Number of PAOs:     139
Basis functions:    139 (69 shells)
Aux. functions:     490 (174 shells)

Processing maps (0.0 sec)
Average map sizes:
   Aux shells -> MOs              18.0
   Aux shells -> PAOs            139.0
   MOs        -> AO shells        68.5
   PAOs       -> AO shells        69.0

Calculating integrals (0.4 sec, 9.359 MB)
Sorting integrals (0.0 sec, 9.354 MB)
Total time for the integral transformation: 0.4 sec
--------------------------------
INITIAL GUESS AND PNO GENERATION
--------------------------------

PNO truncation parameters                   .... 
    PAOOverlapThresh   =        1.000e-08

    TCutPairs          =        1.000e-05
    TCutPNO            =        1.000e-07
    TCutPNOSingles     =        3.000e-09
    TCutMP2Pairs       =        1.000e-06
    TCutMKN            =        1.000e-02
    TCutDO             =        1.000e-02

Pair selection                          .... not used
Type of local MP2 treatment                 .... semi-local MP2
Strategy for PNO selection                  .... occupation number selection
Pair density normalization                  .... MP2 norm
Spin component scaling                      .... not used

   .... Finished loop over pairs
Making pair pair interaction lists          ... done

                       ===========================
                        171 OF  171 PAIRS ARE KEPT CCSD PAIRS
                          0 OF  171 PAIRS ARE KEPT MP2 PAIRS FOR (T)
                          0 OF  171 PAIRS ARE SKIPPED
                       ===========================

Total time spent in the initial guess                 ...     0.425 sec
SL-MP2 correlation energy (all non-screened pairs)    ...      -0.851289691686 Eh

Initial PNO correlation energy                        ...      -0.850891602248 Eh
sum of pair energies prescreened and skipped MP2 pairs...       0.000000000000 Eh
sum of pair energies of crude MP2 skipped pairs only  ...       0.000000000000 Eh
sum of MP2 pair energies for pairs that were not kept ...       0.000000000000 Eh
sum of PNO error estimates for the kept pairs         ...      -0.000398089438 Eh
                                                          --------------------
sum of all corrections                                         -0.000398089438
Initial total correlation energy                               -0.851289691686
Thresholds for map construction and integral transformation for fine MP2 and CCSD(T) calculation:
   TCutMKN   ...     1.0e-03
   TCutDO    ...     5.0e-03
   TCutPairs ...     1.0e-05
   TCutCMO   ...     1.0e-03
   TCutCPAO  ...     1.0e-03

Thresholds for map construction and integral transformation for strong Triples:
   TCutMKN   ...     1.0e-02
   TCutDO    ...     1.0e-02
   TCutCMO   ...     1.0e-03
   TCutCPAO  ...     1.0e-03

Thresholds for map construction and integral transformation for weak Triples:
   TCutMKN   ...     1.0e-01
   TCutDO    ...     2.0e-02
   TCutCMO   ...     1.0e-03
   TCutCPAO  ...     1.0e-03

--------------------------------
LOCAL RI TRANSFORMATION (IAVPAO)
--------------------------------

Orbital window:       6 to 23
Number of PAOs:     139
Basis functions:    139 (69 shells)
Aux. functions:     490 (174 shells)

Processing maps (0.0 sec)
Average map sizes:
   Aux shells -> MOs              18.0
   Aux shells -> PAOs            139.0
   MOs        -> AO shells        68.5
   PAOs       -> AO shells        69.0

Calculating integrals (0.3 sec, 9.359 MB)
Sorting integrals (0.0 sec, 9.354 MB)
Total time for the integral transformation: 0.4 sec
--------------------------------
INITIAL GUESS AND PNO GENERATION
--------------------------------

PNO truncation parameters                   .... 
    ScaleTCutPNO       =        1.000e-02
    PAOOverlapThresh   =        1.000e-08

    TCutPairs          =        1.000e-05
    TCutPNO            =        1.000e-07
    TCutPNOSingles     =        3.000e-09
    TCutMP2Pairs       =        1.000e-06
    TCutMKN            =        1.000e-03
    TCutDO             =        5.000e-03

Pair selection                          .... not used
Type of local MP2 treatment                 .... full local PMP2
Strategy for PNO selection                  .... occupation number selection
Pair density normalization                  .... MP2 norm
Spin component scaling                      .... not used

PASS-1: Formation of initial guess LMP2 amplitudes
Initial amplitudes guess done. Entering LMP2 iteration loop:
   Max. no of iterations          ...  50
   Energy convergence tolerance   ...    1.0e-07
   Residual convergence tolerance ...    5.0e-07
   Fock matrix cutoff             ...    1.0e-05 Eh
   DIIS convergence acceleration parameters:
        Max # vectors in DIIS     ... 7
        Start iteration of DIIS   ... 0
        Levelshift                ... 2.000e-01
        Damping factor 1          ... 5.000e-01
        Damping factor 2          ... 1.000e+00
   L-MP2 PNO cut-off              ...   1.0e-09
   L-MP2 PNO cut-off (core)       ...   1.0e-11
                           *** Turning on DIIS ***
LMP2-Iter=   0:  ELMP2= -0.869389505711  DE=   1.8e-02 RMAX=   3.9e-03
LMP2-Iter=   1:  ELMP2= -0.878314356958  DE=   8.9e-03 RMAX=   1.9e-03
LMP2-Iter=   2:  ELMP2= -0.879640873600  DE=   1.3e-03 RMAX=   3.0e-04
LMP2-Iter=   3:  ELMP2= -0.879742605001  DE=   1.0e-04 RMAX=   9.1e-05
LMP2-Iter=   4:  ELMP2= -0.879745227602  DE=   2.6e-06 RMAX=   1.4e-05
LMP2-Iter=   5:  ELMP2= -0.879744234276  DE=   9.9e-07 RMAX=   4.7e-06
LMP2-Iter=   6:  ELMP2= -0.879744148397  DE=   8.6e-08 RMAX=   6.7e-07
LMP2-Iter=   7:  ELMP2= -0.879744145614  DE=   2.8e-09 RMAX=   2.4e-07
LMP2-Iter=   8:  ELMP2= -0.879744149325  DE=   3.7e-09 RMAX=   2.4e-08 => CONVERGED
PASS-2: Formation of Pair natural orbitals
   .... Finished loop over pairs

 PNO Occupation Number Statistics: 
  | Av. % of trace(Dij) retained        ...  99.760284624622
  | sigma^2 in % of trace(Dij) retained ...   9.35e-02
  | Av. % of trace(Di) retained         ...  99.999860063179
  | sigma^2 in % of trace(Di) retained  ...   5.61e-10
 Distributions of % trace(Dij) recovered:
  |       >= 99.9  ...    92 ( 53.8 % of all pairs)
  |   [90.0, 99.0) ...    10 (  5.8 % of all pairs)
  |   [99.0, 99.9) ...    69 ( 40.4 % of all pairs)
 Distributions of % trace(Di) recovered :
  |       >= 99.9  ...    18 (100.0 % of all I-pairs )

Making pair pair interaction lists          ... done

                       ===========================
                        171 OF  171 PAIRS ARE KEPT
                       ===========================

Total time spent in the initial guess                 ...     3.772 sec
L-MP2 correlation energy (all non-screened pairs)     ...      -0.879744149325 Eh
L-MP2 PNO error correction                            ...      -0.000005703567 Eh
                                                          --------------------
Initial total L-MP2 energy (non-screened pairs)       ...      -0.879749852891 Eh

Initial PNO correlation energy                        ...      -0.879394811633 Eh
sum of pair energies estimated for screened out pairs ...       0.000000000000 Eh
sum of MP2 pair energies for pairs that were not kept ...       0.000000000000 Eh
sum of PNO error estimates for the kept pairs         ...      -0.000355041258 Eh
                                                          --------------------
sum of all corrections                                         -0.000355041258
Initial total correlation energy                               -0.879749852891
Thresholds for map construction and integral transformation for fine MP2 and CCSD(T) calculation:
   TCutMKN   ...     1.0e-03
   TCutDO    ...     5.0e-03
   TCutPairs ...     1.0e-05
   TCutCMO   ...     1.0e-03
   TCutCPAO  ...     1.0e-03

Time for aux screen maps:            0.002
Time for maps after fine MP2:            0.007
-----------------------------
LOCAL RI TRANSFORMATION (IJV)
-----------------------------

Orbital window:       6 to 23
Basis functions:    139 (69 shells)
Aux. functions:     490 (174 shells)

Processing maps (0.0 sec)
Average map sizes:
   Aux shells -> MOs(i)           18.0
   Aux shells -> MOs(j)           18.0
   MOs        -> AO shells        68.5

Calculating integrals (0.4 sec, 1.217 MB)
Sorting integrals (0.0 sec, 1.211 MB)
Total time for the integral transformation: 0.4 sec
--------------------------------
LOCAL RI TRANSFORMATION (VABPAO)
--------------------------------

Number of PAOs:     139
Basis functions:    139 (69 shells)
Aux. functions:     490 (174 shells)

Processing maps (0.0 sec)
Average map sizes:
   Aux shells -> PAOs            139.0
   PAOs       -> AO shells        69.0

Calculating integrals (0.5 sec, 128.255 MB)
Finished


-------------------------------------
Pair Pair Term precalculation with     
RI-(ij|mn) and (im|jn) transformation  
ON THE FLY                             
-------------------------------------

   IBatch   1 (of   1)              ... done (   14.706 sec)
Total EXT                           ...          14.706 sec

---------------------
RI-PNO TRANSFORMATION
---------------------

Total Number of PNOs                   ...  5224
Average number of PNOs per pair        ...    30
Maximal number of PNOs per pair        ...    43
   #pairs with  1 -  5 PNOs   :    0
   #pairs with  6 - 10 PNOs   :    0
   #pairs with 11 - 15 PNOs   :    8
   #pairs with 16 - 20 PNOs   :   11
   #pairs with 21 - 25 PNOs   :   31
   #pairs with 26 - 30 PNOs   :   23
   #pairs with 31 - 35 PNOs   :   47
   #pairs with 36 - 40 PNOs   :   43
   #pairs with 41 - 45 PNOs   :    8
   #pairs with 46 - 50 PNOs   :    0

Generation of (ij|ab)[P] integrals            ... on
Generation of (ia|bc)[P],(ja|bc)[P] integrals ... on
Storage of 3 and 4 external integrals         ... on
Generation of ALL (ka|bc)[P] integrals        ... on
Keep RI integrals in memory                   ... off

Ibatch:  1 (of  1)
Starting 2-4 index PNO integral generation ... done

Timings:
Total PNO integral transformation time     ...          4.158 sec
Size of the 3-external file                ...        44 MB
Size of the 4-external file                ...       202 MB
Size of the IKJL file                      ...         0 MB
Size of the all 3-external file            ...       404 MB
Size of the 1-external file                ...         2 MB

Making pair/pair overlap matrices          ... done (    0.711 sec)
Size of the pair overlap file              ... 142 MB
Redoing the guess amplitudes               ... done (    0.002 sec)

-------------------------
FINAL STARTUP INFORMATION
-------------------------

E(0)                                       ...   -250.206378499
E(L-MP2)                                   ...     -0.879749853
E(L-MP2) including corrections             ...     -0.879749853
Initial E(tot)                             ...   -251.086128352
<T|T>                                      ...      0.270998604
Number of pairs included                   ... 171
Total number of pairs                      ... 171

------------------------------------------------
                  RHF COUPLED CLUSTER ITERATIONS
------------------------------------------------

Number of PNO amplitudes to be optimized   ...       169290
Number of non-PNO amplitudes               ...      2261475
Untruncated number of regular amplitudes   ...      2261475

Iter       E(tot)           E(Corr)          Delta-E          Residual     Time
  0   -251.057758763     -0.851025223      0.028724630      0.019346542    3.14
                           *** Turning on DIIS ***
  1   -251.122613937     -0.915880396     -0.064855173      0.007395271    3.14
  2   -251.152666847     -0.945933307     -0.030052911      0.001598927    3.15
  3   -251.156597934     -0.949864394     -0.003931087      0.000738093    3.11
  4   -251.157415793     -0.950682252     -0.000817859      0.000287517    8.37
  5   -251.157547085     -0.950813545     -0.000131292      0.000191462   17.39
  6   -251.157575861     -0.950842320     -0.000028776      0.000103128    3.14
  7   -251.157579759     -0.950846218     -0.000003898      0.000055876    3.15
  8   -251.157580925     -0.950847384     -0.000001166      0.000022428    2.96
  9   -251.157580993     -0.950847453     -0.000000069      0.000006654    3.02
               --- The Coupled-Cluster iterations have converged ---

----------------------
COUPLED CLUSTER ENERGY
----------------------

E(0)                                       ...   -250.206378499
E(CORR)(strong-pairs)                      ...     -0.950847453
E(CORR)(weak-pairs)                        ...     -0.000355041
E(CORR)(corrected)                         ...     -0.951202494
E(TOT)                                     ...   -251.157580993
Singles Norm <S|S>**1/2                    ...      0.045927004  
T1 diagnostic                              ...      0.007654501  

------------------
LARGEST AMPLITUDES
------------------
  17-> 33  17-> 33       0.041394
  14-> 33  14-> 33       0.041393
  19-> 33  19-> 33       0.041244
  20-> 33  20-> 33       0.041241
  16-> 33  16-> 33       0.041109
  15-> 33  15-> 33       0.041108
  23-> 33  23-> 33       0.040918
  22-> 33  22-> 33       0.040235
  16-> 24  16-> 24       0.037905
  15-> 24  15-> 24       0.037905
  18-> 24  18-> 24       0.037825
  21-> 24  21-> 24       0.037824
  22-> 24  22-> 24       0.037750
  21-> 33  21-> 33       0.037444
  18-> 33  18-> 33       0.037443
  19-> 24  19-> 24       0.037253


-------------------------------------------
DLPNO BASED TRIPLES CORRECTION
-------------------------------------------

Singles multiplier          ...  1.000000
TCutTNO                     ... 1.000e-09
TCutMP2Pairs                ... 1.000e-06
TCutDOStrong                ... 1.000e-02
TCutMKNStrong               ... 1.000e-02
TCutDOWeak                  ... 2.000e-02
TCutMKNWeak                 ... 1.000e-01

Fragment selection                          .... not used
Number of Triples that are to be computed   ...      1122

 . . . . . . . . .
10% done  
20% done  
30% done  
40% done  
50% done  
60% done  
70% done  
80% done  
90% done               (     33.531 sec)
Triples timings:
Total time for T0               ...    35.700 sec
Total time for Iterative (T)    ...     0.000 sec
Total time of overall (T)       ...    35.701 sec

Triples List generation         ...     0.000 sec
TNO generation                  ...     2.166 sec
Pair density generation         ...     0.002 sec
Look up tables                  ...     0.000 sec
Generating 3-index integrals    ...    15.199 sec
  Make 4-ind.int. from 3-ind.int...     6.930 sec
  Projecting amplitudes (D + S) ...     3.072 sec
  Downprojecting integrals      ...     0.002 sec
  Energy contr. (sum over a,b,c)...     2.429 sec
Fitting ET(->0)                 ...     0.000 sec

Everything after 3-index        ...    18.332 sec

Timing details:
 TNO integrals                  ...    21.331 sec
   Reading 3-index integrals    ...     0.025 sec
   Sorting integrals            ...     4.409 sec
       Sorting integrals 1      ...     0.001 sec
       Sorting integrals 2      ...     1.135 sec
       Sorting integrals 3      ...     0.203 sec
       Sorting integrals 4      ...     0.019 sec
       Sorting integrals 5      ...     0.052 sec
       Sorting integrals 6      ...     2.999 sec
   Calculating local VM**-1/2   ...     0.168 sec
   Orthogonal. integrals        ...     0.358 sec
   Multipl. 3-index integrals   ...    16.370 sec
   All concerning IRIab (w/TNO) ...     3.157 sec

 Calculate W0/W1                ...     5.892 sec
 W 3-ext contribution           ...     3.232 sec
 W 3-int contribution           ...     0.999 sec
 Sorting W                      ...     1.545 sec

 V exchange contribution        ...     0.949 sec

 Timings for Triples without generation
     of 3-index integrals       ...    18.329 sec
       0 weak pairs             ...    18.329 sec
       1 weak pair              ...     0.000 sec
       2 weak pairs             ...     0.000 sec
       3 weak pairs             ...     0.000 sec
  Extra time for extrapolation  ...     0.000 sec

Number of Triples   (0, 1, 2, 3 weak pairs; overall):   1122       0       0       0  (  1122)
Number of Atoms     (0, 1, 2, 3 weak pairs; overall):   16.7     0.0     0.0     0.0  (    17)
Number of PAOs      (0, 1, 2, 3 weak pairs; overall):  137.4     0.0     0.0     0.0  (   139)
Number of AuxFcns   (0, 1, 2, 3 weak pairs; overall):  242.9     0.0     0.0     0.0  (   490)
Number of TNOs      (0, 1, 2, 3 weak pairs         ):   68.4     0.0     0.0     0.0
Aver. Number of NTNO, Atoms, PAOs, AuxFcns / Triples:   1122    68.4    16.7   137.4   242.9

Triples Correction (T)                     ...     -0.028640310
Final correlation energy                   ...     -0.979842804
E(CCSD)                                    ...   -251.157580993
E(CCSD(T))                                 ...   -251.186221304


Maximum memory used throughout the entire calculation: 4124.8 MB


------------------------------------------------------------------------------- 
                                     TIMINGS                                   
------------------------------------------------------------------------------- 


Total execution time                   ...      116.167 sec

Localization of occupied MO's          ...        0.424 sec (  0.4%)
Fock Matrix Formation                  ...        1.264 sec (  1.1%)
Global overlap, Fock, MKN matrices     ...        0.135 sec (  0.1%)
Differential overlap integrals         ...        0.112 sec (  0.1%)
Organizing maps                        ...        0.021 sec (  0.0%)
RI 3-index integral generations        ...        1.603 sec (  1.4%)
RI-PNO integral transformation         ...       21.828 sec ( 18.8%)
Initial Guess                          ...        4.212 sec (  3.6%)
DIIS Solver                            ...        0.518 sec (  0.4%)
State Vector Update                    ...        0.013 sec (  0.0%)
Sigma-vector construction              ...       50.429 sec ( 43.4%)
  <D|H|D>(0-ext)                       ...        1.997 sec (  4.0% of sigma)
  <D|H|D>(2-ext Fock)                  ...        0.012 sec (  0.0% of sigma)
  <D|H|D>(2-ext)                       ...        4.215 sec (  8.4% of sigma)
  <D|H|D>(4-ext)                       ...        2.473 sec (  4.9% of sigma)
  <D|H|D>(4-ext-corr)                  ...       12.744 sec ( 25.3% of sigma)
  CCSD doubles correction              ...        0.171 sec (  0.3% of sigma)
  <S|H|S>                              ...        0.272 sec (  0.5% of sigma)
  <S|H|D>(1-ext)                       ...        0.252 sec (  0.5% of sigma)
  <D|H|S>(1-ext)                       ...        0.010 sec (  0.0% of sigma)
  <S|H|D>(3-ext)                       ...        0.180 sec (  0.4% of sigma)
  Fock-dressing                        ...        4.943 sec (  9.8% of sigma)
  Singles amplitudes                   ...        0.187 sec (  0.4% of sigma)
  (ik|jl)-dressing                     ...        1.426 sec (  2.8% of sigma)
  (ij|ab),(ia|jb)-dressing             ...       21.275 sec ( 42.2% of sigma)
  Pair energies                        ...        0.005 sec (  0.0% of sigma)
Total Time for computing (T)           ...       35.747 sec ( 30.8% of ALL)


-------------------------   --------------------
FINAL SINGLE POINT ENERGY      -251.186221303538
-------------------------   --------------------


                            ***************************************
                            *     ORCA property calculations      *
                            ***************************************

                                    ---------------------
                                    Active property flags
                                    ---------------------
   (+) Dipole Moment


------------------------------------------------------------------------------
                       ORCA ELECTRIC PROPERTIES CALCULATION
------------------------------------------------------------------------------

Dipole Moment Calculation                       ... on
Quadrupole Moment Calculation                   ... off
Polarizability Calculation                      ... off
GBWName                                         ... piperidine_ax.gbw
Electron density file                           ... piperidine_ax.scfp.tmp
The origin for moment calculation is the CENTER OF MASS  = ( 0.000019, -0.045754  0.000776)

-------------
DIPOLE MOMENT
-------------
                                X             Y             Z
Electronic contribution:      0.00100      -1.82101      -0.19897
Nuclear contribution   :     -0.00121       2.19610      -0.03732
                        -----------------------------------------
Total Dipole Moment    :     -0.00021       0.37509      -0.23629
                        -----------------------------------------
Magnitude (a.u.)       :      0.44332
Magnitude (Debye)      :      1.12682



--------------------
Rotational spectrum 
--------------------
 
Rotational constants in cm-1:     0.148877     0.145581     0.083708 
Rotational constants in MHz :  4463.214557  4364.410999  2509.511634 

 Dipole components along the rotational axes: 
x,y,z [a.u.] :     0.375774     0.000143    -0.235209 
x,y,z [Debye]:     0.955143     0.000363    -0.597854 

 

Timings for individual modules:

Sum of individual times         ...      120.708 sec (=   2.012 min)
GTO integral calculation        ...        0.414 sec (=   0.007 min)   0.3 %
SCF iterations                  ...        3.958 sec (=   0.066 min)   3.3 %
MDCI module                     ...      116.335 sec (=   1.939 min)  96.4 %
                             ****ORCA TERMINATED NORMALLY****
TOTAL RUN TIME: 0 days 0 hours 2 minutes 0 seconds 946 msec
piperidine_ax.gbw -> /home1/pantazis/klk/VDZ/Nitrogen_compounds/piperidine_ax.gbw
piperidine_ax.ges -> /home1/pantazis/klk/VDZ/Nitrogen_compounds/piperidine_ax.ges
piperidine_ax.job -> /home1/pantazis/klk/VDZ/Nitrogen_compounds/piperidine_ax.job
piperidine_ax.loc -> /home1/pantazis/klk/VDZ/Nitrogen_compounds/piperidine_ax.loc
piperidine_ax.nodes -> /home1/pantazis/klk/VDZ/Nitrogen_compounds/piperidine_ax.nodes
piperidine_ax.prop -> /home1/pantazis/klk/VDZ/Nitrogen_compounds/piperidine_ax.prop
piperidine_ax_property.txt -> /home1/pantazis/klk/VDZ/Nitrogen_compounds/piperidine_ax_property.txt
piperidine_ax.xyz -> /home1/pantazis/klk/VDZ/Nitrogen_compounds/piperidine_ax.xyz
cp: cannot stat piperidine_ax.asa.inp: No such file or directory
