! Job execution by suborca V 6.07 on ZEUS !
Job started from zeus1, running /scratch/pantazis/propene_H_H_anti__mdiCZh/orca/orca copied from /opt/orca on zeussn149 in /scratch/pantazis/propene_H_H_anti__mdiCZh
Job execution start: Sat Jun 29 10:53:05 CEST 2019
Shared library path: /scratch/pantazis/propene_H_H_anti__mdiCZh/orca:/opt/openmpi_1.10.2/lib:/opt/intel/mkl/lib/intel64:/opt/intel/lib/intel64:
PBS Job ID is: 158765.icqc
izeussn149
izeussn149
izeussn149
izeussn149

                                 *****************
                                 * O   R   C   A *
                                 *****************

           --- An Ab Initio, DFT and Semiempirical electronic structure package ---

                  #######################################################
                  #                        -***-                        #
                  #          Department of theory and spectroscopy      #
                  #               Directorship: Frank Neese             #
                  #        Max Planck Institute fuer Kohlenforschung    #
                  #                Kaiser Wilhelm Platz 1               #
                  #                 D-45470 Muelheim/Ruhr               #
                  #                      Germany                        #
                  #                                                     #
                  #                  All rights reserved                #
                  #                        -***-                        #
                  #######################################################


                         Program Version 4.1.x  -  STABLE  -
                                (SVN: $Rev: 14094$)
                ($Date: 2019-06-14 15:01:15 +0200 (Fri, 14 Jun 2019) $)

                         (BUILD: $Sun Jun 23 06:18:31 CEST 2019$)


 With contributions from (in alphabetic order):
   Daniel Aravena         : Magnetic Properties
   Michael Atanasov       : Ab Initio Ligand Field Theory
   Alexander A. Auer      : GIAO ZORA
   Ute Becker             : Parallelization
   Giovanni Bistoni       : ED, Open-shell LED
   Martin Brehm           : Molecular dynamics
   Dmytro Bykov           : SCF Hessian
   Vijay G. Chilkuri      : MRCI spin determinant printing
   Dipayan Datta          : RHF DLPNO-CCSD density
   Achintya Kumar Dutta   : EOM-CC, STEOM-CC
   Dmitry Ganyushin       : Spin-Orbit,Spin-Spin,Magnetic field MRCI
   Miquel Garcia          : C-PCM Hessian
   Yang Guo               : DLPNO-NEVPT2, CIM, IAO-localization
   Andreas Hansen         : Spin unrestricted coupled pair/coupled cluster methods
   Benjamin Helmich-Paris : CASSCF linear response (MC-RPA)
   Lee Huntington         : MR-EOM, pCC
   Robert Izsak           : Overlap fitted RIJCOSX, COSX-SCS-MP3, EOM
   Christian Kollmar      : KDIIS, OOCD, Brueckner-CCSD(T), CCSD density
   Simone Kossmann        : Meta GGA functionals, TD-DFT gradient, OOMP2, MP2 Hessian
   Martin Krupicka        : AUTO-CI
   Lucas Lang             : DCDCAS
   Dagmar Lenk            : GEPOL surface, SMD
   Dimitrios Liakos       : Extrapolation schemes; parallel MDCI
   Dimitrios Manganas     : ROCIS; embedding schemes
   Dimitrios Pantazis     : SARC Basis sets
   Taras Petrenko         : DFT Hessian,TD-DFT gradient, ASA, ECA, R-Raman, ABS, FL, XAS/XES, NRVS
   Peter Pinski           : DLPNO-MP2, DLPNO-MP2 Gradient
   Christoph Reimann      : Effective Core Potentials
   Marius Retegan         : Local ZFS, SOC
   Christoph Riplinger    : Optimizer, TS searches, QM/MM, DLPNO-CCSD(T), (RO)-DLPNO pert. Triples
   Tobias Risthaus        : Range-separated hybrids, TD-DFT gradient, RPA, STAB
   Michael Roemelt        : Restricted open shell CIS
   Masaaki Saitow         : Open-shell DLPNO
   Barbara Sandhoefer     : DKH picture change effects
   Avijit Sen             : IP-ROCIS
   Kantharuban Sivalingam : CASSCF convergence, NEVPT2, FIC-MRCI
   Bernardo de Souza      : ESD, SOC TD-DFT
   Georgi Stoychev        : AutoAux, RI-MP2 NMR
   Willem Van den Heuvel  : Paramagnetic NMR
   Boris Wezisla          : Elementary symmetry handling
   Frank Wennmohs         : Technical directorship


 We gratefully acknowledge several colleagues who have allowed us to
 interface, adapt or use parts of their codes:
   Stefan Grimme, W. Hujo, H. Kruse,             : VdW corrections, initial TS optimization,
                  C. Bannwarth                     DFT functionals, gCP, sTDA/sTD-DF
   Ed Valeev                                     : LibInt (2-el integral package), F12 methods
   Garnet Chan, S. Sharma, J. Yang, R. Olivares  : DMRG
   Ulf Ekstrom                                   : XCFun DFT Library
   Mihaly Kallay                                 : mrcc  (arbitrary order and MRCC methods)
   Andreas Klamt, Michael Diedenhofen            : otool_cosmo (COSMO solvation model)
   Jiri Pittner, Ondrej Demel                    : Mk-CCSD
   Frank Weinhold                                : gennbo (NPA and NBO analysis)
   Christopher J. Cramer and Donald G. Truhlar   : smd solvation model
   Lars Goerigk                                  : TD-DFT with DH, B97 family of functionals
   V. Asgeirsson, H. Jonsson                     : NEB implementation
   FAccTs GmbH                                   : IRC, NEB, NEB-TS, Multilevel


 Your calculation uses the libint2 library for the computation of 2-el integrals
 For citations please refer to: http://libint.valeyev.net

 This ORCA versions uses:
   CBLAS   interface :  Fast vector & matrix operations
   LAPACKE interface :  Fast linear algebra routines
   SCALAPACK package :  Parallel linear algebra routines




***************************************
The coordinates will be read from file: propene_H_H_anti.xyz
***************************************


----- Orbital basis set information -----
Your calculation utilizes the basis: cc-pVDZ 
       H, B-Ne : Obtained from the ccRepo (grant-hill.group.shef.ac.uk/ccrepo) Feb. 2017
                 T. H. Dunning, Jr., J. Chem. Phys. 90, 1007 (1989)
            He : Obtained from the ccRepo (grant-hill.group.shef.ac.uk/ccrepo) Feb. 2017
                 D. E. Woon, T. H. Dunning, Jr., J. Chem. Phys. 100, 2975 (1994)
  Li-Be, Na-Mg : Obtained from the ccRepo (grant-hill.group.shef.ac.uk/ccrepo) Feb. 2017
                 B. P. Prascher, D. E. Woon, K. A. Peterson, T. H. Dunning, Jr., A. K. Wilson, Theor. Chem. Acc. 128, 69 (2011)
         Al-Ar : Obtained from the ccRepo (grant-hill.group.shef.ac.uk/ccrepo) Feb. 2017
                 D. E. Woon, T. H. Dunning, Jr., J. Chem. Phys. 98, 1358 (1993)
            Ca : Obtained from the Peterson Research Group Website (tyr0.chem.wsu.edu/~kipeters) Feb. 2017
                 J. Koput, K. A. Peterson, J. Phys. Chem. 106, 9595 (2002)
         Sc-Zn : Obtained from the ccRepo (grant-hill.group.shef.ac.uk/ccrepo) Feb. 2017
                 N. B. Balabanov, K. A. Peterson, J. Chem. Phys. 123, 064107 (2005)
                 N. B. Balabanov, K. A. Peterson, J. Chem. Phys. 125, 074110 (2006)
         Ga-Kr : Obtained from the ccRepo (grant-hill.group.shef.ac.uk/ccrepo) Feb. 2017
                 A. K. Wilson, D. E. Woon, K. A. Peterson, T. H. Dunning, Jr., J. Chem. Phys. 110, 7667 (1999)

----- AuxC basis set information -----
Your calculation utilizes the auxiliary basis: cc-pVDZ/C 
  H-He, B, Ne, Al-Ar, Ga-Br : Obtained from the EMSL Basis Set Exchange (bse.pnl.gov) Feb. 2017
                              F. Weigend, A. Kohn, C. Hattig, J. Chem. Phys. 116, 3175 (2002)
               Li-Be, Na-Mg : Obtained from the EMSL Basis Set Exchange (bse.pnl.gov) Feb. 2017
                              C. Haettig, Phys. Chem. Chem. Phys. 7, 59 (2005)
                        C-F : Obtained from the EMSL Basis Set Exchange (bse.pnl.gov) Feb. 2017
                              C. Haettig, Phys. Chem. Chem. Phys. 7, 59 (2005)
                              F. Weigend, A. Kohn, C. Hattig, J. Chem. Phys. 116, 3175 (2002)
                         Kr : Obtained from the TURBOMOLE 7.0 basis set library
                              F. Weigend, A. Kohn, C. Hattig, J. Chem. Phys. 116, 3175 (2002)
                              S function revised in Sep. 2009

----- AuxJK basis set information -----
Your calculation utilizes the auxiliary basis: cc-pVTZ/JK 
  H, B-F, Al-Cl, Ga-Br : Obtained from the TURBOMOLE 7.0 basis set library

================================================================================
                                        WARNINGS
                       Please study these warnings very carefully!
================================================================================


WARNING: MDCI localization with Augmented Hessian Foster-Boys
  ===> : Switching off randomization!

WARNING: Post HF methods need fully converged wavefunctions
  ===> : Setting SCFConvForced true
         You can overwrite this default with %scf ConvForced false 


INFO   : the flag for use of LIBINT has been found!

================================================================================
                                       INPUT FILE
================================================================================
NAME = propene_H_H_anti.inp
|  1> ! RHF DLPNO-CCSD(T) cc-pVDZ RIJK cc-pVTZ/JK cc-pVDZ/C
|  2> ! KDIIS SOSCF TightSCF TightPNO
|  3> 
|  4> %pal nprocs 4 end
|  5> 
|  6> %maxcore 8000
|  7> 
|  8> %scf maxiter 300
|  9>      shift shift 0.2 erroff 0.1 end
| 10> end
| 11> 
| 12> * xyzfile 0 1 propene_H_H_anti.xyz 
| 13> 
| 14> 
| 15>                          ****END OF INPUT****
================================================================================

                       ****************************
                       * Single Point Calculation *
                       ****************************

---------------------------------
CARTESIAN COORDINATES (ANGSTROEM)
---------------------------------
  C      1.232560    0.164380    0.000000
  C     -0.133230   -0.467540   -0.000010
  C     -1.278600    0.228840    0.000000
  H      1.183990    1.277130   -0.000100
  H      1.800900   -0.153920    0.903440
  H      1.800990   -0.154090   -0.903320
  H     -0.174850   -1.570730    0.000010
  H     -2.254880   -0.282870    0.000000
  H     -1.280550    1.330440   -0.000010

----------------------------
CARTESIAN COORDINATES (A.U.)
----------------------------
  NO LB      ZA    FRAG     MASS         X           Y           Z
   0 C     6.0000    0    12.011    2.329201    0.310633    0.000000
   1 C     6.0000    0    12.011   -0.251768   -0.883523   -0.000019
   2 C     6.0000    0    12.011   -2.416204    0.432445    0.000000
   3 H     1.0000    0     1.008    2.237417    2.413426   -0.000189
   4 H     1.0000    0     1.008    3.403208   -0.290867    1.707254
   5 H     1.0000    0     1.008    3.403378   -0.291188   -1.707027
   6 H     1.0000    0     1.008   -0.330419   -2.968250    0.000019
   7 H     1.0000    0     1.008   -4.261106   -0.534547    0.000000
   8 H     1.0000    0     1.008   -2.419889    2.514167   -0.000019

--------------------------------
INTERNAL COORDINATES (ANGSTROEM)
--------------------------------
 C      0   0   0     0.000000000000     0.00000000     0.00000000
 C      1   0   0     1.504893753924     0.00000000     0.00000000
 C      2   1   0     1.340454229506   123.87167159     0.00000000
 H      1   2   3     1.113809506783   112.32961289     0.00000000
 H      1   2   3     1.113790410804   110.06657073   120.28048659
 H      1   2   3     1.113787604618   110.06652983   239.70571477
 H      2   1   3     1.103974818961   116.98947886   180.00212913
 H      3   2   1     1.102256668159   121.03962857   180.00048824
 H      3   2   1     1.101601725943   121.40084234     0.00000000

---------------------------
INTERNAL COORDINATES (A.U.)
---------------------------
 C      0   0   0     0.000000000000     0.00000000     0.00000000
 C      1   0   0     2.843837055565     0.00000000     0.00000000
 C      2   1   0     2.533091388822   123.87167159     0.00000000
 H      1   2   3     2.104794933178   112.32961289     0.00000000
 H      1   2   3     2.104758847008   110.06657073   120.28048659
 H      1   2   3     2.104753544084   110.06652983   239.70571477
 H      2   1   3     2.086210066582   116.98947886   180.00212913
 H      3   2   1     2.082963232108   121.03962857   180.00048824
 H      3   2   1     2.081725570687   121.40084234     0.00000000

---------------------
BASIS SET INFORMATION
---------------------
There are 2 groups of distinct atoms

 Group   1 Type C   : 17s4p1d contracted to 3s2p1d pattern {881/31/1}
 Group   2 Type H   : 4s1p contracted to 2s1p pattern {31/1}

Atom   0C    basis set group =>   1
Atom   1C    basis set group =>   1
Atom   2C    basis set group =>   1
Atom   3H    basis set group =>   2
Atom   4H    basis set group =>   2
Atom   5H    basis set group =>   2
Atom   6H    basis set group =>   2
Atom   7H    basis set group =>   2
Atom   8H    basis set group =>   2
-------------------------------
AUXILIARY BASIS SET INFORMATION
-------------------------------
There are 2 groups of distinct atoms

 Group   1 Type C   : 7s5p4d2f contracted to 7s5p4d2f pattern {1111111/11111/1111/11}
 Group   2 Type H   : 3s2p1d contracted to 3s2p1d pattern {111/11/1}

Atom   0C    basis set group =>   1
Atom   1C    basis set group =>   1
Atom   2C    basis set group =>   1
Atom   3H    basis set group =>   2
Atom   4H    basis set group =>   2
Atom   5H    basis set group =>   2
Atom   6H    basis set group =>   2
Atom   7H    basis set group =>   2
Atom   8H    basis set group =>   2
-------------------------------
AUXILIARY BASIS SET INFORMATION
-------------------------------
There are 2 groups of distinct atoms

 Group   1 Type C   : 10s7p5d2f1g contracted to 10s7p5d2f1g pattern {1111111111/1111111/11111/11/1}
 Group   2 Type H   : 4s3p2d1f contracted to 4s3p2d1f pattern {1111/111/11/1}

Atom   0C    basis set group =>   1
Atom   1C    basis set group =>   1
Atom   2C    basis set group =>   1
Atom   3H    basis set group =>   2
Atom   4H    basis set group =>   2
Atom   5H    basis set group =>   2
Atom   6H    basis set group =>   2
Atom   7H    basis set group =>   2
Atom   8H    basis set group =>   2

Checking for AutoStart:
The File: propene_H_H_anti.gbw exists
Trying to determine its content:
     ... Fine, the file contains calculation information
     ... Fine, the calculation information was read
     ... Fine, the file contains a basis set
     ... Fine, the basis set was read
     ... Fine, the file contains a geometry
     ... Fine, the geometry was read
     ... Fine, the file contains a set of orbitals
     ... Fine, the orbitals can be read
     => possible old guess file was deleted
     => GBW file was renamed to GES file
     => GES file is set as startup file
     => Guess is set to MORead
     ... now leaving AutoStart



           ************************************************************
           *        Program running with 4 parallel MPI-processes     *
           *              working on a common directory               *
           ************************************************************
------------------------------------------------------------------------------
                           ORCA GTO INTEGRAL CALCULATION
                           -- RI-GTO INTEGRALS CHOSEN --
------------------------------------------------------------------------------

                         BASIS SET STATISTICS AND STARTUP INFO

Gaussian basis set:
 # of primitive gaussian shells          ...   96
 # of primitive gaussian functions       ...  144
 # of contracted shells                  ...   36
 # of contracted basis functions         ...   72
 Highest angular momentum                ...    2
 Maximum contraction depth               ...    8
Auxiliary gaussian basis set:
 # of primitive gaussian shells          ...  135
 # of primitive gaussian functions       ...  417
 # of contracted shells                  ...  135
 # of contracted aux-basis functions     ...  417
 Highest angular momentum                ...    4
 Maximum contraction depth               ...    1
Ratio of auxiliary to basis functions    ...  5.79
Integral package used                  ... LIBINT
 One Electron integrals                  ... done
 Ordering auxiliary basis shells         ... done
 Integral threshhold             Thresh  ...  2.500e-11
 Primitive cut-off               TCut    ...  2.500e-12
 Pre-screening matrix                    ... done
 Shell pair data                         ... 
 Ordering of the shell pairs             ... done (   0.000 sec) 666 of 666 pairs
 Determination of significant pairs      ... done (   0.000 sec)
 Creation of shell pair data             ... done (   0.000 sec)
 Storage of shell pair data              ... done (   0.000 sec)
 Shell pair data done in (   0.001 sec)
 Computing two index integrals           ... done
 Cholesky decomposition of the V-matrix  ... done


Timings:
 Total evaluation time                   ...   0.282 sec (  0.005 min)
 One electron matrix time                ...   0.012 sec (  0.000 min) =  4.1%
 Schwartz matrix evaluation time         ...   0.190 sec (  0.003 min) = 67.5%
 Two index repulsion integral time       ...   0.024 sec (  0.000 min) =  8.7%
 Cholesky decomposition of V             ...   0.028 sec (  0.000 min) = 10.0%
 Three index repulsion integral time     ...   0.000 sec (  0.000 min) =  0.0%



           ************************************************************
           *        Program running with 4 parallel MPI-processes     *
           *              working on a common directory               *
           ************************************************************
-------------------------------------------------------------------------------
                                 ORCA SCF
-------------------------------------------------------------------------------

------------
SCF SETTINGS
------------
Hamiltonian:
 Ab initio Hamiltonian  Method          .... Hartree-Fock(GTOs)
 RI-approximation to the Coulomb term is turned on
   Number of auxiliary basis functions  .... 417
   RI-JK (J+K treated both via RI)      .... on


General Settings:
 Integral files         IntName         .... propene_H_H_anti
 Hartree-Fock type      HFTyp           .... RHF
 Total Charge           Charge          ....    0
 Multiplicity           Mult            ....    1
 Number of Electrons    NEL             ....   24
 Basis Dimension        Dim             ....   72
 Nuclear Repulsion      ENuc            ....     70.1778978118 Eh

Convergence Acceleration:
 DIIS                   CNVDIIS         .... off
 Newton-Raphson         CNVNR           .... off
 SOSCF                  CNVSOSCF        .... on
   Start iteration      SOSCFMaxIt      ....   150
   Startup grad/error   SOSCFStart      ....  0.003300
 Level Shifting         CNVShift        .... on
   Level shift para.    LevelShift      ....    0.2000
   Turn off err/grad.   ShiftErr        ....    0.1000
 Zerner damping         CNVZerner       .... off
 Static damping         CNVDamp         .... off
 Fernandez-Rico         CNVRico         .... off

SCF Procedure:
 Maximum # iterations   MaxIter         ....   300
 SCF integral mode      SCFMode         .... Direct
   Integral package                     .... LIBINT
 Reset frequency        DirectResetFreq ....    20
 Integral Threshold     Thresh          ....  2.500e-11 Eh
 Primitive CutOff       TCut            ....  2.500e-12 Eh

Convergence Tolerance:
 Convergence Check Mode ConvCheckMode   .... Total+1el-Energy
 Convergence forced     ConvForced      .... 1
 Energy Change          TolE            ....  1.000e-08 Eh
 1-El. energy change                    ....  1.000e-05 Eh
 Orbital Gradient       TolG            ....  1.000e-05
 Orbital Rotation angle TolX            ....  1.000e-05


Diagonalization of the overlap matrix:
Smallest eigenvalue                        ... 3.397e-03
Time for diagonalization                   ...    0.004 sec
Threshold for overlap eigenvalues          ... 1.000e-08
Number of eigenvalues below threshold      ... 0
Time for construction of square roots      ...    0.004 sec
Total time needed                          ...    0.008 sec

---------------------
INITIAL GUESS: MOREAD
---------------------
Guess MOs are being read from file: propene_H_H_anti.ges
Input Geometry matches current geometry (good)
Atom 0: N(Shells)= 6 and 10 - projection required
Input basis set needs projection
NBasis(read)= 174
NBasis(calc)= 72
Basis set overlap was calculated
Using GuessMode=FMatrix for the initial guess
C*T matrix was formed
Effective Fockian was calculated
Effective Fockian was diagonalized
Initial density was built
                      ------------------
                      INITIAL GUESS DONE (   0.0 sec)
                      ------------------
--------------
SCF ITERATIONS
--------------
ITER       Energy         Delta-E        Max-DP      RMS-DP      [F,P]   Gradient Norm
                             ****Turning on KDIIS(Cayley)****
  0   -117.0799430184   0.000000000000 0.00137611  0.00008137  0.0075705   0.005666133
  1   -117.0799976741  -0.000054655686 0.00278918  0.00016763  0.0068873   0.005158622
  2   -117.0800939338  -0.000096259740 0.00452672  0.00027255  0.0055181   0.004141623
  3   -117.0802068153  -0.000112881503 0.00671798  0.00040901  0.0033061   0.002484007
                      *** Initiating the SOSCF procedure ***
                           *** Shutting down KDIIS ***
                      *** Re-Reading the Fockian *** 
                      *** Removing any level shift *** 
ITER      Energy       Delta-E        Grad      Rot      Max-DP    RMS-DP
  4   -117.08027066  -0.0000638496  0.000019  0.000019  0.000050  0.000002
  5   -117.08027067  -0.0000000040  0.000004  0.000007  0.000009  0.000001
  6   -117.08027067  -0.0000000006  0.000005  0.000015  0.000015  0.000001
                 **** Energy Check signals convergence ****
              ***Rediagonalizing the Fockian in SOSCF/NRSCF***

               *****************************************************
               *                     SUCCESS                       *
               *           SCF CONVERGED AFTER   7 CYCLES          *
               *****************************************************


----------------
TOTAL SCF ENERGY
----------------

Total Energy       :         -117.08027067 Eh           -3185.91613 eV

Components:
Nuclear Repulsion  :           70.17789781 Eh            1909.63768 eV
Electronic Energy  :         -187.25816848 Eh           -5095.55382 eV
One Electron Energy:         -295.39641505 Eh           -8038.14510 eV
Two Electron Energy:          108.13824657 Eh            2942.59129 eV

Virial components:
Potential Energy   :         -233.79435439 Eh           -6361.86781 eV
Kinetic Energy     :          116.71408372 Eh            3175.95168 eV
Virial Ratio       :            2.00313747


---------------
SCF CONVERGENCE
---------------

  Last Energy change         ...   -2.3542e-10  Tolerance :   1.0000e-08
  Last MAX-Density change    ...    1.3469e-06  Tolerance :   1.0000e-07
  Last RMS-Density change    ...    7.6916e-08  Tolerance :   5.0000e-09
  Last Orbital Gradient      ...    5.1038e-07  Tolerance :   1.0000e-05
  Last Orbital Rotation      ...    5.6484e-07  Tolerance :   1.0000e-05

             **** THE GBW FILE WAS UPDATED (propene_H_H_anti.gbw) ****
             **** DENSITY FILE WAS UPDATED (propene_H_H_anti.scfp.tmp) ****
             **** ENERGY FILE WAS UPDATED (propene_H_H_anti.en.tmp) ****
----------------
ORBITAL ENERGIES
----------------

  NO   OCC          E(Eh)            E(eV) 
   0   2.0000     -11.241134      -305.8868 
   1   2.0000     -11.235585      -305.7358 
   2   2.0000     -11.228318      -305.5381 
   3   2.0000      -1.058779       -28.8108 
   4   2.0000      -0.924496       -25.1568 
   5   2.0000      -0.749289       -20.3892 
   6   2.0000      -0.629089       -17.1184 
   7   2.0000      -0.575989       -15.6735 
   8   2.0000      -0.562547       -15.3077 
   9   2.0000      -0.512669       -13.9504 
  10   2.0000      -0.486817       -13.2470 
  11   2.0000      -0.355252        -9.6669 
  12   0.0000       0.176464         4.8018 
  13   0.0000       0.192538         5.2392 
  14   0.0000       0.218486         5.9453 
  15   0.0000       0.231337         6.2950 
  16   0.0000       0.264552         7.1988 
  17   0.0000       0.273260         7.4358 
  18   0.0000       0.289480         7.8772 
  19   0.0000       0.399960        10.8835 
  20   0.0000       0.504549        13.7295 
  21   0.0000       0.580065        15.7844 
  22   0.0000       0.611150        16.6302 
  23   0.0000       0.632630        17.2147 
  24   0.0000       0.705741        19.2042 
  25   0.0000       0.729922        19.8622 
  26   0.0000       0.765322        20.8255 
  27   0.0000       0.780737        21.2449 
  28   0.0000       0.820665        22.3314 
  29   0.0000       0.857845        23.3431 
  30   0.0000       0.870631        23.6911 
  31   0.0000       0.876092        23.8397 
  32   0.0000       0.909873        24.7589 
  33   0.0000       0.923304        25.1244 
  34   0.0000       0.981323        26.7032 
  35   0.0000       1.011092        27.5132 
  36   0.0000       1.111571        30.2474 
  37   0.0000       1.217303        33.1245 
  38   0.0000       1.240824        33.7645 
  39   0.0000       1.283932        34.9376 
  40   0.0000       1.302746        35.4495 
  41   0.0000       1.397163        38.0187 
  42   0.0000       1.434342        39.0304 
  43   0.0000       1.601283        43.5731 
  44   0.0000       1.667940        45.3869 
  45   0.0000       1.669397        45.4266 
  46   0.0000       1.738806        47.3153 
  47   0.0000       1.814455        49.3738 
  48   0.0000       1.829436        49.7815 
  49   0.0000       1.880249        51.1642 
  50   0.0000       1.881948        51.2104 
  51   0.0000       1.899103        51.6772 
  52   0.0000       1.934380        52.6371 
  53   0.0000       1.953530        53.1582 
  54   0.0000       1.979148        53.8553 
  55   0.0000       2.067241        56.2525 
  56   0.0000       2.068128        56.2766 
  57   0.0000       2.163923        58.8833 
  58   0.0000       2.225902        60.5699 
  59   0.0000       2.281665        62.0872 
  60   0.0000       2.356154        64.1142 
  61   0.0000       2.391119        65.0657 
  62   0.0000       2.492553        67.8258 
  63   0.0000       2.522216        68.6330 
  64   0.0000       2.545669        69.2712 
  65   0.0000       2.603135        70.8349 
  66   0.0000       2.708002        73.6885 
  67   0.0000       2.785144        75.7876 
  68   0.0000       2.796067        76.0848 
  69   0.0000       2.884045        78.4788 
  70   0.0000       3.048097        82.9429 
  71   0.0000       3.303515        89.8932 

                    ********************************
                    * MULLIKEN POPULATION ANALYSIS *
                    ********************************

-----------------------
MULLIKEN ATOMIC CHARGES
-----------------------
   0 C :   -0.022037
   1 C :   -0.181606
   2 C :   -0.056076
   3 H :    0.038606
   4 H :    0.048067
   5 H :    0.048063
   6 H :    0.033905
   7 H :    0.048970
   8 H :    0.042108
Sum of atomic charges:   -0.0000000

--------------------------------
MULLIKEN REDUCED ORBITAL CHARGES
--------------------------------
  0 C s       :     3.040011  s :     3.040011
      pz      :     0.993383  p :     2.921594
      px      :     0.937415
      py      :     0.990796
      dz2     :     0.011312  d :     0.060433
      dxz     :     0.016866
      dyz     :     0.004316
      dx2y2   :     0.016822
      dxy     :     0.011117
  1 C s       :     3.200802  s :     3.200802
      pz      :     0.944169  p :     2.896965
      px      :     0.964302
      py      :     0.988494
      dz2     :     0.004710  d :     0.083839
      dxz     :     0.019004
      dyz     :     0.004413
      dx2y2   :     0.033375
      dxy     :     0.022337
  2 C s       :     3.081153  s :     3.081153
      pz      :     1.019868  p :     2.918157
      px      :     0.942243
      py      :     0.956046
      dz2     :     0.001984  d :     0.056765
      dxz     :     0.010059
      dyz     :     0.003732
      dx2y2   :     0.024108
      dxy     :     0.016883
  3 H s       :     0.931564  s :     0.931564
      pz      :     0.005008  p :     0.029830
      px      :     0.003962
      py      :     0.020860
  4 H s       :     0.921937  s :     0.921937
      pz      :     0.015475  p :     0.029996
      px      :     0.008578
      py      :     0.005943
  5 H s       :     0.921940  s :     0.921940
      pz      :     0.015472  p :     0.029996
      px      :     0.008580
      py      :     0.005945
  6 H s       :     0.935965  s :     0.935965
      pz      :     0.004877  p :     0.030130
      px      :     0.003434
      py      :     0.021818
  7 H s       :     0.919625  s :     0.919625
      pz      :     0.005395  p :     0.031405
      px      :     0.018001
      py      :     0.008008
  8 H s       :     0.926497  s :     0.926497
      pz      :     0.005298  p :     0.031395
      px      :     0.003968
      py      :     0.022129


                     *******************************
                     * LOEWDIN POPULATION ANALYSIS *
                     *******************************

----------------------
LOEWDIN ATOMIC CHARGES
----------------------
   0 C :   -0.056278
   1 C :   -0.035761
   2 C :   -0.072760
   3 H :    0.029422
   4 H :    0.031526
   5 H :    0.031524
   6 H :    0.026531
   7 H :    0.024573
   8 H :    0.021223

-------------------------------
LOEWDIN REDUCED ORBITAL CHARGES
-------------------------------
  0 C s       :     2.805808  s :     2.805808
      pz      :     1.041746  p :     3.090211
      px      :     1.010821
      py      :     1.037644
      dz2     :     0.029781  d :     0.160258
      dxz     :     0.047101
      dyz     :     0.010536
      dx2y2   :     0.045392
      dxy     :     0.027449
  1 C s       :     2.839654  s :     2.839654
      pz      :     0.904529  p :     2.989859
      px      :     1.052155
      py      :     1.033176
      dz2     :     0.012992  d :     0.206248
      dxz     :     0.038400
      dyz     :     0.007759
      dx2y2   :     0.086484
      dxy     :     0.060613
  2 C s       :     2.848739  s :     2.848739
      pz      :     0.987383  p :     3.069183
      px      :     1.049278
      py      :     1.032522
      dz2     :     0.010821  d :     0.154838
      dxz     :     0.017345
      dyz     :     0.006576
      dx2y2   :     0.069455
      dxy     :     0.050641
  3 H s       :     0.896899  s :     0.896899
      pz      :     0.013951  p :     0.073679
      px      :     0.013238
      py      :     0.046490
  4 H s       :     0.893662  s :     0.893662
      pz      :     0.035569  p :     0.074812
      px      :     0.022621
      py      :     0.016622
  5 H s       :     0.893664  s :     0.893664
      pz      :     0.035564  p :     0.074812
      px      :     0.022623
      py      :     0.016625
  6 H s       :     0.895853  s :     0.895853
      pz      :     0.015736  p :     0.077616
      px      :     0.013598
      py      :     0.048282
  7 H s       :     0.895934  s :     0.895934
      pz      :     0.017520  p :     0.079494
      px      :     0.039963
      py      :     0.022010
  8 H s       :     0.899277  s :     0.899277
      pz      :     0.017313  p :     0.079500
      px      :     0.012844
      py      :     0.049343


                      *****************************
                      * MAYER POPULATION ANALYSIS *
                      *****************************

  NA   - Mulliken gross atomic population
  ZA   - Total nuclear charge
  QA   - Mulliken gross atomic charge
  VA   - Mayer's total valence
  BVA  - Mayer's bonded valence
  FA   - Mayer's free valence

  ATOM       NA         ZA         QA         VA         BVA        FA
  0 C      6.0220     6.0000    -0.0220     3.9523     3.9523    -0.0000
  1 C      6.1816     6.0000    -0.1816     4.0567     4.0567    -0.0000
  2 C      6.0561     6.0000    -0.0561     3.9494     3.9494    -0.0000
  3 H      0.9614     1.0000     0.0386     0.9827     0.9827    -0.0000
  4 H      0.9519     1.0000     0.0481     0.9684     0.9684     0.0000
  5 H      0.9519     1.0000     0.0481     0.9684     0.9684    -0.0000
  6 H      0.9661     1.0000     0.0339     0.9850     0.9850     0.0000
  7 H      0.9510     1.0000     0.0490     0.9753     0.9753     0.0000
  8 H      0.9579     1.0000     0.0421     0.9832     0.9832    -0.0000

  Mayer bond orders larger than 0.1
B(  0-C ,  1-C ) :   1.0542 B(  0-C ,  3-H ) :   0.9807 B(  0-C ,  4-H ) :   0.9726 
B(  0-C ,  5-H ) :   0.9726 B(  1-C ,  2-C ) :   2.0034 B(  1-C ,  6-H ) :   0.9738 
B(  2-C ,  7-H ) :   0.9722 B(  2-C ,  8-H ) :   0.9683 

-------
TIMINGS
-------

Total SCF time: 0 days 0 hours 0 min 1 sec 

Total time                  ....       1.834 sec
Sum of individual times     ....       1.663 sec  ( 90.7%)

Fock matrix formation       ....       1.581 sec  ( 86.2%)
Diagonalization             ....       0.036 sec  (  2.0%)
Density matrix formation    ....       0.012 sec  (  0.6%)
Population analysis         ....       0.003 sec  (  0.2%)
Initial guess               ....       0.013 sec  (  0.7%)
Orbital Transformation      ....       0.000 sec  (  0.0%)
Orbital Orthonormalization  ....       0.000 sec  (  0.0%)
DIIS solution               ....       0.000 sec  (  0.0%)
SOSCF solution              ....       0.018 sec  (  1.0%)


           ************************************************************
           *        Program running with 4 parallel MPI-processes     *
           *              working on a common directory               *
           ************************************************************


------------------------------------------------------------------------------- 
                              ORCA-MATRIX DRIVEN CI                            
------------------------------------------------------------------------------- 


Wavefunction type
-----------------
Correlation treatment                      ...      CCSD     
Single excitations                         ... ON
Orbital optimization                       ... OFF
Calculation of Z vector                    ... OFF
Calculation of Brueckner orbitals          ... OFF
Perturbative triple excitations            ... ON
Calculation of F12 correction              ... OFF
Frozen core treatment                      ... chemical core (6 el)
Reference Wavefunction                     ... RHF
  Internal Orbitals:     3 ...   11 (  9 MO's/ 18 electrons)
  Virtual  Orbitals:    12 ...   71 ( 60 MO's              )
Number of AO's                             ...     72
Number of electrons                        ...     24
Number of correlated electrons             ...     18

Algorithmic settings
--------------------
Integral transformation                    ... All integrals via the RI transformation
K(C) Formation                             ... RI-DLPNO
   PNO-Integral Storage                    ... ON DISK
   PNO occupation number cut-off           ... 1.000e-07
   Singles PNO occupation number cut-off   ... 3.000e-09
   PNO Mulliken prescreening cut-off       ... 1.000e-03
   Domain cut-off (Mulliken population)    ... 1.000e-03
   PNO Normalization                       ...    1
Maximum number of iterations               ...        50
Convergence tolerance (max. residuum)      ... 1.000e-05
Level shift for amplitude update           ... 2.000e-01
Maximum number of DIIS vectors             ...         7
DIIS turned on at iteration                ...         0
Damping before turning on DIIS             ...     0.500
Damping after turning on DIIS              ...     0.000
Pair specific amplitude update             ... OFF
Natural orbital iterations                 ... OFF
Perturbative natural orbital generation    ... OFF
Printlevel                                 ... 2

Singles Fock matrix elements calculated using PNOs.

Memory handling:
----------------
Maximum memory for working arrays          ...   8000 MB
Data storage in matrix containers          ... UNCOMPRESSED
Data type for integral storage             ... DOUBLE
In-Core Storage of quantities:
   Amplitudes+Sigma Vector      ... NO
   J+K operators                ... NO
   DIIS vectors                 ... NO
   3-external integrals         ... NO
   4-external integrals         ... NO

Localization treatment:
-----------------------
Localization option                        ...    6
Localization threshhold                    ... -1.0e+00
Using relative localization threshhold     ... 1.0e-08
Neglect threshold for strong pairs         ... 1.000e-05 Eh
Prescreening threshold for very weak pairs ... 1.000e-07 Eh

Initializing the integral package          ... done
Localizing the valence orbitals
------------------------------------------------------------------------------
                           ORCA ORBITAL LOCALIZATION
------------------------------------------------------------------------------

Input orbitals are from                  ... propene_H_H_anti.proc0.gbw
Output orbitals are to                   ... propene_H_H_anti.proc0.loc
Max. number of iterations                ... 128
Localizations seeded randomly            ... off
Convergence tolerance                    ... 1.000e-06
Using relative localization threshhold   ... 1.000e-08
Treshold for strong local MOs            ... 9.500e-01
Treshold for bond MOs                    ... 8.500e-01
Operator                                 ... 0
Orbital range for localization           ... 3 to 11
Localization criterion                   ... FOSTER-BOYS (AUGMENTED HESSIAN)
Doing the dipole integrals     ... o.k.
Initial value of the localization sum :    55.859213
ITERATION   0 : L=   62.7884377845 DL=  6.93e+00 (AVERGE_DL)=    0.4387236652 
ITERATION   1 : L=   63.0789029552 DL=  2.90e-01 (AVERGE_DL)=    0.0898247013 
ITERATION   2 : L=   63.0792977521 DL=  3.95e-04 (AVERGE_DL)=    0.0033115827 
ITERATION   3 : L=   63.0792990421 DL=  1.29e-06 (AVERGE_DL)=    0.0001892961 
ITERATION   4 : L=   63.0792990434 DL=  1.29e-09 (AVERGE_DL)=    0.0000059959 
LOCALIZATION SUM CONVERGED

------------------------------------------------------
AUGMENTED HESSIAN OPTIMIZATION OF FOSTER-BOYS ORBITALS
------------------------------------------------------

Spin operator:           0
Orbital window:          3 to 11
Number of iterations:    128
Gradient tolerance:      1.000e-06
Number of pairs:         36
Davidson threshold:      2000
Diagonalization method:  LAPACK
Iter:    0   L: 63.0792990434   Grad. norm: 1.837897e-04
   *** Likely close to a maximum now. ***
       Augmented Hessian eigenvalues:  4.51e-10 -5.61e+00 -1.74e+01 -1.77e+01 ... 
Iter:    1   L: 63.0792990436   Grad. norm: 2.756191e-11
LOCALIZATION HAS CONVERGED.

Eigenvalues of the Hessian:
  0 -5.613e+00
  1 -1.741e+01
  2 -1.774e+01
  3 -1.828e+01
  4 -1.904e+01
  5 -1.980e+01
  6 -2.018e+01
  7 -2.189e+01
  8 -2.289e+01
  9 -2.309e+01
    ...


------------------------------------------------------------------------------- 
                    LOCALIZED MOLECULAR ORBITAL COMPOSITIONS                   
------------------------------------------------------------------------------- 

The Mulliken populations for each LMO on each atom are computed
The LMO`s will be ordered according to atom index and type
  (A) Strongly localized MO`s have populations of >=0.950 on one atom
  (B) Two center bond orbitals have populations of >=0.850 on two atoms
  (C) Other MO`s are considered to be `delocalized`

FOUND  -   0 strongly local MO`s
       -   9 two center bond MO`s
       -   0 significantly delocalized MO`s

Bond-like localized orbitals:
MO  11:   8H  -   0.490733  and   2C  -   0.515296
MO  10:   7H  -   0.489998  and   2C  -   0.515887
MO   9:   6H  -   0.493527  and   1C  -   0.516627
MO   8:   5H  -   0.494402  and   0C  -   0.514504
MO   7:   4H  -   0.494400  and   0C  -   0.514505
MO   6:   3H  -   0.494944  and   0C  -   0.517711
MO   5:   2C  -   0.506778  and   1C  -   0.507124
MO   4:   2C  -   0.506786  and   1C  -   0.507116
MO   3:   1C  -   0.551102  and   0C  -   0.488210
Localized MO's were stored in: propene_H_H_anti.proc0.loc

Localizing the core orbitals
------------------------------------------------------------------------------
                           ORCA ORBITAL LOCALIZATION
------------------------------------------------------------------------------

Input orbitals are from                  ... propene_H_H_anti.proc0.loc
Output orbitals are to                   ... propene_H_H_anti.proc0.loc
Max. number of iterations                ... 128
Localizations seeded randomly            ... off
Convergence tolerance                    ... 1.000e-06
Using relative localization threshhold   ... 1.000e-08
Treshold for strong local MOs            ... 9.500e-01
Treshold for bond MOs                    ... 8.500e-01
Operator                                 ... 0
Orbital range for localization           ... 0 to 2
Localization criterion                   ... FOSTER-BOYS (AUGMENTED HESSIAN)
Doing the dipole integrals     ... o.k.
Initial value of the localization sum :    12.390806
ITERATION   0 : L=   12.3908083196 DL=  2.33e-06 (AVERGE_DL)=    0.0008818606 
ITERATION   1 : L=   12.3908083196 DL=  0.00e+00 (AVERGE_DL)=    0.0000000000 
LOCALIZATION SUM CONVERGED

------------------------------------------------------
AUGMENTED HESSIAN OPTIMIZATION OF FOSTER-BOYS ORBITALS
------------------------------------------------------

Spin operator:           0
Orbital window:          0 to 2
Number of iterations:    128
Gradient tolerance:      1.000e-06
Number of pairs:         3
Davidson threshold:      2000
Diagonalization method:  LAPACK
Iter:    0   L: 12.3908083196   Grad. norm: 4.766316e-07
   *** Likely close to a maximum now. ***
       Augmented Hessian eigenvalues:  7.02e-15 -2.57e+01 -3.23e+01 -9.01e+01
Iter:    1   L: 12.3908083196   Grad. norm: 6.330457e-21
LOCALIZATION HAS CONVERGED.

Eigenvalues of the Hessian:
  0 -2.567e+01
  1 -3.235e+01
  2 -9.014e+01


------------------------------------------------------------------------------- 
                    LOCALIZED MOLECULAR ORBITAL COMPOSITIONS                   
------------------------------------------------------------------------------- 

The Mulliken populations for each LMO on each atom are computed
The LMO`s will be ordered according to atom index and type
  (A) Strongly localized MO`s have populations of >=0.950 on one atom
  (B) Two center bond orbitals have populations of >=0.850 on two atoms
  (C) Other MO`s are considered to be `delocalized`

FOUND  -   3 strongly local MO`s
       -   0 two center bond MO`s
       -   0 significantly delocalized MO`s

Rather strongly localized orbitals:
MO   2:   2C  -   0.999658
MO   1:   1C  -   0.999405
MO   0:   0C  -   0.999499
Localized MO's were stored in: propene_H_H_anti.proc0.loc

Warning: internal orbitals are localized - no re-canonicalization of internal orbitals

--------------------------
CLOSED-SHELL FOCK OPERATOR
--------------------------

RI-JK section for the Fock operator:
  RHF full Fock operator         ... done
  RHF frozen core Fock operator  ... done
Time needed for Fock operator              ...            0.568 sec
Reference energy                           ...   -117.080270670

--------------
DLPNO SETTINGS (2015 fully linear scaling implementation)
--------------

TCutMKN:           1.000e-03
TCutPAO:           1.000e-03
TCutPNO:           1.000e-07
TCutPNOSingles:    3.000e-09
TCutEN:            9.700e-01
TCutPAOExt:        1.000e-01
TCutPairs:         1.000e-05
TCutPre:           1.000e-07
TCutOSV:           1.000e-06
TCutDOij:          1.000e-05
TCutDO:            5.000e-03
TCutC:             1.000e-04
TCutCPAO:          1.000e-03
TCutCMO:           1.000e-03
TScaleDOMP2PreScr: 2.000e+00
TScaleMKNMP2PreScr:1.000e+01
TScalePNOMP2PreScr:1.000e+00
PAO overlap thresh 1.000e-08
Using PNOs for Singles Fock computation
Use new domains
Use fully linear algorithm
TCutTNO:           1.000e-09
TCutMP2Pairs:      1.000e-06
TCutDOStrong:      2.000e-03
TCutMKNStrong:     1.000e-02
TCutMKNWeak:       1.000e-01
TCutDOWeak:        4.000e-03
NTCutTNO:          1

--------------------------
Calculating differential overlap integrals ... ok
--------------------------
ELECTRON PAIR PRESCREENING
--------------------------

Dipole-based pair screening          .... used

   TCutDOij = 1.000000e-05
   TCutPre  = 1.000000e-07
   .... Finished loop over pairs
Total time spent in the prescreening                  ...     0.000 sec
sum of pair energies estimated for screened out pairs ...       0.000000000000 Eh
Thresholds for map construction and integral transformation for crude MP2:
   TCutMKN                    ...     1.0e-02
   TCutDO                     ...     1.0e-02
   TCutPairs                  ...     1.0e-05
   TCutPNO_CrudeMP2           ...     1.0e-07
   TCutPNOSingles_CrudeMP2    ...     3.0e-09
--------------------------------
LOCAL RI TRANSFORMATION (IAVPAO)
--------------------------------

Orbital window:       3 to 11
Number of PAOs:      72
Basis functions:     72 (36 shells)
Aux. functions:     252 (90 shells)

Processing maps (0.0 sec)
Average map sizes:
   Aux shells -> MOs               9.0
   Aux shells -> PAOs             72.0
   MOs        -> AO shells        36.0
   PAOs       -> AO shells        36.0

Calculating integrals (0.3 sec, 1.249 MB)
Sorting integrals (0.0 sec, 1.246 MB)
Total time for the integral transformation: 0.3 sec
--------------------------------
INITIAL GUESS AND PNO GENERATION
--------------------------------

PNO truncation parameters                   .... 
    PAOOverlapThresh   =        1.000e-08

    TCutPairs          =        1.000e-05
    TCutPNO            =        1.000e-07
    TCutPNOSingles     =        3.000e-09
    TCutMP2Pairs       =        1.000e-06
    TCutMKN            =        1.000e-02
    TCutDO             =        1.000e-02

Pair selection                          .... not used
Type of local MP2 treatment                 .... semi-local MP2
Strategy for PNO selection                  .... occupation number selection
Pair density normalization                  .... MP2 norm
Spin component scaling                      .... not used

   .... Finished loop over pairs
Making pair pair interaction lists          ... done

                       ===========================
                         45 OF   45 PAIRS ARE KEPT CCSD PAIRS
                          0 OF   45 PAIRS ARE KEPT MP2 PAIRS FOR (T)
                          0 OF   45 PAIRS ARE SKIPPED
                       ===========================

Total time spent in the initial guess                 ...     0.040 sec
SL-MP2 correlation energy (all non-screened pairs)    ...      -0.405267607107 Eh

Initial PNO correlation energy                        ...      -0.405191918121 Eh
sum of pair energies prescreened and skipped MP2 pairs...       0.000000000000 Eh
sum of pair energies of crude MP2 skipped pairs only  ...       0.000000000000 Eh
sum of MP2 pair energies for pairs that were not kept ...       0.000000000000 Eh
sum of PNO error estimates for the kept pairs         ...      -0.000075688986 Eh
                                                          --------------------
sum of all corrections                                         -0.000075688986
Initial total correlation energy                               -0.405267607107
Thresholds for map construction and integral transformation for fine MP2 and CCSD(T) calculation:
   TCutMKN   ...     1.0e-03
   TCutDO    ...     5.0e-03
   TCutPairs ...     1.0e-05
   TCutCMO   ...     1.0e-03
   TCutCPAO  ...     1.0e-03

Thresholds for map construction and integral transformation for strong Triples:
   TCutMKN   ...     1.0e-02
   TCutDO    ...     1.0e-02
   TCutCMO   ...     1.0e-03
   TCutCPAO  ...     1.0e-03

Thresholds for map construction and integral transformation for weak Triples:
   TCutMKN   ...     1.0e-01
   TCutDO    ...     2.0e-02
   TCutCMO   ...     1.0e-03
   TCutCPAO  ...     1.0e-03

--------------------------------
LOCAL RI TRANSFORMATION (IAVPAO)
--------------------------------

Orbital window:       3 to 11
Number of PAOs:      72
Basis functions:     72 (36 shells)
Aux. functions:     252 (90 shells)

Processing maps (0.0 sec)
Average map sizes:
   Aux shells -> MOs               9.0
   Aux shells -> PAOs             72.0
   MOs        -> AO shells        36.0
   PAOs       -> AO shells        36.0

Calculating integrals (0.3 sec, 1.249 MB)
Sorting integrals (0.0 sec, 1.246 MB)
Total time for the integral transformation: 0.3 sec
--------------------------------
INITIAL GUESS AND PNO GENERATION
--------------------------------

PNO truncation parameters                   .... 
    ScaleTCutPNO       =        1.000e-02
    PAOOverlapThresh   =        1.000e-08

    TCutPairs          =        1.000e-05
    TCutPNO            =        1.000e-07
    TCutPNOSingles     =        3.000e-09
    TCutMP2Pairs       =        1.000e-06
    TCutMKN            =        1.000e-03
    TCutDO             =        5.000e-03

Pair selection                          .... not used
Type of local MP2 treatment                 .... full local PMP2
Strategy for PNO selection                  .... occupation number selection
Pair density normalization                  .... MP2 norm
Spin component scaling                      .... not used

PASS-1: Formation of initial guess LMP2 amplitudes
Initial amplitudes guess done. Entering LMP2 iteration loop:
   Max. no of iterations          ...  50
   Energy convergence tolerance   ...    1.0e-07
   Residual convergence tolerance ...    5.0e-07
   Fock matrix cutoff             ...    1.0e-05 Eh
   DIIS convergence acceleration parameters:
        Max # vectors in DIIS     ... 7
        Start iteration of DIIS   ... 0
        Levelshift                ... 2.000e-01
        Damping factor 1          ... 5.000e-01
        Damping factor 2          ... 1.000e+00
   L-MP2 PNO cut-off              ...   1.0e-09
   L-MP2 PNO cut-off (core)       ...   1.0e-11
                           *** Turning on DIIS ***
LMP2-Iter=   0:  ELMP2= -0.413657723497  DE=   8.2e-03 RMAX=   1.8e-02
LMP2-Iter=   1:  ELMP2= -0.418426526164  DE=   4.8e-03 RMAX=   7.2e-03
LMP2-Iter=   2:  ELMP2= -0.419364977534  DE=   9.4e-04 RMAX=   2.7e-03
LMP2-Iter=   3:  ELMP2= -0.419457916864  DE=   9.3e-05 RMAX=   7.4e-04
LMP2-Iter=   4:  ELMP2= -0.419446080900  DE=   1.2e-05 RMAX=   1.6e-04
LMP2-Iter=   5:  ELMP2= -0.419444548354  DE=   1.5e-06 RMAX=   2.6e-05
LMP2-Iter=   6:  ELMP2= -0.419444451442  DE=   9.7e-08 RMAX=   2.6e-06
LMP2-Iter=   7:  ELMP2= -0.419444499305  DE=   4.8e-08 RMAX=   3.1e-07
LMP2-Iter=   8:  ELMP2= -0.419444505466  DE=   6.2e-09 RMAX=   4.0e-08 => CONVERGED
PASS-2: Formation of Pair natural orbitals
   .... Finished loop over pairs

 PNO Occupation Number Statistics: 
  | Av. % of trace(Dij) retained        ...  99.946700054296
  | sigma^2 in % of trace(Dij) retained ...   7.31e-03
  | Av. % of trace(Di) retained         ...  99.999934802182
  | sigma^2 in % of trace(Di) retained  ...   3.87e-10
 Distributions of % trace(Dij) recovered:
  |       >= 99.9  ...    39 ( 86.7 % of all pairs)
  |   [99.0, 99.9) ...     6 ( 13.3 % of all pairs)
 Distributions of % trace(Di) recovered :
  |       >= 99.9  ...     9 (100.0 % of all I-pairs )

Making pair pair interaction lists          ... done

                       ===========================
                         45 OF   45 PAIRS ARE KEPT
                       ===========================

Total time spent in the initial guess                 ...     0.364 sec
L-MP2 correlation energy (all non-screened pairs)     ...      -0.419444505466 Eh
L-MP2 PNO error correction                            ...      -0.000000409601 Eh
                                                          --------------------
Initial total L-MP2 energy (non-screened pairs)       ...      -0.419444915067 Eh

Initial PNO correlation energy                        ...      -0.419381959616 Eh
sum of pair energies estimated for screened out pairs ...       0.000000000000 Eh
sum of MP2 pair energies for pairs that were not kept ...       0.000000000000 Eh
sum of PNO error estimates for the kept pairs         ...      -0.000062955451 Eh
                                                          --------------------
sum of all corrections                                         -0.000062955451
Initial total correlation energy                               -0.419444915067
Thresholds for map construction and integral transformation for fine MP2 and CCSD(T) calculation:
   TCutMKN   ...     1.0e-03
   TCutDO    ...     5.0e-03
   TCutPairs ...     1.0e-05
   TCutCMO   ...     1.0e-03
   TCutCPAO  ...     1.0e-03

Time for aux screen maps:            0.000
Time for maps after fine MP2:            0.001
-----------------------------
LOCAL RI TRANSFORMATION (IJV)
-----------------------------

Orbital window:       3 to 11
Basis functions:     72 (36 shells)
Aux. functions:     252 (90 shells)

Processing maps (0.0 sec)
Average map sizes:
   Aux shells -> MOs(i)            9.0
   Aux shells -> MOs(j)            9.0
   MOs        -> AO shells        36.0

Calculating integrals (0.3 sec, 0.159 MB)
Sorting integrals (0.0 sec, 0.156 MB)
Total time for the integral transformation: 0.3 sec
--------------------------------
LOCAL RI TRANSFORMATION (VABPAO)
--------------------------------

Number of PAOs:      72
Basis functions:     72 (36 shells)
Aux. functions:     252 (90 shells)

Processing maps (0.0 sec)
Average map sizes:
   Aux shells -> PAOs             72.0
   PAOs       -> AO shells        36.0

Calculating integrals (0.3 sec, 17.605 MB)
Finished


-------------------------------------
Pair Pair Term precalculation with     
RI-(ij|mn) and (im|jn) transformation  
ON THE FLY                             
-------------------------------------

   IBatch   1 (of   1)              ... done (    1.308 sec)
Total EXT                           ...           1.308 sec

---------------------
RI-PNO TRANSFORMATION
---------------------

Total Number of PNOs                   ...  1484
Average number of PNOs per pair        ...    32
Maximal number of PNOs per pair        ...    42
   #pairs with  1 -  5 PNOs   :    0
   #pairs with  6 - 10 PNOs   :    0
   #pairs with 11 - 15 PNOs   :    0
   #pairs with 16 - 20 PNOs   :    0
   #pairs with 21 - 25 PNOs   :    3
   #pairs with 26 - 30 PNOs   :   10
   #pairs with 31 - 35 PNOs   :   16
   #pairs with 36 - 40 PNOs   :   14
   #pairs with 41 - 45 PNOs   :    2
   #pairs with 46 - 50 PNOs   :    0

Generation of (ij|ab)[P] integrals            ... on
Generation of (ia|bc)[P],(ja|bc)[P] integrals ... on
Storage of 3 and 4 external integrals         ... on
Generation of ALL (ka|bc)[P] integrals        ... on
Keep RI integrals in memory                   ... off

Ibatch:  1 (of  1)
Starting 2-4 index PNO integral generation ... done

Timings:
Total PNO integral transformation time     ...          0.716 sec
Size of the 3-external file                ...        13 MB
Size of the 4-external file                ...        60 MB
Size of the IKJL file                      ...         0 MB
Size of the all 3-external file            ...        60 MB
Size of the 1-external file                ...         0 MB

Making pair/pair overlap matrices          ... done (    0.040 sec)
Size of the pair overlap file              ... 13 MB
Redoing the guess amplitudes               ... done (    0.001 sec)

-------------------------
FINAL STARTUP INFORMATION
-------------------------

E(0)                                       ...   -117.080270670
E(L-MP2)                                   ...     -0.419444915
E(L-MP2) including corrections             ...     -0.419444915
Initial E(tot)                             ...   -117.499715585
<T|T>                                      ...      0.138019101
Number of pairs included                   ... 45
Total number of pairs                      ... 45

------------------------------------------------
                  RHF COUPLED CLUSTER ITERATIONS
------------------------------------------------

Number of PNO amplitudes to be optimized   ...        49978
Number of non-PNO amplitudes               ...       162000
Untruncated number of regular amplitudes   ...       162000

Iter       E(tot)           E(Corr)          Delta-E          Residual     Time
  0   -117.485692432     -0.405358807      0.014086108      0.020487159    1.17
                           *** Turning on DIIS ***
  1   -117.521342234     -0.441008608     -0.035649802      0.013510927    1.16
  2   -117.538347835     -0.458014210     -0.017005601      0.007824660    1.16
  3   -117.541282999     -0.460949374     -0.002935165      0.004236486    1.18
  4   -117.542321938     -0.461988313     -0.001038939      0.001983872    1.17
  5   -117.542658565     -0.462324940     -0.000336627      0.000643541    1.18
  6   -117.542735067     -0.462401442     -0.000076502      0.000149221    1.16
  7   -117.542739830     -0.462406205     -0.000004763      0.000030095    1.18
  8   -117.542738790     -0.462405165      0.000001040      0.000016167    1.17
  9   -117.542738292     -0.462404667      0.000000498      0.000008792    1.18
               --- The Coupled-Cluster iterations have converged ---

----------------------
COUPLED CLUSTER ENERGY
----------------------

E(0)                                       ...   -117.080270670
E(CORR)(strong-pairs)                      ...     -0.462404667
E(CORR)(weak-pairs)                        ...     -0.000062955
E(CORR)(corrected)                         ...     -0.462467623
E(TOT)                                     ...   -117.542738292
Singles Norm <S|S>**1/2                    ...      0.038781768  
T1 diagnostic                              ...      0.009140950  

------------------
LARGEST AMPLITUDES
------------------
   5-> 12   5-> 12       0.069327
   4-> 12   4-> 12       0.069326
   5-> 12   4-> 12       0.063371
   7-> 21   7-> 21       0.042997
   8-> 21   8-> 21       0.042996
   6-> 21   6-> 21       0.040439
   6-> 12   6-> 12       0.036802
  10-> 13  10-> 13       0.036740
   9-> 13   9-> 13       0.036718
  11-> 13  11-> 13       0.034485
   8-> 21   8-> 12       0.030739
   8-> 12   8-> 21       0.030739
   7-> 12   7-> 21       0.030737
   7-> 21   7-> 12       0.030737
   6-> 21   6-> 12       0.030621
   6-> 12   6-> 21       0.030621


-------------------------------------------
DLPNO BASED TRIPLES CORRECTION
-------------------------------------------

Singles multiplier          ...  1.000000
TCutTNO                     ... 1.000e-09
TCutMP2Pairs                ... 1.000e-06
TCutDOStrong                ... 1.000e-02
TCutMKNStrong               ... 1.000e-02
TCutDOWeak                  ... 2.000e-02
TCutMKNWeak                 ... 1.000e-01

Fragment selection                          .... not used
Number of Triples that are to be computed   ...       156

 . . . . . . . . .
10% done  
20% done  
30% done  
40% done  
50% done  
60% done  
70% done  
80% done  
90% done               (      1.784 sec)
Triples timings:
Total time for T0               ...     1.877 sec
Total time for Iterative (T)    ...     0.000 sec
Total time of overall (T)       ...     1.877 sec

Triples List generation         ...     0.000 sec
TNO generation                  ...     0.091 sec
Pair density generation         ...     0.001 sec
Look up tables                  ...     0.000 sec
Generating 3-index integrals    ...     0.442 sec
  Make 4-ind.int. from 3-ind.int...     0.645 sec
  Projecting amplitudes (D + S) ...     0.091 sec
  Downprojecting integrals      ...     0.000 sec
  Energy contr. (sum over a,b,c)...     0.164 sec
Fitting ET(->0)                 ...     0.000 sec

Everything after 3-index        ...     1.342 sec

Timing details:
 TNO integrals                  ...     1.013 sec
   Reading 3-index integrals    ...     0.005 sec
   Sorting integrals            ...     0.402 sec
       Sorting integrals 1      ...     0.000 sec
       Sorting integrals 2      ...     0.030 sec
       Sorting integrals 3      ...     0.020 sec
       Sorting integrals 4      ...     0.001 sec
       Sorting integrals 5      ...     0.003 sec
       Sorting integrals 6      ...     0.348 sec
   Calculating local VM**-1/2   ...     0.014 sec
   Orthogonal. integrals        ...     0.026 sec
   Multipl. 3-index integrals   ...     0.566 sec
   All concerning IRIab (w/TNO) ...     0.221 sec

 Calculate W0/W1                ...     0.440 sec
 W 3-ext contribution           ...     0.246 sec
 W 3-int contribution           ...     0.051 sec
 Sorting W                      ...     0.122 sec

 V exchange contribution        ...     0.061 sec

 Timings for Triples without generation
     of 3-index integrals       ...     1.341 sec
       0 weak pairs             ...     1.341 sec
       1 weak pair              ...     0.000 sec
       2 weak pairs             ...     0.000 sec
       3 weak pairs             ...     0.000 sec
  Extra time for extrapolation  ...     0.000 sec

Number of Triples   (0, 1, 2, 3 weak pairs; overall):    156       0       0       0  (   156)
Number of Atoms     (0, 1, 2, 3 weak pairs; overall):    9.0     0.0     0.0     0.0  (     9)
Number of PAOs      (0, 1, 2, 3 weak pairs; overall):   71.9     0.0     0.0     0.0  (    72)
Number of AuxFcns   (0, 1, 2, 3 weak pairs; overall):  164.4     0.0     0.0     0.0  (   252)
Number of TNOs      (0, 1, 2, 3 weak pairs         ):   53.8     0.0     0.0     0.0
Aver. Number of NTNO, Atoms, PAOs, AuxFcns / Triples:    156    53.8     9.0    71.9   164.4

Triples Correction (T)                     ...     -0.014335439
Final correlation energy                   ...     -0.476803061
E(CCSD)                                    ...   -117.542738292
E(CCSD(T))                                 ...   -117.557073731


Maximum memory used throughout the entire calculation: 490.3 MB


------------------------------------------------------------------------------- 
                                     TIMINGS                                   
------------------------------------------------------------------------------- 


Total execution time                   ...       18.858 sec

Localization of occupied MO's          ...        0.420 sec (  2.2%)
Fock Matrix Formation                  ...        0.568 sec (  3.0%)
Global overlap, Fock, MKN matrices     ...        0.144 sec (  0.8%)
Differential overlap integrals         ...        0.037 sec (  0.2%)
Organizing maps                        ...        0.004 sec (  0.0%)
RI 3-index integral generations        ...        1.253 sec (  6.6%)
RI-PNO integral transformation         ...        2.252 sec ( 11.9%)
Initial Guess                          ...        0.408 sec (  2.2%)
DIIS Solver                            ...        0.132 sec (  0.7%)
State Vector Update                    ...        0.005 sec (  0.0%)
Sigma-vector construction              ...       11.683 sec ( 62.0%)
  <D|H|D>(0-ext)                       ...        0.208 sec (  1.8% of sigma)
  <D|H|D>(2-ext Fock)                  ...        0.006 sec (  0.0% of sigma)
  <D|H|D>(2-ext)                       ...        0.400 sec (  3.4% of sigma)
  <D|H|D>(4-ext)                       ...        1.952 sec ( 16.7% of sigma)
  <D|H|D>(4-ext-corr)                  ...        7.708 sec ( 66.0% of sigma)
  CCSD doubles correction              ...        0.035 sec (  0.3% of sigma)
  <S|H|S>                              ...        0.060 sec (  0.5% of sigma)
  <S|H|D>(1-ext)                       ...        0.033 sec (  0.3% of sigma)
  <D|H|S>(1-ext)                       ...        0.003 sec (  0.0% of sigma)
  <S|H|D>(3-ext)                       ...        0.070 sec (  0.6% of sigma)
  Fock-dressing                        ...        0.709 sec (  6.1% of sigma)
  Singles amplitudes                   ...        0.030 sec (  0.3% of sigma)
  (ik|jl)-dressing                     ...        0.126 sec (  1.1% of sigma)
  (ij|ab),(ia|jb)-dressing             ...        0.313 sec (  2.7% of sigma)
  Pair energies                        ...        0.002 sec (  0.0% of sigma)
Total Time for computing (T)           ...        1.882 sec ( 10.0% of ALL)


-------------------------   --------------------
FINAL SINGLE POINT ENERGY      -117.557073731201
-------------------------   --------------------


                            ***************************************
                            *     ORCA property calculations      *
                            ***************************************

                                    ---------------------
                                    Active property flags
                                    ---------------------
   (+) Dipole Moment


------------------------------------------------------------------------------
                       ORCA ELECTRIC PROPERTIES CALCULATION
------------------------------------------------------------------------------

Dipole Moment Calculation                       ... on
Quadrupole Moment Calculation                   ... off
Polarizability Calculation                      ... off
GBWName                                         ... propene_H_H_anti.gbw
Electron density file                           ... propene_H_H_anti.scfp.tmp
The origin for moment calculation is the CENTER OF MASS  = (-0.048006, -0.019900 -0.000004)

-------------
DIPOLE MOMENT
-------------
                                X             Y             Z
Electronic contribution:     -1.01609      -0.51181      -0.00002
Nuclear contribution   :      1.15210       0.47767       0.00003
                        -----------------------------------------
Total Dipole Moment    :      0.13601      -0.03414       0.00001
                        -----------------------------------------
Magnitude (a.u.)       :      0.14023
Magnitude (Debye)      :      0.35643



--------------------
Rotational spectrum 
--------------------
 
Rotational constants in cm-1:     1.496772     0.309453     0.269948 
Rotational constants in MHz : 44872.096342  9277.167960  8092.832028 

 Dipole components along the rotational axes: 
x,y,z [a.u.] :     0.136146     0.033588     0.000008 
x,y,z [Debye]:     0.346055     0.085375     0.000020 

 

Timings for individual modules:

Sum of individual times         ...       21.314 sec (=   0.355 min)
GTO integral calculation        ...        0.392 sec (=   0.007 min)   1.8 %
SCF iterations                  ...        1.923 sec (=   0.032 min)   9.0 %
MDCI module                     ...       18.999 sec (=   0.317 min)  89.1 %
                             ****ORCA TERMINATED NORMALLY****
TOTAL RUN TIME: 0 days 0 hours 0 minutes 21 seconds 549 msec
propene_H_H_anti.gbw -> /home1/pantazis/klk/VDZ/Energy_barrier/propene_H_H_anti.gbw
propene_H_H_anti.ges -> /home1/pantazis/klk/VDZ/Energy_barrier/propene_H_H_anti.ges
propene_H_H_anti.job -> /home1/pantazis/klk/VDZ/Energy_barrier/propene_H_H_anti.job
propene_H_H_anti.loc -> /home1/pantazis/klk/VDZ/Energy_barrier/propene_H_H_anti.loc
propene_H_H_anti.nodes -> /home1/pantazis/klk/VDZ/Energy_barrier/propene_H_H_anti.nodes
propene_H_H_anti.prop -> /home1/pantazis/klk/VDZ/Energy_barrier/propene_H_H_anti.prop
propene_H_H_anti_property.txt -> /home1/pantazis/klk/VDZ/Energy_barrier/propene_H_H_anti_property.txt
propene_H_H_anti.xyz -> /home1/pantazis/klk/VDZ/Energy_barrier/propene_H_H_anti.xyz
cp: cannot stat propene_H_H_anti.asa.inp: No such file or directory
