! Job execution by suborca V 6.07 on ZEUS !
Job started from zeus1, running /scratch/pantazis/propen_3_ol_skew_a__CAIWDd/orca/orca copied from /opt/orca on zeussn151 in /scratch/pantazis/propen_3_ol_skew_a__CAIWDd
Job execution start: Sat Jun 29 11:52:49 CEST 2019
Shared library path: /scratch/pantazis/propen_3_ol_skew_a__CAIWDd/orca:/opt/openmpi_1.10.2/lib:/opt/intel/mkl/lib/intel64:/opt/intel/lib/intel64:
PBS Job ID is: 158927.icqc
izeussn151
izeussn151
izeussn151
izeussn151

                                 *****************
                                 * O   R   C   A *
                                 *****************

           --- An Ab Initio, DFT and Semiempirical electronic structure package ---

                  #######################################################
                  #                        -***-                        #
                  #          Department of theory and spectroscopy      #
                  #               Directorship: Frank Neese             #
                  #        Max Planck Institute fuer Kohlenforschung    #
                  #                Kaiser Wilhelm Platz 1               #
                  #                 D-45470 Muelheim/Ruhr               #
                  #                      Germany                        #
                  #                                                     #
                  #                  All rights reserved                #
                  #                        -***-                        #
                  #######################################################


                         Program Version 4.1.x  -  STABLE  -
                                (SVN: $Rev: 14094$)
                ($Date: 2019-06-14 15:01:15 +0200 (Fri, 14 Jun 2019) $)

                         (BUILD: $Sun Jun 23 06:18:31 CEST 2019$)


 With contributions from (in alphabetic order):
   Daniel Aravena         : Magnetic Properties
   Michael Atanasov       : Ab Initio Ligand Field Theory
   Alexander A. Auer      : GIAO ZORA
   Ute Becker             : Parallelization
   Giovanni Bistoni       : ED, Open-shell LED
   Martin Brehm           : Molecular dynamics
   Dmytro Bykov           : SCF Hessian
   Vijay G. Chilkuri      : MRCI spin determinant printing
   Dipayan Datta          : RHF DLPNO-CCSD density
   Achintya Kumar Dutta   : EOM-CC, STEOM-CC
   Dmitry Ganyushin       : Spin-Orbit,Spin-Spin,Magnetic field MRCI
   Miquel Garcia          : C-PCM Hessian
   Yang Guo               : DLPNO-NEVPT2, CIM, IAO-localization
   Andreas Hansen         : Spin unrestricted coupled pair/coupled cluster methods
   Benjamin Helmich-Paris : CASSCF linear response (MC-RPA)
   Lee Huntington         : MR-EOM, pCC
   Robert Izsak           : Overlap fitted RIJCOSX, COSX-SCS-MP3, EOM
   Christian Kollmar      : KDIIS, OOCD, Brueckner-CCSD(T), CCSD density
   Simone Kossmann        : Meta GGA functionals, TD-DFT gradient, OOMP2, MP2 Hessian
   Martin Krupicka        : AUTO-CI
   Lucas Lang             : DCDCAS
   Dagmar Lenk            : GEPOL surface, SMD
   Dimitrios Liakos       : Extrapolation schemes; parallel MDCI
   Dimitrios Manganas     : ROCIS; embedding schemes
   Dimitrios Pantazis     : SARC Basis sets
   Taras Petrenko         : DFT Hessian,TD-DFT gradient, ASA, ECA, R-Raman, ABS, FL, XAS/XES, NRVS
   Peter Pinski           : DLPNO-MP2, DLPNO-MP2 Gradient
   Christoph Reimann      : Effective Core Potentials
   Marius Retegan         : Local ZFS, SOC
   Christoph Riplinger    : Optimizer, TS searches, QM/MM, DLPNO-CCSD(T), (RO)-DLPNO pert. Triples
   Tobias Risthaus        : Range-separated hybrids, TD-DFT gradient, RPA, STAB
   Michael Roemelt        : Restricted open shell CIS
   Masaaki Saitow         : Open-shell DLPNO
   Barbara Sandhoefer     : DKH picture change effects
   Avijit Sen             : IP-ROCIS
   Kantharuban Sivalingam : CASSCF convergence, NEVPT2, FIC-MRCI
   Bernardo de Souza      : ESD, SOC TD-DFT
   Georgi Stoychev        : AutoAux, RI-MP2 NMR
   Willem Van den Heuvel  : Paramagnetic NMR
   Boris Wezisla          : Elementary symmetry handling
   Frank Wennmohs         : Technical directorship


 We gratefully acknowledge several colleagues who have allowed us to
 interface, adapt or use parts of their codes:
   Stefan Grimme, W. Hujo, H. Kruse,             : VdW corrections, initial TS optimization,
                  C. Bannwarth                     DFT functionals, gCP, sTDA/sTD-DF
   Ed Valeev                                     : LibInt (2-el integral package), F12 methods
   Garnet Chan, S. Sharma, J. Yang, R. Olivares  : DMRG
   Ulf Ekstrom                                   : XCFun DFT Library
   Mihaly Kallay                                 : mrcc  (arbitrary order and MRCC methods)
   Andreas Klamt, Michael Diedenhofen            : otool_cosmo (COSMO solvation model)
   Jiri Pittner, Ondrej Demel                    : Mk-CCSD
   Frank Weinhold                                : gennbo (NPA and NBO analysis)
   Christopher J. Cramer and Donald G. Truhlar   : smd solvation model
   Lars Goerigk                                  : TD-DFT with DH, B97 family of functionals
   V. Asgeirsson, H. Jonsson                     : NEB implementation
   FAccTs GmbH                                   : IRC, NEB, NEB-TS, Multilevel


 Your calculation uses the libint2 library for the computation of 2-el integrals
 For citations please refer to: http://libint.valeyev.net

 This ORCA versions uses:
   CBLAS   interface :  Fast vector & matrix operations
   LAPACKE interface :  Fast linear algebra routines
   SCALAPACK package :  Parallel linear algebra routines




***************************************
The coordinates will be read from file: propen_3_ol_skew_a.xyz
***************************************


----- Orbital basis set information -----
Your calculation utilizes the basis: cc-pVDZ 
       H, B-Ne : Obtained from the ccRepo (grant-hill.group.shef.ac.uk/ccrepo) Feb. 2017
                 T. H. Dunning, Jr., J. Chem. Phys. 90, 1007 (1989)
            He : Obtained from the ccRepo (grant-hill.group.shef.ac.uk/ccrepo) Feb. 2017
                 D. E. Woon, T. H. Dunning, Jr., J. Chem. Phys. 100, 2975 (1994)
  Li-Be, Na-Mg : Obtained from the ccRepo (grant-hill.group.shef.ac.uk/ccrepo) Feb. 2017
                 B. P. Prascher, D. E. Woon, K. A. Peterson, T. H. Dunning, Jr., A. K. Wilson, Theor. Chem. Acc. 128, 69 (2011)
         Al-Ar : Obtained from the ccRepo (grant-hill.group.shef.ac.uk/ccrepo) Feb. 2017
                 D. E. Woon, T. H. Dunning, Jr., J. Chem. Phys. 98, 1358 (1993)
            Ca : Obtained from the Peterson Research Group Website (tyr0.chem.wsu.edu/~kipeters) Feb. 2017
                 J. Koput, K. A. Peterson, J. Phys. Chem. 106, 9595 (2002)
         Sc-Zn : Obtained from the ccRepo (grant-hill.group.shef.ac.uk/ccrepo) Feb. 2017
                 N. B. Balabanov, K. A. Peterson, J. Chem. Phys. 123, 064107 (2005)
                 N. B. Balabanov, K. A. Peterson, J. Chem. Phys. 125, 074110 (2006)
         Ga-Kr : Obtained from the ccRepo (grant-hill.group.shef.ac.uk/ccrepo) Feb. 2017
                 A. K. Wilson, D. E. Woon, K. A. Peterson, T. H. Dunning, Jr., J. Chem. Phys. 110, 7667 (1999)

----- AuxC basis set information -----
Your calculation utilizes the auxiliary basis: cc-pVDZ/C 
  H-He, B, Ne, Al-Ar, Ga-Br : Obtained from the EMSL Basis Set Exchange (bse.pnl.gov) Feb. 2017
                              F. Weigend, A. Kohn, C. Hattig, J. Chem. Phys. 116, 3175 (2002)
               Li-Be, Na-Mg : Obtained from the EMSL Basis Set Exchange (bse.pnl.gov) Feb. 2017
                              C. Haettig, Phys. Chem. Chem. Phys. 7, 59 (2005)
                        C-F : Obtained from the EMSL Basis Set Exchange (bse.pnl.gov) Feb. 2017
                              C. Haettig, Phys. Chem. Chem. Phys. 7, 59 (2005)
                              F. Weigend, A. Kohn, C. Hattig, J. Chem. Phys. 116, 3175 (2002)
                         Kr : Obtained from the TURBOMOLE 7.0 basis set library
                              F. Weigend, A. Kohn, C. Hattig, J. Chem. Phys. 116, 3175 (2002)
                              S function revised in Sep. 2009

----- AuxJK basis set information -----
Your calculation utilizes the auxiliary basis: cc-pVTZ/JK 
  H, B-F, Al-Cl, Ga-Br : Obtained from the TURBOMOLE 7.0 basis set library

================================================================================
                                        WARNINGS
                       Please study these warnings very carefully!
================================================================================


WARNING: MDCI localization with Augmented Hessian Foster-Boys
  ===> : Switching off randomization!

WARNING: Post HF methods need fully converged wavefunctions
  ===> : Setting SCFConvForced true
         You can overwrite this default with %scf ConvForced false 


INFO   : the flag for use of LIBINT has been found!

================================================================================
                                       INPUT FILE
================================================================================
NAME = propen_3_ol_skew_a.inp
|  1> ! RHF DLPNO-CCSD(T) cc-pVDZ RIJK cc-pVTZ/JK cc-pVDZ/C
|  2> ! KDIIS SOSCF TightSCF TightPNO
|  3> 
|  4> %pal nprocs 4 end
|  5> 
|  6> %maxcore 8000
|  7> 
|  8> %scf maxiter 300
|  9>      shift shift 0.2 erroff 0.1 end
| 10> end
| 11> 
| 12> * xyzfile 0 1 propen_3_ol_skew_a.xyz 
| 13> 
| 14> 
| 15>                          ****END OF INPUT****
================================================================================

                       ****************************
                       * Single Point Calculation *
                       ****************************

---------------------------------
CARTESIAN COORDINATES (ANGSTROEM)
---------------------------------
  C     -1.841190    0.076440   -0.217700
  C     -0.671240   -0.361140    0.253580
  C      0.586230    0.454760    0.286690
  O      1.632860   -0.300470   -0.336920
  H     -2.732660   -0.543120   -0.192040
  H     -1.948480    1.071500   -0.644070
  H     -0.584030   -1.367180    0.662090
  H      0.429580    1.413250   -0.228960
  H      0.852710    0.671280    1.333670
  H      2.477230    0.137710   -0.170710

----------------------------
CARTESIAN COORDINATES (A.U.)
----------------------------
  NO LB      ZA    FRAG     MASS         X           Y           Z
   0 C     6.0000    0    12.011   -3.479345    0.144451   -0.411393
   1 C     6.0000    0    12.011   -1.268460   -0.682456    0.479197
   2 C     6.0000    0    12.011    1.107814    0.859372    0.541766
   3 O     8.0000    0    15.999    3.085658   -0.567806   -0.636687
   4 H     1.0000    0     1.008   -5.163979   -1.026348   -0.362903
   5 H     1.0000    0     1.008   -3.682094    2.024842   -1.217116
   6 H     1.0000    0     1.008   -1.103657   -2.583596    1.251169
   7 H     1.0000    0     1.008    0.811789    2.670655   -0.432672
   8 H     1.0000    0     1.008    1.611388    1.268535    2.520271
   9 H     1.0000    0     1.008    4.681286    0.260234   -0.322595

--------------------------------
INTERNAL COORDINATES (ANGSTROEM)
--------------------------------
 C      0   0   0     0.000000000000     0.00000000     0.00000000
 C      1   0   0     1.335052095351     0.00000000     0.00000000
 C      2   1   0     1.499339815719   124.36070361     0.00000000
 O      3   2   1     1.433421132082   108.42465986   232.14663254
 H      1   2   3     1.085924394284   121.60549659   181.91807922
 H      1   2   3     1.087863467812   121.64024544     1.78414736
 H      2   1   3     1.089312850287   120.34782124   179.16258982
 H      3   2   1     1.099607759658   110.15142208   353.85623891
 H      3   2   1     1.101843737197   109.31441957   112.35347053
 H      4   3   2     0.965706049168   108.93408560   190.81519145

---------------------------
INTERNAL COORDINATES (A.U.)
---------------------------
 C      0   0   0     0.000000000000     0.00000000     0.00000000
 C      1   0   0     2.522882834730     0.00000000     0.00000000
 C      2   1   0     2.833341633393   124.36070361     0.00000000
 O      3   2   1     2.708773374211   108.42465986   232.14663254
 H      1   2   3     2.052099707340   121.60549659   181.91807922
 H      1   2   3     2.055764025263   121.64024544     1.78414736
 H      2   1   3     2.058502961203   120.34782124   179.16258982
 H      3   2   1     2.077957520488   110.15142208   353.85623891
 H      3   2   1     2.082182905678   109.31441957   112.35347053
 H      4   3   2     1.824919958799   108.93408560   190.81519145

---------------------
BASIS SET INFORMATION
---------------------
There are 3 groups of distinct atoms

 Group   1 Type C   : 17s4p1d contracted to 3s2p1d pattern {881/31/1}
 Group   2 Type O   : 17s4p1d contracted to 3s2p1d pattern {881/31/1}
 Group   3 Type H   : 4s1p contracted to 2s1p pattern {31/1}

Atom   0C    basis set group =>   1
Atom   1C    basis set group =>   1
Atom   2C    basis set group =>   1
Atom   3O    basis set group =>   2
Atom   4H    basis set group =>   3
Atom   5H    basis set group =>   3
Atom   6H    basis set group =>   3
Atom   7H    basis set group =>   3
Atom   8H    basis set group =>   3
Atom   9H    basis set group =>   3
-------------------------------
AUXILIARY BASIS SET INFORMATION
-------------------------------
There are 3 groups of distinct atoms

 Group   1 Type C   : 7s5p4d2f contracted to 7s5p4d2f pattern {1111111/11111/1111/11}
 Group   2 Type O   : 7s5p4d2f contracted to 7s5p4d2f pattern {1111111/11111/1111/11}
 Group   3 Type H   : 3s2p1d contracted to 3s2p1d pattern {111/11/1}

Atom   0C    basis set group =>   1
Atom   1C    basis set group =>   1
Atom   2C    basis set group =>   1
Atom   3O    basis set group =>   2
Atom   4H    basis set group =>   3
Atom   5H    basis set group =>   3
Atom   6H    basis set group =>   3
Atom   7H    basis set group =>   3
Atom   8H    basis set group =>   3
Atom   9H    basis set group =>   3
-------------------------------
AUXILIARY BASIS SET INFORMATION
-------------------------------
There are 3 groups of distinct atoms

 Group   1 Type C   : 10s7p5d2f1g contracted to 10s7p5d2f1g pattern {1111111111/1111111/11111/11/1}
 Group   2 Type O   : 10s7p5d2f1g contracted to 10s7p5d2f1g pattern {1111111111/1111111/11111/11/1}
 Group   3 Type H   : 4s3p2d1f contracted to 4s3p2d1f pattern {1111/111/11/1}

Atom   0C    basis set group =>   1
Atom   1C    basis set group =>   1
Atom   2C    basis set group =>   1
Atom   3O    basis set group =>   2
Atom   4H    basis set group =>   3
Atom   5H    basis set group =>   3
Atom   6H    basis set group =>   3
Atom   7H    basis set group =>   3
Atom   8H    basis set group =>   3
Atom   9H    basis set group =>   3

Checking for AutoStart:
The File: propen_3_ol_skew_a.gbw exists
Trying to determine its content:
     ... Fine, the file contains calculation information
     ... Fine, the calculation information was read
     ... Fine, the file contains a basis set
     ... Fine, the basis set was read
     ... Fine, the file contains a geometry
     ... Fine, the geometry was read
     ... Fine, the file contains a set of orbitals
     ... Fine, the orbitals can be read
     => possible old guess file was deleted
     => GBW file was renamed to GES file
     => GES file is set as startup file
     => Guess is set to MORead
     ... now leaving AutoStart



           ************************************************************
           *        Program running with 4 parallel MPI-processes     *
           *              working on a common directory               *
           ************************************************************
------------------------------------------------------------------------------
                           ORCA GTO INTEGRAL CALCULATION
                           -- RI-GTO INTEGRALS CHOSEN --
------------------------------------------------------------------------------

                         BASIS SET STATISTICS AND STARTUP INFO

Gaussian basis set:
 # of primitive gaussian shells          ...  118
 # of primitive gaussian functions       ...  178
 # of contracted shells                  ...   42
 # of contracted basis functions         ...   86
 Highest angular momentum                ...    2
 Maximum contraction depth               ...    8
Auxiliary gaussian basis set:
 # of primitive gaussian shells          ...  160
 # of primitive gaussian functions       ...  496
 # of contracted shells                  ...  160
 # of contracted aux-basis functions     ...  496
 Highest angular momentum                ...    4
 Maximum contraction depth               ...    1
Ratio of auxiliary to basis functions    ...  5.77
Integral package used                  ... LIBINT
 One Electron integrals                  ... done
 Ordering auxiliary basis shells         ... done
 Integral threshhold             Thresh  ...  2.500e-11
 Primitive cut-off               TCut    ...  2.500e-12
 Pre-screening matrix                    ... done
 Shell pair data                         ... 
 Ordering of the shell pairs             ... done (   0.000 sec) 901 of 903 pairs
 Determination of significant pairs      ... done (   0.000 sec)
 Creation of shell pair data             ... done (   0.000 sec)
 Storage of shell pair data              ... done (   0.007 sec)
 Shell pair data done in (   0.008 sec)
 Computing two index integrals           ... done
 Cholesky decomposition of the V-matrix  ... done


Timings:
 Total evaluation time                   ...   0.266 sec (  0.004 min)
 One electron matrix time                ...   0.013 sec (  0.000 min) =  4.7%
 Schwartz matrix evaluation time         ...   0.145 sec (  0.002 min) = 54.5%
 Two index repulsion integral time       ...   0.040 sec (  0.001 min) = 14.9%
 Cholesky decomposition of V             ...   0.035 sec (  0.001 min) = 13.2%
 Three index repulsion integral time     ...   0.000 sec (  0.000 min) =  0.0%



           ************************************************************
           *        Program running with 4 parallel MPI-processes     *
           *              working on a common directory               *
           ************************************************************
-------------------------------------------------------------------------------
                                 ORCA SCF
-------------------------------------------------------------------------------

------------
SCF SETTINGS
------------
Hamiltonian:
 Ab initio Hamiltonian  Method          .... Hartree-Fock(GTOs)
 RI-approximation to the Coulomb term is turned on
   Number of auxiliary basis functions  .... 496
   RI-JK (J+K treated both via RI)      .... on


General Settings:
 Integral files         IntName         .... propen_3_ol_skew_a
 Hartree-Fock type      HFTyp           .... RHF
 Total Charge           Charge          ....    0
 Multiplicity           Mult            ....    1
 Number of Electrons    NEL             ....   32
 Basis Dimension        Dim             ....   86
 Nuclear Repulsion      ENuc            ....    116.1765060292 Eh

Convergence Acceleration:
 DIIS                   CNVDIIS         .... off
 Newton-Raphson         CNVNR           .... off
 SOSCF                  CNVSOSCF        .... on
   Start iteration      SOSCFMaxIt      ....   150
   Startup grad/error   SOSCFStart      ....  0.003300
 Level Shifting         CNVShift        .... on
   Level shift para.    LevelShift      ....    0.2000
   Turn off err/grad.   ShiftErr        ....    0.1000
 Zerner damping         CNVZerner       .... off
 Static damping         CNVDamp         .... off
 Fernandez-Rico         CNVRico         .... off

SCF Procedure:
 Maximum # iterations   MaxIter         ....   300
 SCF integral mode      SCFMode         .... Direct
   Integral package                     .... LIBINT
 Reset frequency        DirectResetFreq ....    20
 Integral Threshold     Thresh          ....  2.500e-11 Eh
 Primitive CutOff       TCut            ....  2.500e-12 Eh

Convergence Tolerance:
 Convergence Check Mode ConvCheckMode   .... Total+1el-Energy
 Convergence forced     ConvForced      .... 1
 Energy Change          TolE            ....  1.000e-08 Eh
 1-El. energy change                    ....  1.000e-05 Eh
 Orbital Gradient       TolG            ....  1.000e-05
 Orbital Rotation angle TolX            ....  1.000e-05


Diagonalization of the overlap matrix:
Smallest eigenvalue                        ... 3.078e-03
Time for diagonalization                   ...    0.004 sec
Threshold for overlap eigenvalues          ... 1.000e-08
Number of eigenvalues below threshold      ... 0
Time for construction of square roots      ...    0.004 sec
Total time needed                          ...    0.008 sec

---------------------
INITIAL GUESS: MOREAD
---------------------
Guess MOs are being read from file: propen_3_ol_skew_a.ges
Input Geometry matches current geometry (good)
Atom 0: N(Shells)= 6 and 10 - projection required
Input basis set needs projection
NBasis(read)= 204
NBasis(calc)= 86
Basis set overlap was calculated
Using GuessMode=FMatrix for the initial guess
C*T matrix was formed
Effective Fockian was calculated
Effective Fockian was diagonalized
Initial density was built
                      ------------------
                      INITIAL GUESS DONE (   0.0 sec)
                      ------------------
--------------
SCF ITERATIONS
--------------
ITER       Energy         Delta-E        Max-DP      RMS-DP      [F,P]   Gradient Norm
                             ****Turning on KDIIS(Cayley)****
  0   -191.9351344179   0.000000000000 0.00139605  0.00009025  0.0049998   0.005844732
  1   -191.9352215575  -0.000087139675 0.00284822  0.00017880  0.0045493   0.005283990
  2   -191.9353609718  -0.000139414261 0.00479842  0.00030282  0.0036564   0.004299620
                      *** Initiating the SOSCF procedure ***
                           *** Shutting down KDIIS ***
                      *** Re-Reading the Fockian *** 
                      *** Removing any level shift *** 
ITER      Energy       Delta-E        Grad      Rot      Max-DP    RMS-DP
  3   -191.93553956  -0.0001785930  0.002186  0.002186  0.007154  0.000456
  4   -191.93564260  -0.0001030352  0.000025  0.000025  0.000055  0.000003
  5   -191.93564263  -0.0000000253  0.000014  0.000018  0.000035  0.000002
  6   -191.93564263  -0.0000000060  0.000003  0.000007  0.000010  0.000001
                  ***Gradient check signals convergence***
              ***Rediagonalizing the Fockian in SOSCF/NRSCF***

               *****************************************************
               *                     SUCCESS                       *
               *           SCF CONVERGED AFTER   7 CYCLES          *
               *****************************************************


----------------
TOTAL SCF ENERGY
----------------

Total Energy       :         -191.93564263 Eh           -5222.83436 eV

Components:
Nuclear Repulsion  :          116.17650603 Eh            3161.32345 eV
Electronic Energy  :         -308.11214866 Eh           -8384.15781 eV
One Electron Energy:         -490.76205359 Eh          -13354.31440 eV
Two Electron Energy:          182.64990493 Eh            4970.15659 eV

Virial components:
Potential Energy   :         -383.61702887 Eh          -10438.75005 eV
Kinetic Energy     :          191.68138624 Eh            5215.91569 eV
Virial Ratio       :            2.00132645


---------------
SCF CONVERGENCE
---------------

  Last Energy change         ...   -3.1270e-10  Tolerance :   1.0000e-08
  Last MAX-Density change    ...    3.1231e-06  Tolerance :   1.0000e-07
  Last RMS-Density change    ...    1.4927e-07  Tolerance :   5.0000e-09
  Last Orbital Gradient      ...    1.1964e-06  Tolerance :   1.0000e-05
  Last Orbital Rotation      ...    1.0895e-06  Tolerance :   1.0000e-05

             **** THE GBW FILE WAS UPDATED (propen_3_ol_skew_a.gbw) ****
             **** DENSITY FILE WAS UPDATED (propen_3_ol_skew_a.scfp.tmp) ****
             **** ENERGY FILE WAS UPDATED (propen_3_ol_skew_a.en.tmp) ****
----------------
ORBITAL ENERGIES
----------------

  NO   OCC          E(Eh)            E(eV) 
   0   2.0000     -20.552457      -559.2608 
   1   2.0000     -11.286027      -307.1084 
   2   2.0000     -11.237736      -305.7944 
   3   2.0000     -11.232749      -305.6586 
   4   2.0000      -1.350288       -36.7432 
   5   2.0000      -1.059008       -28.8171 
   6   2.0000      -0.915146       -24.9024 
   7   2.0000      -0.763122       -20.7656 
   8   2.0000      -0.685259       -18.6468 
   9   2.0000      -0.650760       -17.7081 
  10   2.0000      -0.608837       -16.5673 
  11   2.0000      -0.561931       -15.2909 
  12   2.0000      -0.531398       -14.4601 
  13   2.0000      -0.482056       -13.1174 
  14   2.0000      -0.448509       -12.2045 
  15   2.0000      -0.365866        -9.9557 
  16   0.0000       0.157843         4.2951 
  17   0.0000       0.195286         5.3140 
  18   0.0000       0.214328         5.8322 
  19   0.0000       0.221979         6.0404 
  20   0.0000       0.250306         6.8112 
  21   0.0000       0.276869         7.5340 
  22   0.0000       0.288381         7.8472 
  23   0.0000       0.383193        10.4272 
  24   0.0000       0.415249        11.2995 
  25   0.0000       0.501119        13.6361 
  26   0.0000       0.612250        16.6602 
  27   0.0000       0.620269        16.8784 
  28   0.0000       0.695302        18.9201 
  29   0.0000       0.704032        19.1577 
  30   0.0000       0.743097        20.2207 
  31   0.0000       0.771749        21.0004 
  32   0.0000       0.791089        21.5266 
  33   0.0000       0.828454        22.5434 
  34   0.0000       0.857979        23.3468 
  35   0.0000       0.862366        23.4662 
  36   0.0000       0.898339        24.4451 
  37   0.0000       0.908920        24.7330 
  38   0.0000       0.931446        25.3459 
  39   0.0000       0.982108        26.7245 
  40   0.0000       1.007732        27.4218 
  41   0.0000       1.125380        30.6231 
  42   0.0000       1.204435        32.7743 
  43   0.0000       1.223095        33.2821 
  44   0.0000       1.253641        34.1133 
  45   0.0000       1.282390        34.8956 
  46   0.0000       1.289998        35.1026 
  47   0.0000       1.321574        35.9619 
  48   0.0000       1.373605        37.3777 
  49   0.0000       1.459832        39.7240 
  50   0.0000       1.473844        40.1053 
  51   0.0000       1.608384        43.7664 
  52   0.0000       1.631458        44.3942 
  53   0.0000       1.664919        45.3048 
  54   0.0000       1.751596        47.6633 
  55   0.0000       1.767058        48.0841 
  56   0.0000       1.817095        49.4457 
  57   0.0000       1.847340        50.2687 
  58   0.0000       1.878813        51.1251 
  59   0.0000       1.904638        51.8278 
  60   0.0000       1.935580        52.6698 
  61   0.0000       1.961050        53.3629 
  62   0.0000       1.988787        54.1177 
  63   0.0000       2.045871        55.6710 
  64   0.0000       2.057851        55.9970 
  65   0.0000       2.111706        57.4624 
  66   0.0000       2.178871        59.2901 
  67   0.0000       2.210945        60.1629 
  68   0.0000       2.251500        61.2664 
  69   0.0000       2.282851        62.1195 
  70   0.0000       2.389869        65.0316 
  71   0.0000       2.482276        67.5462 
  72   0.0000       2.513585        68.3981 
  73   0.0000       2.542639        69.1887 
  74   0.0000       2.552152        69.4476 
  75   0.0000       2.639348        71.8203 
  76   0.0000       2.766591        75.2828 
  77   0.0000       2.792282        75.9819 
  78   0.0000       2.872320        78.1598 
  79   0.0000       3.039362        82.7053 
  80   0.0000       3.245976        88.3275 
  81   0.0000       3.350610        91.1747 
  82   0.0000       3.402089        92.5755 
  83   0.0000       3.483158        94.7815 
  84   0.0000       3.597265        97.8865 
  85   0.0000       4.111538       111.8807 

                    ********************************
                    * MULLIKEN POPULATION ANALYSIS *
                    ********************************

-----------------------
MULLIKEN ATOMIC CHARGES
-----------------------
   0 C :   -0.032013
   1 C :   -0.156032
   2 C :    0.237791
   3 O :   -0.389707
   4 H :    0.050362
   5 H :    0.039746
   6 H :    0.037069
   7 H :    0.020133
   8 H :    0.027185
   9 H :    0.165466
Sum of atomic charges:   -0.0000000

--------------------------------
MULLIKEN REDUCED ORBITAL CHARGES
--------------------------------
  0 C s       :     3.062756  s :     3.062756
      pz      :     0.995875  p :     2.911222
      px      :     0.956485
      py      :     0.958861
      dz2     :     0.005869  d :     0.058035
      dxz     :     0.010477
      dyz     :     0.005291
      dx2y2   :     0.017967
      dxy     :     0.018430
  1 C s       :     3.191901  s :     3.191901
      pz      :     0.956838  p :     2.883405
      px      :     0.941041
      py      :     0.985526
      dz2     :     0.008584  d :     0.080726
      dxz     :     0.016100
      dyz     :     0.008040
      dx2y2   :     0.023709
      dxy     :     0.024293
  2 C s       :     2.987341  s :     2.987341
      pz      :     0.920511  p :     2.647293
      px      :     0.807730
      py      :     0.919052
      dz2     :     0.025888  d :     0.127575
      dxz     :     0.023544
      dyz     :     0.017825
      dx2y2   :     0.026858
      dxy     :     0.033460
  3 O s       :     3.730949  s :     3.730949
      pz      :     1.813978  p :     4.644605
      px      :     1.171460
      py      :     1.659168
      dz2     :     0.001906  d :     0.014152
      dxz     :     0.002513
      dyz     :     0.002410
      dx2y2   :     0.001339
      dxy     :     0.005984
  4 H s       :     0.917384  s :     0.917384
      pz      :     0.005202  p :     0.032254
      px      :     0.016440
      py      :     0.010612
  5 H s       :     0.928120  s :     0.928120
      pz      :     0.007973  p :     0.032134
      px      :     0.004510
      py      :     0.019652
  6 H s       :     0.931768  s :     0.931768
      pz      :     0.007258  p :     0.031163
      px      :     0.003988
      py      :     0.019917
  7 H s       :     0.951173  s :     0.951173
      pz      :     0.008368  p :     0.028693
      px      :     0.003130
      py      :     0.017195
  8 H s       :     0.944190  s :     0.944190
      pz      :     0.019792  p :     0.028625
      px      :     0.003805
      py      :     0.005027
  9 H s       :     0.753520  s :     0.753520
      pz      :     0.019655  p :     0.081015
      px      :     0.039305
      py      :     0.022056


                     *******************************
                     * LOEWDIN POPULATION ANALYSIS *
                     *******************************

----------------------
LOEWDIN ATOMIC CHARGES
----------------------
   0 C :   -0.051056
   1 C :   -0.028718
   2 C :    0.023997
   3 O :   -0.088983
   4 H :    0.025213
   5 H :    0.020380
   6 H :    0.027774
   7 H :    0.011198
   8 H :    0.012681
   9 H :    0.047513

-------------------------------
LOEWDIN REDUCED ORBITAL CHARGES
-------------------------------
  0 C s       :     2.838827  s :     2.838827
      pz      :     0.980004  p :     3.053638
      px      :     1.052053
      py      :     1.021581
      dz2     :     0.014770  d :     0.158591
      dxz     :     0.023709
      dyz     :     0.015613
      dx2y2   :     0.052732
      dxy     :     0.051767
  1 C s       :     2.835636  s :     2.835636
      pz      :     0.934031  p :     2.989854
      px      :     1.044666
      py      :     1.011157
      dz2     :     0.018333  d :     0.203229
      dxz     :     0.037439
      dyz     :     0.020452
      dx2y2   :     0.065695
      dxy     :     0.061310
  2 C s       :     2.801454  s :     2.801454
      pz      :     0.998177  p :     2.872074
      px      :     0.892318
      py      :     0.981579
      dz2     :     0.065547  d :     0.302475
      dxz     :     0.052787
      dyz     :     0.045638
      dx2y2   :     0.059742
      dxy     :     0.078760
  3 O s       :     3.408587  s :     3.408587
      pz      :     1.769033  p :     4.655460
      px      :     1.229676
      py      :     1.656751
      dz2     :     0.003405  d :     0.024936
      dxz     :     0.004294
      dyz     :     0.002625
      dx2y2   :     0.003547
      dxy     :     0.011066
  4 H s       :     0.892123  s :     0.892123
      pz      :     0.017249  p :     0.082664
      px      :     0.037547
      py      :     0.027868
  5 H s       :     0.897436  s :     0.897436
      pz      :     0.022285  p :     0.082184
      px      :     0.014188
      py      :     0.045711
  6 H s       :     0.890848  s :     0.890848
      pz      :     0.020857  p :     0.081377
      px      :     0.014243
      py      :     0.046277
  7 H s       :     0.913741  s :     0.913741
      pz      :     0.021047  p :     0.075061
      px      :     0.013208
      py      :     0.040807
  8 H s       :     0.911834  s :     0.911834
      pz      :     0.046314  p :     0.075485
      px      :     0.014310
      py      :     0.014862
  9 H s       :     0.745206  s :     0.745206
      pz      :     0.057335  p :     0.207281
      px      :     0.085968
      py      :     0.063978


                      *****************************
                      * MAYER POPULATION ANALYSIS *
                      *****************************

  NA   - Mulliken gross atomic population
  ZA   - Total nuclear charge
  QA   - Mulliken gross atomic charge
  VA   - Mayer's total valence
  BVA  - Mayer's bonded valence
  FA   - Mayer's free valence

  ATOM       NA         ZA         QA         VA         BVA        FA
  0 C      6.0320     6.0000    -0.0320     3.9499     3.9499     0.0000
  1 C      6.1560     6.0000    -0.1560     4.0491     4.0491    -0.0000
  2 C      5.7622     6.0000     0.2378     3.9681     3.9681    -0.0000
  3 O      8.3897     8.0000    -0.3897     1.9961     1.9961     0.0000
  4 H      0.9496     1.0000     0.0504     0.9753     0.9753    -0.0000
  5 H      0.9603     1.0000     0.0397     0.9835     0.9835     0.0000
  6 H      0.9629     1.0000     0.0371     0.9909     0.9909     0.0000
  7 H      0.9799     1.0000     0.0201     0.9724     0.9724    -0.0000
  8 H      0.9728     1.0000     0.0272     0.9552     0.9552    -0.0000
  9 H      0.8345     1.0000     0.1655     1.0206     1.0206     0.0000

  Mayer bond orders larger than 0.1
B(  0-C ,  1-C ) :   2.0034 B(  0-C ,  4-H ) :   0.9706 B(  0-C ,  5-H ) :   0.9670 
B(  1-C ,  2-C ) :   1.0503 B(  1-C ,  6-H ) :   0.9720 B(  2-C ,  3-O ) :   0.9948 
B(  2-C ,  7-H ) :   0.9665 B(  2-C ,  8-H ) :   0.9627 B(  3-O ,  9-H ) :   0.9984 


-------
TIMINGS
-------

Total SCF time: 0 days 0 hours 0 min 1 sec 

Total time                  ....       1.957 sec
Sum of individual times     ....       1.790 sec  ( 91.5%)

Fock matrix formation       ....       1.758 sec  ( 89.9%)
Diagonalization             ....       0.004 sec  (  0.2%)
Density matrix formation    ....       0.001 sec  (  0.0%)
Population analysis         ....       0.003 sec  (  0.2%)
Initial guess               ....       0.017 sec  (  0.9%)
Orbital Transformation      ....       0.000 sec  (  0.0%)
Orbital Orthonormalization  ....       0.000 sec  (  0.0%)
DIIS solution               ....       0.000 sec  (  0.0%)
SOSCF solution              ....       0.007 sec  (  0.3%)


           ************************************************************
           *        Program running with 4 parallel MPI-processes     *
           *              working on a common directory               *
           ************************************************************


------------------------------------------------------------------------------- 
                              ORCA-MATRIX DRIVEN CI                            
------------------------------------------------------------------------------- 


Wavefunction type
-----------------
Correlation treatment                      ...      CCSD     
Single excitations                         ... ON
Orbital optimization                       ... OFF
Calculation of Z vector                    ... OFF
Calculation of Brueckner orbitals          ... OFF
Perturbative triple excitations            ... ON
Calculation of F12 correction              ... OFF
Frozen core treatment                      ... chemical core (8 el)
Reference Wavefunction                     ... RHF
  Internal Orbitals:     4 ...   15 ( 12 MO's/ 24 electrons)
  Virtual  Orbitals:    16 ...   85 ( 70 MO's              )
Number of AO's                             ...     86
Number of electrons                        ...     32
Number of correlated electrons             ...     24

Algorithmic settings
--------------------
Integral transformation                    ... All integrals via the RI transformation
K(C) Formation                             ... RI-DLPNO
   PNO-Integral Storage                    ... ON DISK
   PNO occupation number cut-off           ... 1.000e-07
   Singles PNO occupation number cut-off   ... 3.000e-09
   PNO Mulliken prescreening cut-off       ... 1.000e-03
   Domain cut-off (Mulliken population)    ... 1.000e-03
   PNO Normalization                       ...    1
Maximum number of iterations               ...        50
Convergence tolerance (max. residuum)      ... 1.000e-05
Level shift for amplitude update           ... 2.000e-01
Maximum number of DIIS vectors             ...         7
DIIS turned on at iteration                ...         0
Damping before turning on DIIS             ...     0.500
Damping after turning on DIIS              ...     0.000
Pair specific amplitude update             ... OFF
Natural orbital iterations                 ... OFF
Perturbative natural orbital generation    ... OFF
Printlevel                                 ... 2

Singles Fock matrix elements calculated using PNOs.

Memory handling:
----------------
Maximum memory for working arrays          ...   8000 MB
Data storage in matrix containers          ... UNCOMPRESSED
Data type for integral storage             ... DOUBLE
In-Core Storage of quantities:
   Amplitudes+Sigma Vector      ... NO
   J+K operators                ... NO
   DIIS vectors                 ... NO
   3-external integrals         ... NO
   4-external integrals         ... NO

Localization treatment:
-----------------------
Localization option                        ...    6
Localization threshhold                    ... -1.0e+00
Using relative localization threshhold     ... 1.0e-08
Neglect threshold for strong pairs         ... 1.000e-05 Eh
Prescreening threshold for very weak pairs ... 1.000e-07 Eh

Initializing the integral package          ... done
Localizing the valence orbitals
------------------------------------------------------------------------------
                           ORCA ORBITAL LOCALIZATION
------------------------------------------------------------------------------

Input orbitals are from                  ... propen_3_ol_skew_a.proc0.gbw
Output orbitals are to                   ... propen_3_ol_skew_a.proc0.loc
Max. number of iterations                ... 128
Localizations seeded randomly            ... off
Convergence tolerance                    ... 1.000e-06
Using relative localization threshhold   ... 1.000e-08
Treshold for strong local MOs            ... 9.500e-01
Treshold for bond MOs                    ... 8.500e-01
Operator                                 ... 0
Orbital range for localization           ... 4 to 15
Localization criterion                   ... FOSTER-BOYS (AUGMENTED HESSIAN)
Doing the dipole integrals     ... o.k.
Initial value of the localization sum :   102.983973
ITERATION   0 : L=  110.7536685845 DL=  7.77e+00 (AVERGE_DL)=    0.3431073489 
ITERATION   1 : L=  111.7589361128 DL=  1.01e+00 (AVERGE_DL)=    0.1234152591 
ITERATION   2 : L=  111.7903876019 DL=  3.15e-02 (AVERGE_DL)=    0.0218297438 
ITERATION   3 : L=  111.7907538501 DL=  3.66e-04 (AVERGE_DL)=    0.0023556770 
ITERATION   4 : L=  111.7907593370 DL=  5.49e-06 (AVERGE_DL)=    0.0002883313 
ITERATION   5 : L=  111.7907595108 DL=  1.74e-07 (AVERGE_DL)=    0.0000513232 
LOCALIZATION SUM CONVERGED

------------------------------------------------------
AUGMENTED HESSIAN OPTIMIZATION OF FOSTER-BOYS ORBITALS
------------------------------------------------------

Spin operator:           0
Orbital window:          4 to 15
Number of iterations:    128
Gradient tolerance:      1.000e-06
Number of pairs:         66
Davidson threshold:      2000
Diagonalization method:  LAPACK
Iter:    0   L: 111.7907595108   Grad. norm: 5.746529e-04
   *** Likely close to a maximum now. ***
       Augmented Hessian eigenvalues:  1.71e-08 -1.39e+00 -3.68e+00 -5.34e+00 ... 
Iter:    1   L: 111.7907595194   Grad. norm: 4.341052e-09
LOCALIZATION HAS CONVERGED.

Eigenvalues of the Hessian:
  0 -1.394e+00
  1 -3.684e+00
  2 -5.340e+00
  3 -5.612e+00
  4 -5.626e+00
  5 -7.634e+00
  6 -1.058e+01
  7 -1.806e+01
  8 -1.858e+01
  9 -1.925e+01
    ...


------------------------------------------------------------------------------- 
                    LOCALIZED MOLECULAR ORBITAL COMPOSITIONS                   
------------------------------------------------------------------------------- 

The Mulliken populations for each LMO on each atom are computed
The LMO`s will be ordered according to atom index and type
  (A) Strongly localized MO`s have populations of >=0.950 on one atom
  (B) Two center bond orbitals have populations of >=0.850 on two atoms
  (C) Other MO`s are considered to be `delocalized`

FOUND  -   2 strongly local MO`s
       -  10 two center bond MO`s
       -   0 significantly delocalized MO`s

Rather strongly localized orbitals:
MO   5:   3O  -   0.990708
MO   4:   3O  -   0.986790
Bond-like localized orbitals:
MO  15:   9H  -   0.418065  and   3O  -   0.582543
MO  14:   8H  -   0.510050  and   2C  -   0.504777
MO  13:   7H  -   0.507739  and   2C  -   0.508527
MO  12:   6H  -   0.489660  and   1C  -   0.519543
MO  11:   5H  -   0.491970  and   0C  -   0.512439
MO  10:   4H  -   0.489195  and   0C  -   0.514424
MO   9:   3O  -   0.657550  and   2C  -   0.356181
MO   8:   2C  -   0.504880  and   1C  -   0.540269
MO   7:   1C  -   0.508471  and   0C  -   0.503862
MO   6:   1C  -   0.503658  and   0C  -   0.504193
Localized MO's were stored in: propen_3_ol_skew_a.proc0.loc

Localizing the core orbitals
------------------------------------------------------------------------------
                           ORCA ORBITAL LOCALIZATION
------------------------------------------------------------------------------

Input orbitals are from                  ... propen_3_ol_skew_a.proc0.loc
Output orbitals are to                   ... propen_3_ol_skew_a.proc0.loc
Max. number of iterations                ... 128
Localizations seeded randomly            ... off
Convergence tolerance                    ... 1.000e-06
Using relative localization threshhold   ... 1.000e-08
Treshold for strong local MOs            ... 9.500e-01
Treshold for bond MOs                    ... 8.500e-01
Operator                                 ... 0
Orbital range for localization           ... 0 to 3
Localization criterion                   ... FOSTER-BOYS (AUGMENTED HESSIAN)
Doing the dipole integrals     ... o.k.
Initial value of the localization sum :    27.108660
ITERATION   0 : L=   27.1086633670 DL=  2.98e-06 (AVERGE_DL)=    0.0007051475 
ITERATION   1 : L=   27.1086633670 DL=  0.00e+00 (AVERGE_DL)=    0.0000000000 
LOCALIZATION SUM CONVERGED

------------------------------------------------------
AUGMENTED HESSIAN OPTIMIZATION OF FOSTER-BOYS ORBITALS
------------------------------------------------------

Spin operator:           0
Orbital window:          0 to 3
Number of iterations:    128
Gradient tolerance:      1.000e-06
Number of pairs:         6
Davidson threshold:      2000
Diagonalization method:  LAPACK
Iter:    0   L: 27.1086633670   Grad. norm: 6.908477e-07
   *** Likely close to a maximum now. ***
       Augmented Hessian eigenvalues:  1.30e-14 -2.55e+01 -2.93e+01 -3.21e+01 ... 
Iter:    1   L: 27.1086633670   Grad. norm: 2.732794e-20
LOCALIZATION HAS CONVERGED.

Eigenvalues of the Hessian:
  0 -2.546e+01
  1 -2.934e+01
  2 -3.211e+01
  3 -8.087e+01
  4 -8.985e+01
  5 -1.746e+02


------------------------------------------------------------------------------- 
                    LOCALIZED MOLECULAR ORBITAL COMPOSITIONS                   
------------------------------------------------------------------------------- 

The Mulliken populations for each LMO on each atom are computed
The LMO`s will be ordered according to atom index and type
  (A) Strongly localized MO`s have populations of >=0.950 on one atom
  (B) Two center bond orbitals have populations of >=0.850 on two atoms
  (C) Other MO`s are considered to be `delocalized`

FOUND  -   4 strongly local MO`s
       -   0 two center bond MO`s
       -   0 significantly delocalized MO`s

Rather strongly localized orbitals:
MO   3:   3O  -   0.999829
MO   2:   2C  -   0.999440
MO   1:   1C  -   0.999453
MO   0:   0C  -   0.999676
Localized MO's were stored in: propen_3_ol_skew_a.proc0.loc

Warning: internal orbitals are localized - no re-canonicalization of internal orbitals

--------------------------
CLOSED-SHELL FOCK OPERATOR
--------------------------

RI-JK section for the Fock operator:
  RHF full Fock operator         ... done
  RHF frozen core Fock operator  ... done
Time needed for Fock operator              ...            0.538 sec
Reference energy                           ...   -191.935642632

--------------
DLPNO SETTINGS (2015 fully linear scaling implementation)
--------------

TCutMKN:           1.000e-03
TCutPAO:           1.000e-03
TCutPNO:           1.000e-07
TCutPNOSingles:    3.000e-09
TCutEN:            9.700e-01
TCutPAOExt:        1.000e-01
TCutPairs:         1.000e-05
TCutPre:           1.000e-07
TCutOSV:           1.000e-06
TCutDOij:          1.000e-05
TCutDO:            5.000e-03
TCutC:             1.000e-04
TCutCPAO:          1.000e-03
TCutCMO:           1.000e-03
TScaleDOMP2PreScr: 2.000e+00
TScaleMKNMP2PreScr:1.000e+01
TScalePNOMP2PreScr:1.000e+00
PAO overlap thresh 1.000e-08
Using PNOs for Singles Fock computation
Use new domains
Use fully linear algorithm
TCutTNO:           1.000e-09
TCutMP2Pairs:      1.000e-06
TCutDOStrong:      2.000e-03
TCutMKNStrong:     1.000e-02
TCutMKNWeak:       1.000e-01
TCutDOWeak:        4.000e-03
NTCutTNO:          1

--------------------------
Calculating differential overlap integrals ... ok
--------------------------
ELECTRON PAIR PRESCREENING
--------------------------

Dipole-based pair screening          .... used

   TCutDOij = 1.000000e-05
   TCutPre  = 1.000000e-07
   .... Finished loop over pairs
Total time spent in the prescreening                  ...     0.000 sec
sum of pair energies estimated for screened out pairs ...       0.000000000000 Eh
Thresholds for map construction and integral transformation for crude MP2:
   TCutMKN                    ...     1.0e-02
   TCutDO                     ...     1.0e-02
   TCutPairs                  ...     1.0e-05
   TCutPNO_CrudeMP2           ...     1.0e-07
   TCutPNOSingles_CrudeMP2    ...     3.0e-09
--------------------------------
LOCAL RI TRANSFORMATION (IAVPAO)
--------------------------------

Orbital window:       4 to 15
Number of PAOs:      86
Basis functions:     86 (42 shells)
Aux. functions:     308 (108 shells)

Processing maps (0.0 sec)
Average map sizes:
   Aux shells -> MOs              12.0
   Aux shells -> PAOs             86.0
   MOs        -> AO shells        41.8
   PAOs       -> AO shells        42.0

Calculating integrals (0.2 sec, 2.429 MB)
Sorting integrals (0.0 sec, 2.425 MB)
Total time for the integral transformation: 0.2 sec
--------------------------------
INITIAL GUESS AND PNO GENERATION
--------------------------------

PNO truncation parameters                   .... 
    PAOOverlapThresh   =        1.000e-08

    TCutPairs          =        1.000e-05
    TCutPNO            =        1.000e-07
    TCutPNOSingles     =        3.000e-09
    TCutMP2Pairs       =        1.000e-06
    TCutMKN            =        1.000e-02
    TCutDO             =        1.000e-02

Pair selection                          .... not used
Type of local MP2 treatment                 .... semi-local MP2
Strategy for PNO selection                  .... occupation number selection
Pair density normalization                  .... MP2 norm
Spin component scaling                      .... not used

   .... Finished loop over pairs
Making pair pair interaction lists          ... done

                       ===========================
                         78 OF   78 PAIRS ARE KEPT CCSD PAIRS
                          0 OF   78 PAIRS ARE KEPT MP2 PAIRS FOR (T)
                          0 OF   78 PAIRS ARE SKIPPED
                       ===========================

Total time spent in the initial guess                 ...     0.081 sec
SL-MP2 correlation energy (all non-screened pairs)    ...      -0.573960894674 Eh

Initial PNO correlation energy                        ...      -0.573822156397 Eh
sum of pair energies prescreened and skipped MP2 pairs...       0.000000000000 Eh
sum of pair energies of crude MP2 skipped pairs only  ...       0.000000000000 Eh
sum of MP2 pair energies for pairs that were not kept ...       0.000000000000 Eh
sum of PNO error estimates for the kept pairs         ...      -0.000138738277 Eh
                                                          --------------------
sum of all corrections                                         -0.000138738277
Initial total correlation energy                               -0.573960894674
Thresholds for map construction and integral transformation for fine MP2 and CCSD(T) calculation:
   TCutMKN   ...     1.0e-03
   TCutDO    ...     5.0e-03
   TCutPairs ...     1.0e-05
   TCutCMO   ...     1.0e-03
   TCutCPAO  ...     1.0e-03

Thresholds for map construction and integral transformation for strong Triples:
   TCutMKN   ...     1.0e-02
   TCutDO    ...     1.0e-02
   TCutCMO   ...     1.0e-03
   TCutCPAO  ...     1.0e-03

Thresholds for map construction and integral transformation for weak Triples:
   TCutMKN   ...     1.0e-01
   TCutDO    ...     2.0e-02
   TCutCMO   ...     1.0e-03
   TCutCPAO  ...     1.0e-03

--------------------------------
LOCAL RI TRANSFORMATION (IAVPAO)
--------------------------------

Orbital window:       4 to 15
Number of PAOs:      86
Basis functions:     86 (42 shells)
Aux. functions:     308 (108 shells)

Processing maps (0.0 sec)
Average map sizes:
   Aux shells -> MOs              12.0
   Aux shells -> PAOs             86.0
   MOs        -> AO shells        41.8
   PAOs       -> AO shells        42.0

Calculating integrals (0.2 sec, 2.429 MB)
Sorting integrals (0.0 sec, 2.425 MB)
Total time for the integral transformation: 0.3 sec
--------------------------------
INITIAL GUESS AND PNO GENERATION
--------------------------------

PNO truncation parameters                   .... 
    ScaleTCutPNO       =        1.000e-02
    PAOOverlapThresh   =        1.000e-08

    TCutPairs          =        1.000e-05
    TCutPNO            =        1.000e-07
    TCutPNOSingles     =        3.000e-09
    TCutMP2Pairs       =        1.000e-06
    TCutMKN            =        1.000e-03
    TCutDO             =        5.000e-03

Pair selection                          .... not used
Type of local MP2 treatment                 .... full local PMP2
Strategy for PNO selection                  .... occupation number selection
Pair density normalization                  .... MP2 norm
Spin component scaling                      .... not used

PASS-1: Formation of initial guess LMP2 amplitudes
Initial amplitudes guess done. Entering LMP2 iteration loop:
   Max. no of iterations          ...  50
   Energy convergence tolerance   ...    1.0e-07
   Residual convergence tolerance ...    5.0e-07
   Fock matrix cutoff             ...    1.0e-05 Eh
   DIIS convergence acceleration parameters:
        Max # vectors in DIIS     ... 7
        Start iteration of DIIS   ... 0
        Levelshift                ... 2.000e-01
        Damping factor 1          ... 5.000e-01
        Damping factor 2          ... 1.000e+00
   L-MP2 PNO cut-off              ...   1.0e-09
   L-MP2 PNO cut-off (core)       ...   1.0e-11
                           *** Turning on DIIS ***
LMP2-Iter=   0:  ELMP2= -0.587862242083  DE=   1.4e-02 RMAX=   1.7e-02
LMP2-Iter=   1:  ELMP2= -0.595070651646  DE=   7.2e-03 RMAX=   7.0e-03
LMP2-Iter=   2:  ELMP2= -0.596393328186  DE=   1.3e-03 RMAX=   2.6e-03
LMP2-Iter=   3:  ELMP2= -0.596560310803  DE=   1.7e-04 RMAX=   7.9e-04
LMP2-Iter=   4:  ELMP2= -0.596561663753  DE=   1.4e-06 RMAX=   2.0e-04
LMP2-Iter=   5:  ELMP2= -0.596557807303  DE=   3.9e-06 RMAX=   3.0e-05
LMP2-Iter=   6:  ELMP2= -0.596557633172  DE=   1.7e-07 RMAX=   4.9e-06
LMP2-Iter=   7:  ELMP2= -0.596557613467  DE=   2.0e-08 RMAX=   6.8e-07
LMP2-Iter=   8:  ELMP2= -0.596557634929  DE=   2.1e-08 RMAX=   1.3e-07
LMP2-Iter=   9:  ELMP2= -0.596557635994  DE=   1.1e-09 RMAX=   3.5e-08 => CONVERGED
PASS-2: Formation of Pair natural orbitals
   .... Finished loop over pairs

 PNO Occupation Number Statistics: 
  | Av. % of trace(Dij) retained        ...  99.759328286516
  | sigma^2 in % of trace(Dij) retained ...   2.58e-01
  | Av. % of trace(Di) retained         ...  99.999909793588
  | sigma^2 in % of trace(Di) retained  ...   1.11e-09
 Distributions of % trace(Dij) recovered:
  |       >= 99.9  ...    54 ( 69.2 % of all pairs)
  |   [90.0, 99.0) ...     6 (  7.7 % of all pairs)
  |   [99.0, 99.9) ...    18 ( 23.1 % of all pairs)
 Distributions of % trace(Di) recovered :
  |       >= 99.9  ...    12 (100.0 % of all I-pairs )

Making pair pair interaction lists          ... done

                       ===========================
                         78 OF   78 PAIRS ARE KEPT
                       ===========================

Total time spent in the initial guess                 ...     0.819 sec
L-MP2 correlation energy (all non-screened pairs)     ...      -0.596557635994 Eh
L-MP2 PNO error correction                            ...      -0.000001329053 Eh
                                                          --------------------
Initial total L-MP2 energy (non-screened pairs)       ...      -0.596558965047 Eh

Initial PNO correlation energy                        ...      -0.596435020583 Eh
sum of pair energies estimated for screened out pairs ...       0.000000000000 Eh
sum of MP2 pair energies for pairs that were not kept ...       0.000000000000 Eh
sum of PNO error estimates for the kept pairs         ...      -0.000123944464 Eh
                                                          --------------------
sum of all corrections                                         -0.000123944464
Initial total correlation energy                               -0.596558965047
Thresholds for map construction and integral transformation for fine MP2 and CCSD(T) calculation:
   TCutMKN   ...     1.0e-03
   TCutDO    ...     5.0e-03
   TCutPairs ...     1.0e-05
   TCutCMO   ...     1.0e-03
   TCutCPAO  ...     1.0e-03

Time for aux screen maps:            0.001
Time for maps after fine MP2:            0.002
-----------------------------
LOCAL RI TRANSFORMATION (IJV)
-----------------------------

Orbital window:       4 to 15
Basis functions:     86 (42 shells)
Aux. functions:     308 (108 shells)

Processing maps (0.0 sec)
Average map sizes:
   Aux shells -> MOs(i)           12.0
   Aux shells -> MOs(j)           12.0
   MOs        -> AO shells        41.8

Calculating integrals (0.3 sec, 0.342 MB)
Sorting integrals (0.0 sec, 0.339 MB)
Total time for the integral transformation: 0.3 sec
--------------------------------
LOCAL RI TRANSFORMATION (VABPAO)
--------------------------------

Number of PAOs:      86
Basis functions:     86 (42 shells)
Aux. functions:     308 (108 shells)

Processing maps (0.0 sec)
Average map sizes:
   Aux shells -> PAOs             86.0
   PAOs       -> AO shells        42.0

Calculating integrals (0.3 sec, 30.872 MB)
Finished


-------------------------------------
Pair Pair Term precalculation with     
RI-(ij|mn) and (im|jn) transformation  
ON THE FLY                             
-------------------------------------

   IBatch   1 (of   1)              ... done (    2.532 sec)
Total EXT                           ...           2.533 sec

---------------------
RI-PNO TRANSFORMATION
---------------------

Total Number of PNOs                   ...  2253
Average number of PNOs per pair        ...    28
Maximal number of PNOs per pair        ...    41
   #pairs with  1 -  5 PNOs   :    0
   #pairs with  6 - 10 PNOs   :    2
   #pairs with 11 - 15 PNOs   :    3
   #pairs with 16 - 20 PNOs   :    4
   #pairs with 21 - 25 PNOs   :   19
   #pairs with 26 - 30 PNOs   :   10
   #pairs with 31 - 35 PNOs   :   25
   #pairs with 36 - 40 PNOs   :   12
   #pairs with 41 - 45 PNOs   :    3
   #pairs with 46 - 50 PNOs   :    0

Generation of (ij|ab)[P] integrals            ... on
Generation of (ia|bc)[P],(ja|bc)[P] integrals ... on
Storage of 3 and 4 external integrals         ... on
Generation of ALL (ka|bc)[P] integrals        ... on
Keep RI integrals in memory                   ... off

Ibatch:  1 (of  1)
Starting 2-4 index PNO integral generation ... done

Timings:
Total PNO integral transformation time     ...          0.911 sec
Size of the 3-external file                ...        17 MB
Size of the 4-external file                ...        74 MB
Size of the IKJL file                      ...         0 MB
Size of the all 3-external file            ...       104 MB
Size of the 1-external file                ...         0 MB

Making pair/pair overlap matrices          ... done (    0.097 sec)
Size of the pair overlap file              ... 28 MB
Redoing the guess amplitudes               ... done (    0.001 sec)

-------------------------
FINAL STARTUP INFORMATION
-------------------------

E(0)                                       ...   -191.935642632
E(L-MP2)                                   ...     -0.596558965
E(L-MP2) including corrections             ...     -0.596558965
Initial E(tot)                             ...   -192.532201597
<T|T>                                      ...      0.173917863
Number of pairs included                   ... 78
Total number of pairs                      ... 78

------------------------------------------------
                  RHF COUPLED CLUSTER ITERATIONS
------------------------------------------------

Number of PNO amplitudes to be optimized   ...        69235
Number of non-PNO amplitudes               ...       382200
Untruncated number of regular amplitudes   ...       382200

Iter       E(tot)           E(Corr)          Delta-E          Residual     Time
  0   -192.509786832     -0.574020256      0.022538709      0.020148379    0.97
                           *** Turning on DIIS ***
  1   -192.549734044     -0.613967468     -0.039947212      0.013477746    0.90
  2   -192.570309406     -0.634542830     -0.020575362      0.007845432    0.91
  3   -192.574003263     -0.638236687     -0.003693857      0.004441592    0.90
  4   -192.575310254     -0.639543678     -0.001306991      0.002249428    1.13
  5   -192.575742814     -0.639976238     -0.000432560      0.000881140    1.06
  6   -192.575853498     -0.640086922     -0.000110684      0.000235466    1.02
  7   -192.575867320     -0.640100744     -0.000013822      0.000054335    1.00
  8   -192.575867822     -0.640101246     -0.000000502      0.000012057    0.87
  9   -192.575867330     -0.640100754      0.000000492      0.000005469    0.87
               --- The Coupled-Cluster iterations have converged ---

----------------------
COUPLED CLUSTER ENERGY
----------------------

E(0)                                       ...   -191.935642632
E(CORR)(strong-pairs)                      ...     -0.640100754
E(CORR)(weak-pairs)                        ...     -0.000123944
E(CORR)(corrected)                         ...     -0.640224698
E(TOT)                                     ...   -192.575867330
Singles Norm <S|S>**1/2                    ...      0.046430663  
T1 diagnostic                              ...      0.009477619  

------------------
LARGEST AMPLITUDES
------------------
   7-> 16   7-> 16       0.069041
   6-> 16   6-> 16       0.068655
   7-> 16   6-> 16       0.062254
   9-> 17   9-> 17       0.037695
  13-> 16  13-> 16       0.037049
  10-> 17  10-> 17       0.034924
  12-> 17  12-> 17       0.034418
  15-> 21  15-> 21       0.034316
  11-> 17  11-> 17       0.033398
  15-> 16  15-> 16       0.033150
   9-> 22   9-> 22       0.032657
  14-> 24  14-> 24       0.029756
   4-> 25   4-> 25       0.028283
  15-> 21  15-> 16       0.028119
  15-> 16  15-> 21       0.028119
   7-> 27   7-> 16       0.027797


-------------------------------------------
DLPNO BASED TRIPLES CORRECTION
-------------------------------------------

Singles multiplier          ...  1.000000
TCutTNO                     ... 1.000e-09
TCutMP2Pairs                ... 1.000e-06
TCutDOStrong                ... 1.000e-02
TCutMKNStrong               ... 1.000e-02
TCutDOWeak                  ... 2.000e-02
TCutMKNWeak                 ... 1.000e-01

Fragment selection                          .... not used
Number of Triples that are to be computed   ...       352

 . . . . . . . . .
10% done  
20% done  
30% done  
40% done  
50% done  
60% done  
70% done  
80% done  
90% done               (      3.708 sec)
Triples timings:
Total time for T0               ...     3.979 sec
Total time for Iterative (T)    ...     0.000 sec
Total time of overall (T)       ...     4.065 sec

Triples List generation         ...     0.000 sec
TNO generation                  ...     0.270 sec
Pair density generation         ...     0.001 sec
Look up tables                  ...     0.000 sec
Generating 3-index integrals    ...     1.387 sec
  Make 4-ind.int. from 3-ind.int...     0.944 sec
  Projecting amplitudes (D + S) ...     0.268 sec
  Downprojecting integrals      ...     0.000 sec
  Energy contr. (sum over a,b,c)...     0.344 sec
Fitting ET(->0)                 ...     0.000 sec

Everything after 3-index        ...     2.321 sec

Timing details:
 TNO integrals                  ...     2.200 sec
   Reading 3-index integrals    ...     0.006 sec
   Sorting integrals            ...     0.531 sec
       Sorting integrals 1      ...     0.000 sec
       Sorting integrals 2      ...     0.102 sec
       Sorting integrals 3      ...     0.029 sec
       Sorting integrals 4      ...     0.003 sec
       Sorting integrals 5      ...     0.007 sec
       Sorting integrals 6      ...     0.390 sec
   Calculating local VM**-1/2   ...     0.028 sec
   Orthogonal. integrals        ...     0.055 sec
   Multipl. 3-index integrals   ...     1.579 sec
   All concerning IRIab (w/TNO) ...     0.427 sec

 Calculate W0/W1                ...     0.762 sec
 W 3-ext contribution           ...     0.441 sec
 W 3-int contribution           ...     0.119 sec
 Sorting W                      ...     0.181 sec

 V exchange contribution        ...     0.143 sec

 Timings for Triples without generation
     of 3-index integrals       ...     2.320 sec
       0 weak pairs             ...     2.320 sec
       1 weak pair              ...     0.000 sec
       2 weak pairs             ...     0.000 sec
       3 weak pairs             ...     0.000 sec
  Extra time for extrapolation  ...     0.000 sec

Number of Triples   (0, 1, 2, 3 weak pairs; overall):    352       0       0       0  (   352)
Number of Atoms     (0, 1, 2, 3 weak pairs; overall):    9.8     0.0     0.0     0.0  (    10)
Number of PAOs      (0, 1, 2, 3 weak pairs; overall):   85.2     0.0     0.0     0.0  (    86)
Number of AuxFcns   (0, 1, 2, 3 weak pairs; overall):  182.2     0.0     0.0     0.0  (   308)
Number of TNOs      (0, 1, 2, 3 weak pairs         ):   54.5     0.0     0.0     0.0
Aver. Number of NTNO, Atoms, PAOs, AuxFcns / Triples:    352    54.5     9.8    85.2   182.2

Triples Correction (T)                     ...     -0.018151174
Final correlation energy                   ...     -0.658375872
E(CCSD)                                    ...   -192.575867330
E(CCSD(T))                                 ...   -192.594018504


Maximum memory used throughout the entire calculation: 921.5 MB


------------------------------------------------------------------------------- 
                                     TIMINGS                                   
------------------------------------------------------------------------------- 


Total execution time                   ...       20.613 sec

Localization of occupied MO's          ...        0.364 sec (  1.8%)
Fock Matrix Formation                  ...        0.538 sec (  2.6%)
Global overlap, Fock, MKN matrices     ...        0.109 sec (  0.5%)
Differential overlap integrals         ...        0.045 sec (  0.2%)
Organizing maps                        ...        0.007 sec (  0.0%)
RI 3-index integral generations        ...        1.066 sec (  5.2%)
RI-PNO integral transformation         ...        3.687 sec ( 17.9%)
Initial Guess                          ...        0.908 sec (  4.4%)
DIIS Solver                            ...        0.216 sec (  1.0%)
State Vector Update                    ...        0.006 sec (  0.0%)
Sigma-vector construction              ...        9.583 sec ( 46.5%)
  <D|H|D>(0-ext)                       ...        0.415 sec (  4.3% of sigma)
  <D|H|D>(2-ext Fock)                  ...        0.007 sec (  0.1% of sigma)
  <D|H|D>(2-ext)                       ...        0.807 sec (  8.4% of sigma)
  <D|H|D>(4-ext)                       ...        1.093 sec ( 11.4% of sigma)
  <D|H|D>(4-ext-corr)                  ...        4.971 sec ( 51.9% of sigma)
  CCSD doubles correction              ...        0.053 sec (  0.6% of sigma)
  <S|H|S>                              ...        0.054 sec (  0.6% of sigma)
  <S|H|D>(1-ext)                       ...        0.072 sec (  0.8% of sigma)
  <D|H|S>(1-ext)                       ...        0.004 sec (  0.0% of sigma)
  <S|H|D>(3-ext)                       ...        0.072 sec (  0.7% of sigma)
  Fock-dressing                        ...        1.183 sec ( 12.3% of sigma)
  Singles amplitudes                   ...        0.053 sec (  0.6% of sigma)
  (ik|jl)-dressing                     ...        0.288 sec (  3.0% of sigma)
  (ij|ab),(ia|jb)-dressing             ...        0.439 sec (  4.6% of sigma)
  Pair energies                        ...        0.002 sec (  0.0% of sigma)
Total Time for computing (T)           ...        4.078 sec ( 19.8% of ALL)


-------------------------   --------------------
FINAL SINGLE POINT ENERGY      -192.594018503942
-------------------------   --------------------


                            ***************************************
                            *     ORCA property calculations      *
                            ***************************************

                                    ---------------------
                                    Active property flags
                                    ---------------------
   (+) Dipole Moment


------------------------------------------------------------------------------
                       ORCA ELECTRIC PROPERTIES CALCULATION
------------------------------------------------------------------------------

Dipole Moment Calculation                       ... on
Quadrupole Moment Calculation                   ... off
Polarizability Calculation                      ... off
GBWName                                         ... propen_3_ol_skew_a.gbw
Electron density file                           ... propen_3_ol_skew_a.scfp.tmp
The origin for moment calculation is the CENTER OF MASS  = ( 0.047856, -0.044579 -0.024400)

-------------
DIPOLE MOMENT
-------------
                                X             Y             Z
Electronic contribution:      1.67306      -0.86896      -0.39271
Nuclear contribution   :     -1.53134       1.42661       0.78089
                        -----------------------------------------
Total Dipole Moment    :      0.14171       0.55765       0.38817
                        -----------------------------------------
Magnitude (a.u.)       :      0.69407
Magnitude (Debye)      :      1.76419



--------------------
Rotational spectrum 
--------------------
 
Rotational constants in cm-1:     0.926216     0.142325     0.136783 
Rotational constants in MHz : 27767.265780  4266.787621  4100.650826 

 Dipole components along the rotational axes: 
x,y,z [a.u.] :     0.124996     0.623313    -0.278555 
x,y,z [Debye]:     0.317715     1.584335    -0.708032 

 

Timings for individual modules:

Sum of individual times         ...       23.172 sec (=   0.386 min)
GTO integral calculation        ...        0.365 sec (=   0.006 min)   1.6 %
SCF iterations                  ...        2.049 sec (=   0.034 min)   8.8 %
MDCI module                     ...       20.757 sec (=   0.346 min)  89.6 %
                             ****ORCA TERMINATED NORMALLY****
TOTAL RUN TIME: 0 days 0 hours 0 minutes 23 seconds 402 msec
propen_3_ol_skew_a.gbw -> /home1/pantazis/klk/VDZ/Oxygen_compounds/propen_3_ol_skew_a.gbw
propen_3_ol_skew_a.ges -> /home1/pantazis/klk/VDZ/Oxygen_compounds/propen_3_ol_skew_a.ges
propen_3_ol_skew_a.job -> /home1/pantazis/klk/VDZ/Oxygen_compounds/propen_3_ol_skew_a.job
propen_3_ol_skew_a.loc -> /home1/pantazis/klk/VDZ/Oxygen_compounds/propen_3_ol_skew_a.loc
propen_3_ol_skew_a.nodes -> /home1/pantazis/klk/VDZ/Oxygen_compounds/propen_3_ol_skew_a.nodes
propen_3_ol_skew_a.prop -> /home1/pantazis/klk/VDZ/Oxygen_compounds/propen_3_ol_skew_a.prop
propen_3_ol_skew_a_property.txt -> /home1/pantazis/klk/VDZ/Oxygen_compounds/propen_3_ol_skew_a_property.txt
propen_3_ol_skew_a.xyz -> /home1/pantazis/klk/VDZ/Oxygen_compounds/propen_3_ol_skew_a.xyz
cp: cannot stat propen_3_ol_skew_a.asa.inp: No such file or directory
