! Job execution by suborca V 6.07 on ZEUS !
Job started from zeus1, running /scratch/pantazis/propen_3_ol_syn_a__ymzFMO/orca/orca copied from /opt/orca on zeussn149 in /scratch/pantazis/propen_3_ol_syn_a__ymzFMO
Job execution start: Sat Jun 29 11:52:50 CEST 2019
Shared library path: /scratch/pantazis/propen_3_ol_syn_a__ymzFMO/orca:/opt/openmpi_1.10.2/lib:/opt/intel/mkl/lib/intel64:/opt/intel/lib/intel64:
PBS Job ID is: 158929.icqc
izeussn149
izeussn149
izeussn149
izeussn149

                                 *****************
                                 * O   R   C   A *
                                 *****************

           --- An Ab Initio, DFT and Semiempirical electronic structure package ---

                  #######################################################
                  #                        -***-                        #
                  #          Department of theory and spectroscopy      #
                  #               Directorship: Frank Neese             #
                  #        Max Planck Institute fuer Kohlenforschung    #
                  #                Kaiser Wilhelm Platz 1               #
                  #                 D-45470 Muelheim/Ruhr               #
                  #                      Germany                        #
                  #                                                     #
                  #                  All rights reserved                #
                  #                        -***-                        #
                  #######################################################


                         Program Version 4.1.x  -  STABLE  -
                                (SVN: $Rev: 14094$)
                ($Date: 2019-06-14 15:01:15 +0200 (Fri, 14 Jun 2019) $)

                         (BUILD: $Sun Jun 23 06:18:31 CEST 2019$)


 With contributions from (in alphabetic order):
   Daniel Aravena         : Magnetic Properties
   Michael Atanasov       : Ab Initio Ligand Field Theory
   Alexander A. Auer      : GIAO ZORA
   Ute Becker             : Parallelization
   Giovanni Bistoni       : ED, Open-shell LED
   Martin Brehm           : Molecular dynamics
   Dmytro Bykov           : SCF Hessian
   Vijay G. Chilkuri      : MRCI spin determinant printing
   Dipayan Datta          : RHF DLPNO-CCSD density
   Achintya Kumar Dutta   : EOM-CC, STEOM-CC
   Dmitry Ganyushin       : Spin-Orbit,Spin-Spin,Magnetic field MRCI
   Miquel Garcia          : C-PCM Hessian
   Yang Guo               : DLPNO-NEVPT2, CIM, IAO-localization
   Andreas Hansen         : Spin unrestricted coupled pair/coupled cluster methods
   Benjamin Helmich-Paris : CASSCF linear response (MC-RPA)
   Lee Huntington         : MR-EOM, pCC
   Robert Izsak           : Overlap fitted RIJCOSX, COSX-SCS-MP3, EOM
   Christian Kollmar      : KDIIS, OOCD, Brueckner-CCSD(T), CCSD density
   Simone Kossmann        : Meta GGA functionals, TD-DFT gradient, OOMP2, MP2 Hessian
   Martin Krupicka        : AUTO-CI
   Lucas Lang             : DCDCAS
   Dagmar Lenk            : GEPOL surface, SMD
   Dimitrios Liakos       : Extrapolation schemes; parallel MDCI
   Dimitrios Manganas     : ROCIS; embedding schemes
   Dimitrios Pantazis     : SARC Basis sets
   Taras Petrenko         : DFT Hessian,TD-DFT gradient, ASA, ECA, R-Raman, ABS, FL, XAS/XES, NRVS
   Peter Pinski           : DLPNO-MP2, DLPNO-MP2 Gradient
   Christoph Reimann      : Effective Core Potentials
   Marius Retegan         : Local ZFS, SOC
   Christoph Riplinger    : Optimizer, TS searches, QM/MM, DLPNO-CCSD(T), (RO)-DLPNO pert. Triples
   Tobias Risthaus        : Range-separated hybrids, TD-DFT gradient, RPA, STAB
   Michael Roemelt        : Restricted open shell CIS
   Masaaki Saitow         : Open-shell DLPNO
   Barbara Sandhoefer     : DKH picture change effects
   Avijit Sen             : IP-ROCIS
   Kantharuban Sivalingam : CASSCF convergence, NEVPT2, FIC-MRCI
   Bernardo de Souza      : ESD, SOC TD-DFT
   Georgi Stoychev        : AutoAux, RI-MP2 NMR
   Willem Van den Heuvel  : Paramagnetic NMR
   Boris Wezisla          : Elementary symmetry handling
   Frank Wennmohs         : Technical directorship


 We gratefully acknowledge several colleagues who have allowed us to
 interface, adapt or use parts of their codes:
   Stefan Grimme, W. Hujo, H. Kruse,             : VdW corrections, initial TS optimization,
                  C. Bannwarth                     DFT functionals, gCP, sTDA/sTD-DF
   Ed Valeev                                     : LibInt (2-el integral package), F12 methods
   Garnet Chan, S. Sharma, J. Yang, R. Olivares  : DMRG
   Ulf Ekstrom                                   : XCFun DFT Library
   Mihaly Kallay                                 : mrcc  (arbitrary order and MRCC methods)
   Andreas Klamt, Michael Diedenhofen            : otool_cosmo (COSMO solvation model)
   Jiri Pittner, Ondrej Demel                    : Mk-CCSD
   Frank Weinhold                                : gennbo (NPA and NBO analysis)
   Christopher J. Cramer and Donald G. Truhlar   : smd solvation model
   Lars Goerigk                                  : TD-DFT with DH, B97 family of functionals
   V. Asgeirsson, H. Jonsson                     : NEB implementation
   FAccTs GmbH                                   : IRC, NEB, NEB-TS, Multilevel


 Your calculation uses the libint2 library for the computation of 2-el integrals
 For citations please refer to: http://libint.valeyev.net

 This ORCA versions uses:
   CBLAS   interface :  Fast vector & matrix operations
   LAPACKE interface :  Fast linear algebra routines
   SCALAPACK package :  Parallel linear algebra routines




***************************************
The coordinates will be read from file: propen_3_ol_syn_a.xyz
***************************************


----- Orbital basis set information -----
Your calculation utilizes the basis: cc-pVDZ 
       H, B-Ne : Obtained from the ccRepo (grant-hill.group.shef.ac.uk/ccrepo) Feb. 2017
                 T. H. Dunning, Jr., J. Chem. Phys. 90, 1007 (1989)
            He : Obtained from the ccRepo (grant-hill.group.shef.ac.uk/ccrepo) Feb. 2017
                 D. E. Woon, T. H. Dunning, Jr., J. Chem. Phys. 100, 2975 (1994)
  Li-Be, Na-Mg : Obtained from the ccRepo (grant-hill.group.shef.ac.uk/ccrepo) Feb. 2017
                 B. P. Prascher, D. E. Woon, K. A. Peterson, T. H. Dunning, Jr., A. K. Wilson, Theor. Chem. Acc. 128, 69 (2011)
         Al-Ar : Obtained from the ccRepo (grant-hill.group.shef.ac.uk/ccrepo) Feb. 2017
                 D. E. Woon, T. H. Dunning, Jr., J. Chem. Phys. 98, 1358 (1993)
            Ca : Obtained from the Peterson Research Group Website (tyr0.chem.wsu.edu/~kipeters) Feb. 2017
                 J. Koput, K. A. Peterson, J. Phys. Chem. 106, 9595 (2002)
         Sc-Zn : Obtained from the ccRepo (grant-hill.group.shef.ac.uk/ccrepo) Feb. 2017
                 N. B. Balabanov, K. A. Peterson, J. Chem. Phys. 123, 064107 (2005)
                 N. B. Balabanov, K. A. Peterson, J. Chem. Phys. 125, 074110 (2006)
         Ga-Kr : Obtained from the ccRepo (grant-hill.group.shef.ac.uk/ccrepo) Feb. 2017
                 A. K. Wilson, D. E. Woon, K. A. Peterson, T. H. Dunning, Jr., J. Chem. Phys. 110, 7667 (1999)

----- AuxC basis set information -----
Your calculation utilizes the auxiliary basis: cc-pVDZ/C 
  H-He, B, Ne, Al-Ar, Ga-Br : Obtained from the EMSL Basis Set Exchange (bse.pnl.gov) Feb. 2017
                              F. Weigend, A. Kohn, C. Hattig, J. Chem. Phys. 116, 3175 (2002)
               Li-Be, Na-Mg : Obtained from the EMSL Basis Set Exchange (bse.pnl.gov) Feb. 2017
                              C. Haettig, Phys. Chem. Chem. Phys. 7, 59 (2005)
                        C-F : Obtained from the EMSL Basis Set Exchange (bse.pnl.gov) Feb. 2017
                              C. Haettig, Phys. Chem. Chem. Phys. 7, 59 (2005)
                              F. Weigend, A. Kohn, C. Hattig, J. Chem. Phys. 116, 3175 (2002)
                         Kr : Obtained from the TURBOMOLE 7.0 basis set library
                              F. Weigend, A. Kohn, C. Hattig, J. Chem. Phys. 116, 3175 (2002)
                              S function revised in Sep. 2009

----- AuxJK basis set information -----
Your calculation utilizes the auxiliary basis: cc-pVTZ/JK 
  H, B-F, Al-Cl, Ga-Br : Obtained from the TURBOMOLE 7.0 basis set library

================================================================================
                                        WARNINGS
                       Please study these warnings very carefully!
================================================================================


WARNING: MDCI localization with Augmented Hessian Foster-Boys
  ===> : Switching off randomization!

WARNING: Post HF methods need fully converged wavefunctions
  ===> : Setting SCFConvForced true
         You can overwrite this default with %scf ConvForced false 


INFO   : the flag for use of LIBINT has been found!

================================================================================
                                       INPUT FILE
================================================================================
NAME = propen_3_ol_syn_a.inp
|  1> ! RHF DLPNO-CCSD(T) cc-pVDZ RIJK cc-pVTZ/JK cc-pVDZ/C
|  2> ! KDIIS SOSCF TightSCF TightPNO
|  3> 
|  4> %pal nprocs 4 end
|  5> 
|  6> %maxcore 8000
|  7> 
|  8> %scf maxiter 300
|  9>      shift shift 0.2 erroff 0.1 end
| 10> end
| 11> 
| 12> * xyzfile 0 1 propen_3_ol_syn_a.xyz 
| 13> 
| 14> 
| 15>                          ****END OF INPUT****
================================================================================

                       ****************************
                       * Single Point Calculation *
                       ****************************

---------------------------------
CARTESIAN COORDINATES (ANGSTROEM)
---------------------------------
  C     -1.516830   -0.531790    0.000010
  C     -0.782550    0.582530   -0.000020
  C      0.717030    0.634920    0.000020
  O      1.259850   -0.680820   -0.000040
  H     -2.601690   -0.486590    0.000000
  H     -1.051350   -1.511870    0.000060
  H     -1.266850    1.558970   -0.000060
  H      1.056220    1.197540   -0.885920
  H      1.056180    1.197440    0.886050
  H      2.222780   -0.622840    0.000130

----------------------------
CARTESIAN COORDINATES (A.U.)
----------------------------
  NO LB      ZA    FRAG     MASS         X           Y           Z
   0 C     6.0000    0    12.011   -2.866393   -1.004937    0.000019
   1 C     6.0000    0    12.011   -1.478805    1.100822   -0.000038
   2 C     6.0000    0    12.011    1.354990    1.199825    0.000038
   3 O     8.0000    0    15.999    2.380771   -1.286563   -0.000076
   4 H     1.0000    0     1.008   -4.916482   -0.919522    0.000000
   5 H     1.0000    0     1.008   -1.986764   -2.857020    0.000113
   6 H     1.0000    0     1.008   -2.394000    2.946026   -0.000113
   7 H     1.0000    0     1.008    1.995967    2.263023   -1.674146
   8 H     1.0000    0     1.008    1.995891    2.262834    1.674392
   9 H     1.0000    0     1.008    4.200445   -1.176997    0.000246

--------------------------------
INTERNAL COORDINATES (ANGSTROEM)
--------------------------------
 C      0   0   0     0.000000000000     0.00000000     0.00000000
 C      1   0   0     1.334494728989     0.00000000     0.00000000
 C      2   1   0     1.500494881731   125.38374020     0.00000000
 O      3   2   1     1.423314899662   110.41812485     0.00000000
 H      1   2   3     1.085801206345   120.99703075   179.99860120
 H      1   2   3     1.085001584930   121.21220548     0.00000000
 H      2   1   3     1.089945670756   120.23641614   180.00110517
 H      3   2   1     1.102941886094   108.97367293   121.85505162
 H      3   2   1     1.102950875515   108.97371946   238.15693047
 H      4   3   2     0.964673983375   108.97328461   180.00897855

---------------------------
INTERNAL COORDINATES (A.U.)
---------------------------
 C      0   0   0     0.000000000000     0.00000000     0.00000000
 C      1   0   0     2.521829564951     0.00000000     0.00000000
 C      2   1   0     2.835524391822   125.38374020     0.00000000
 O      3   2   1     2.689675362691   110.41812485     0.00000000
 H      1   2   3     2.051866915873   120.99703075   179.99860120
 H      1   2   3     2.050355850388   121.21220548     0.00000000
 H      2   1   3     2.059698818582   120.23641614   180.00110517
 H      3   2   1     2.084258106348   108.97367293   121.85505162
 H      3   2   1     2.084275093893   108.97371946   238.15693047
 H      4   3   2     1.822969637097   108.97328461   180.00897855

---------------------
BASIS SET INFORMATION
---------------------
There are 3 groups of distinct atoms

 Group   1 Type C   : 17s4p1d contracted to 3s2p1d pattern {881/31/1}
 Group   2 Type O   : 17s4p1d contracted to 3s2p1d pattern {881/31/1}
 Group   3 Type H   : 4s1p contracted to 2s1p pattern {31/1}

Atom   0C    basis set group =>   1
Atom   1C    basis set group =>   1
Atom   2C    basis set group =>   1
Atom   3O    basis set group =>   2
Atom   4H    basis set group =>   3
Atom   5H    basis set group =>   3
Atom   6H    basis set group =>   3
Atom   7H    basis set group =>   3
Atom   8H    basis set group =>   3
Atom   9H    basis set group =>   3
-------------------------------
AUXILIARY BASIS SET INFORMATION
-------------------------------
There are 3 groups of distinct atoms

 Group   1 Type C   : 7s5p4d2f contracted to 7s5p4d2f pattern {1111111/11111/1111/11}
 Group   2 Type O   : 7s5p4d2f contracted to 7s5p4d2f pattern {1111111/11111/1111/11}
 Group   3 Type H   : 3s2p1d contracted to 3s2p1d pattern {111/11/1}

Atom   0C    basis set group =>   1
Atom   1C    basis set group =>   1
Atom   2C    basis set group =>   1
Atom   3O    basis set group =>   2
Atom   4H    basis set group =>   3
Atom   5H    basis set group =>   3
Atom   6H    basis set group =>   3
Atom   7H    basis set group =>   3
Atom   8H    basis set group =>   3
Atom   9H    basis set group =>   3
-------------------------------
AUXILIARY BASIS SET INFORMATION
-------------------------------
There are 3 groups of distinct atoms

 Group   1 Type C   : 10s7p5d2f1g contracted to 10s7p5d2f1g pattern {1111111111/1111111/11111/11/1}
 Group   2 Type O   : 10s7p5d2f1g contracted to 10s7p5d2f1g pattern {1111111111/1111111/11111/11/1}
 Group   3 Type H   : 4s3p2d1f contracted to 4s3p2d1f pattern {1111/111/11/1}

Atom   0C    basis set group =>   1
Atom   1C    basis set group =>   1
Atom   2C    basis set group =>   1
Atom   3O    basis set group =>   2
Atom   4H    basis set group =>   3
Atom   5H    basis set group =>   3
Atom   6H    basis set group =>   3
Atom   7H    basis set group =>   3
Atom   8H    basis set group =>   3
Atom   9H    basis set group =>   3

Checking for AutoStart:
The File: propen_3_ol_syn_a.gbw exists
Trying to determine its content:
     ... Fine, the file contains calculation information
     ... Fine, the calculation information was read
     ... Fine, the file contains a basis set
     ... Fine, the basis set was read
     ... Fine, the file contains a geometry
     ... Fine, the geometry was read
     ... Fine, the file contains a set of orbitals
     ... Fine, the orbitals can be read
     => possible old guess file was deleted
     => GBW file was renamed to GES file
     => GES file is set as startup file
     => Guess is set to MORead
     ... now leaving AutoStart



           ************************************************************
           *        Program running with 4 parallel MPI-processes     *
           *              working on a common directory               *
           ************************************************************
------------------------------------------------------------------------------
                           ORCA GTO INTEGRAL CALCULATION
                           -- RI-GTO INTEGRALS CHOSEN --
------------------------------------------------------------------------------

                         BASIS SET STATISTICS AND STARTUP INFO

Gaussian basis set:
 # of primitive gaussian shells          ...  118
 # of primitive gaussian functions       ...  178
 # of contracted shells                  ...   42
 # of contracted basis functions         ...   86
 Highest angular momentum                ...    2
 Maximum contraction depth               ...    8
Auxiliary gaussian basis set:
 # of primitive gaussian shells          ...  160
 # of primitive gaussian functions       ...  496
 # of contracted shells                  ...  160
 # of contracted aux-basis functions     ...  496
 Highest angular momentum                ...    4
 Maximum contraction depth               ...    1
Ratio of auxiliary to basis functions    ...  5.77
Integral package used                  ... LIBINT
 One Electron integrals                  ... done
 Ordering auxiliary basis shells         ... done
 Integral threshhold             Thresh  ...  2.500e-11
 Primitive cut-off               TCut    ...  2.500e-12
 Pre-screening matrix                    ... done
 Shell pair data                         ... 
 Ordering of the shell pairs             ... done (   0.000 sec) 903 of 903 pairs
 Determination of significant pairs      ... done (   0.000 sec)
 Creation of shell pair data             ... done (   0.000 sec)
 Storage of shell pair data              ... done (   0.003 sec)
 Shell pair data done in (   0.004 sec)
 Computing two index integrals           ... done
 Cholesky decomposition of the V-matrix  ... done


Timings:
 Total evaluation time                   ...   0.239 sec (  0.004 min)
 One electron matrix time                ...   0.013 sec (  0.000 min) =  5.2%
 Schwartz matrix evaluation time         ...   0.136 sec (  0.002 min) = 56.8%
 Two index repulsion integral time       ...   0.029 sec (  0.000 min) = 12.2%
 Cholesky decomposition of V             ...   0.032 sec (  0.001 min) = 13.3%
 Three index repulsion integral time     ...   0.000 sec (  0.000 min) =  0.0%



           ************************************************************
           *        Program running with 4 parallel MPI-processes     *
           *              working on a common directory               *
           ************************************************************
-------------------------------------------------------------------------------
                                 ORCA SCF
-------------------------------------------------------------------------------

------------
SCF SETTINGS
------------
Hamiltonian:
 Ab initio Hamiltonian  Method          .... Hartree-Fock(GTOs)
 RI-approximation to the Coulomb term is turned on
   Number of auxiliary basis functions  .... 496
   RI-JK (J+K treated both via RI)      .... on


General Settings:
 Integral files         IntName         .... propen_3_ol_syn_a
 Hartree-Fock type      HFTyp           .... RHF
 Total Charge           Charge          ....    0
 Multiplicity           Mult            ....    1
 Number of Electrons    NEL             ....   32
 Basis Dimension        Dim             ....   86
 Nuclear Repulsion      ENuc            ....    118.3336095147 Eh

Convergence Acceleration:
 DIIS                   CNVDIIS         .... off
 Newton-Raphson         CNVNR           .... off
 SOSCF                  CNVSOSCF        .... on
   Start iteration      SOSCFMaxIt      ....   150
   Startup grad/error   SOSCFStart      ....  0.003300
 Level Shifting         CNVShift        .... on
   Level shift para.    LevelShift      ....    0.2000
   Turn off err/grad.   ShiftErr        ....    0.1000
 Zerner damping         CNVZerner       .... off
 Static damping         CNVDamp         .... off
 Fernandez-Rico         CNVRico         .... off

SCF Procedure:
 Maximum # iterations   MaxIter         ....   300
 SCF integral mode      SCFMode         .... Direct
   Integral package                     .... LIBINT
 Reset frequency        DirectResetFreq ....    20
 Integral Threshold     Thresh          ....  2.500e-11 Eh
 Primitive CutOff       TCut            ....  2.500e-12 Eh

Convergence Tolerance:
 Convergence Check Mode ConvCheckMode   .... Total+1el-Energy
 Convergence forced     ConvForced      .... 1
 Energy Change          TolE            ....  1.000e-08 Eh
 1-El. energy change                    ....  1.000e-05 Eh
 Orbital Gradient       TolG            ....  1.000e-05
 Orbital Rotation angle TolX            ....  1.000e-05


Diagonalization of the overlap matrix:
Smallest eigenvalue                        ... 3.149e-03
Time for diagonalization                   ...    0.004 sec
Threshold for overlap eigenvalues          ... 1.000e-08
Number of eigenvalues below threshold      ... 0
Time for construction of square roots      ...    0.004 sec
Total time needed                          ...    0.008 sec

---------------------
INITIAL GUESS: MOREAD
---------------------
Guess MOs are being read from file: propen_3_ol_syn_a.ges
Input Geometry matches current geometry (good)
Atom 0: N(Shells)= 6 and 10 - projection required
Input basis set needs projection
NBasis(read)= 204
NBasis(calc)= 86
Basis set overlap was calculated
Using GuessMode=FMatrix for the initial guess
C*T matrix was formed
Effective Fockian was calculated
Effective Fockian was diagonalized
Initial density was built
                      ------------------
                      INITIAL GUESS DONE (   0.0 sec)
                      ------------------
--------------
SCF ITERATIONS
--------------
ITER       Energy         Delta-E        Max-DP      RMS-DP      [F,P]   Gradient Norm
                             ****Turning on KDIIS(Cayley)****
  0   -191.9363400811   0.000000000000 0.00155406  0.00009156  0.0061999   0.005797491
  1   -191.9364250659  -0.000084984773 0.00294318  0.00018248  0.0056413   0.005244474
  2   -191.9365618580  -0.000136792156 0.00501499  0.00030699  0.0045466   0.004267019
                      *** Initiating the SOSCF procedure ***
                           *** Shutting down KDIIS ***
                      *** Re-Reading the Fockian *** 
                      *** Removing any level shift *** 
ITER      Energy       Delta-E        Grad      Rot      Max-DP    RMS-DP
  3   -191.93673663  -0.0001747680  0.002717  0.002717  0.007640  0.000463
  4   -191.93683723  -0.0001006057  0.000030  0.000049  0.000078  0.000003
  5   -191.93683725  -0.0000000228  0.000015  0.000014  0.000048  0.000002
  6   -191.93683726  -0.0000000062  0.000003  0.000005  0.000012  0.000001
                  ***Gradient check signals convergence***
              ***Rediagonalizing the Fockian in SOSCF/NRSCF***

               *****************************************************
               *                     SUCCESS                       *
               *           SCF CONVERGED AFTER   7 CYCLES          *
               *****************************************************


----------------
TOTAL SCF ENERGY
----------------

Total Energy       :         -191.93683726 Eh           -5222.86687 eV

Components:
Nuclear Repulsion  :          118.33360951 Eh            3220.02122 eV
Electronic Energy  :         -310.27044678 Eh           -8442.88808 eV
One Electron Energy:         -495.13757298 Eh          -13473.37833 eV
Two Electron Energy:          184.86712621 Eh            5030.49025 eV

Virial components:
Potential Energy   :         -383.61674168 Eh          -10438.74224 eV
Kinetic Energy     :          191.67990442 Eh            5215.87537 eV
Virial Ratio       :            2.00134043


---------------
SCF CONVERGENCE
---------------

  Last Energy change         ...   -3.9137e-10  Tolerance :   1.0000e-08
  Last MAX-Density change    ...    2.2310e-06  Tolerance :   1.0000e-07
  Last RMS-Density change    ...    1.2336e-07  Tolerance :   5.0000e-09
  Last Orbital Gradient      ...    1.1831e-06  Tolerance :   1.0000e-05
  Last Orbital Rotation      ...    8.3317e-07  Tolerance :   1.0000e-05

             **** THE GBW FILE WAS UPDATED (propen_3_ol_syn_a.gbw) ****
             **** DENSITY FILE WAS UPDATED (propen_3_ol_syn_a.scfp.tmp) ****
             **** ENERGY FILE WAS UPDATED (propen_3_ol_syn_a.en.tmp) ****
----------------
ORBITAL ENERGIES
----------------

  NO   OCC          E(Eh)            E(eV) 
   0   2.0000     -20.555535      -559.3445 
   1   2.0000     -11.287234      -307.1413 
   2   2.0000     -11.234035      -305.6936 
   3   2.0000     -11.221711      -305.3583 
   4   2.0000      -1.356181       -36.9036 
   5   2.0000      -1.051566       -28.6146 
   6   2.0000      -0.918982       -25.0068 
   7   2.0000      -0.748970       -20.3805 
   8   2.0000      -0.700954       -19.0739 
   9   2.0000      -0.628184       -17.0938 
  10   2.0000      -0.607454       -16.5297 
  11   2.0000      -0.586320       -15.9546 
  12   2.0000      -0.510070       -13.8797 
  13   2.0000      -0.486234       -13.2311 
  14   2.0000      -0.454120       -12.3572 
  15   2.0000      -0.354139        -9.6366 
  16   0.0000       0.177469         4.8292 
  17   0.0000       0.179497         4.8844 
  18   0.0000       0.219212         5.9651 
  19   0.0000       0.233186         6.3453 
  20   0.0000       0.261226         7.1083 
  21   0.0000       0.261587         7.1182 
  22   0.0000       0.292481         7.9588 
  23   0.0000       0.375688        10.2230 
  24   0.0000       0.422799        11.5049 
  25   0.0000       0.483909        13.1678 
  26   0.0000       0.624645        16.9975 
  27   0.0000       0.686712        18.6864 
  28   0.0000       0.690491        18.7892 
  29   0.0000       0.722349        19.6561 
  30   0.0000       0.748741        20.3743 
  31   0.0000       0.763720        20.7819 
  32   0.0000       0.771076        20.9821 
  33   0.0000       0.813552        22.1379 
  34   0.0000       0.820391        22.3240 
  35   0.0000       0.868504        23.6332 
  36   0.0000       0.889424        24.2024 
  37   0.0000       0.927774        25.2460 
  38   0.0000       0.934140        25.4192 
  39   0.0000       0.976885        26.5824 
  40   0.0000       1.023856        27.8606 
  41   0.0000       1.134660        30.8757 
  42   0.0000       1.215903        33.0864 
  43   0.0000       1.233111        33.5546 
  44   0.0000       1.264165        34.3997 
  45   0.0000       1.281280        34.8654 
  46   0.0000       1.312666        35.7195 
  47   0.0000       1.331303        36.2266 
  48   0.0000       1.354577        36.8599 
  49   0.0000       1.445930        39.3458 
  50   0.0000       1.547506        42.1098 
  51   0.0000       1.599412        43.5222 
  52   0.0000       1.613233        43.8983 
  53   0.0000       1.723900        46.9097 
  54   0.0000       1.730896        47.1001 
  55   0.0000       1.764367        48.0109 
  56   0.0000       1.824342        49.6429 
  57   0.0000       1.835358        49.9426 
  58   0.0000       1.874475        51.0071 
  59   0.0000       1.911481        52.0140 
  60   0.0000       1.915482        52.1229 
  61   0.0000       1.955821        53.2206 
  62   0.0000       1.986170        54.0464 
  63   0.0000       2.015212        54.8367 
  64   0.0000       2.088150        56.8215 
  65   0.0000       2.105354        57.2896 
  66   0.0000       2.194375        59.7120 
  67   0.0000       2.244095        61.0649 
  68   0.0000       2.282229        62.1026 
  69   0.0000       2.288187        62.2647 
  70   0.0000       2.413880        65.6850 
  71   0.0000       2.458818        66.9078 
  72   0.0000       2.487435        67.6866 
  73   0.0000       2.516703        68.4830 
  74   0.0000       2.594629        70.6034 
  75   0.0000       2.659365        72.3650 
  76   0.0000       2.775628        75.5287 
  77   0.0000       2.786238        75.8174 
  78   0.0000       2.831625        77.0524 
  79   0.0000       3.059778        83.2608 
  80   0.0000       3.282442        89.3198 
  81   0.0000       3.303103        89.8820 
  82   0.0000       3.394600        92.3718 
  83   0.0000       3.528786        96.0231 
  84   0.0000       3.610097        98.2357 
  85   0.0000       4.121934       112.1635 

                    ********************************
                    * MULLIKEN POPULATION ANALYSIS *
                    ********************************

-----------------------
MULLIKEN ATOMIC CHARGES
-----------------------
   0 C :   -0.009910
   1 C :   -0.213425
   2 C :    0.257316
   3 O :   -0.382425
   4 H :    0.042466
   5 H :    0.059942
   6 H :    0.026290
   7 H :    0.026556
   8 H :    0.026557
   9 H :    0.166634
Sum of atomic charges:    0.0000000

--------------------------------
MULLIKEN REDUCED ORBITAL CHARGES
--------------------------------
  0 C s       :     3.053322  s :     3.053322
      pz      :     0.984171  p :     2.898976
      px      :     0.920464
      py      :     0.994341
      dz2     :     0.001775  d :     0.057612
      dxz     :     0.004106
      dyz     :     0.010330
      dx2y2   :     0.025007
      dxy     :     0.016395
  1 C s       :     3.191597  s :     3.191597
      pz      :     0.986099  p :     2.941473
      px      :     0.944715
      py      :     1.010658
      dz2     :     0.004619  d :     0.080355
      dxz     :     0.012484
      dyz     :     0.010950
      dx2y2   :     0.031622
      dxy     :     0.020680
  2 C s       :     2.970543  s :     2.970543
      pz      :     0.972301  p :     2.641917
      px      :     0.941916
      py      :     0.727701
      dz2     :     0.017650  d :     0.130223
      dxz     :     0.014229
      dyz     :     0.033248
      dx2y2   :     0.034842
      dxy     :     0.030255
  3 O s       :     3.726068  s :     3.726068
      pz      :     1.926251  p :     4.642062
      px      :     1.241230
      py      :     1.474581
      dz2     :     0.002332  d :     0.014294
      dxz     :     0.000379
      dyz     :     0.001734
      dx2y2   :     0.007420
      dxy     :     0.002428
  4 H s       :     0.925371  s :     0.925371
      pz      :     0.005542  p :     0.032163
      px      :     0.022330
      py      :     0.004291
  5 H s       :     0.907119  s :     0.907119
      pz      :     0.005173  p :     0.032939
      px      :     0.008538
      py      :     0.019227
  6 H s       :     0.942797  s :     0.942797
      pz      :     0.005279  p :     0.030914
      px      :     0.007536
      py      :     0.018099
  7 H s       :     0.944656  s :     0.944656
      pz      :     0.015972  p :     0.028788
      px      :     0.005319
      py      :     0.007498
  8 H s       :     0.944655  s :     0.944655
      pz      :     0.015974  p :     0.028788
      px      :     0.005319
      py      :     0.007496
  9 H s       :     0.751796  s :     0.751796
      pz      :     0.021374  p :     0.081569
      px      :     0.046688
      py      :     0.013507


                     *******************************
                     * LOEWDIN POPULATION ANALYSIS *
                     *******************************

----------------------
LOEWDIN ATOMIC CHARGES
----------------------
   0 C :   -0.047303
   1 C :   -0.047503
   2 C :    0.018250
   3 O :   -0.076093
   4 H :    0.022274
   5 H :    0.026961
   6 H :    0.025030
   7 H :    0.014002
   8 H :    0.014004
   9 H :    0.050378

-------------------------------
LOEWDIN REDUCED ORBITAL CHARGES
-------------------------------
  0 C s       :     2.836070  s :     2.836070
      pz      :     0.957728  p :     3.053631
      px      :     1.031464
      py      :     1.064439
      dz2     :     0.011043  d :     0.157602
      dxz     :     0.007381
      dyz     :     0.018300
      dx2y2   :     0.070931
      dxy     :     0.049947
  1 C s       :     2.832988  s :     2.832988
      pz      :     0.931865  p :     3.010620
      px      :     1.017012
      py      :     1.061743
      dz2     :     0.013571  d :     0.203895
      dxz     :     0.026371
      dyz     :     0.019432
      dx2y2   :     0.081817
      dxy     :     0.062704
  2 C s       :     2.799011  s :     2.799011
      pz      :     1.043795  p :     2.875490
      px      :     0.998914
      py      :     0.832780
      dz2     :     0.040831  d :     0.307249
      dxz     :     0.033660
      dyz     :     0.088915
      dx2y2   :     0.082893
      dxy     :     0.060949
  3 O s       :     3.398854  s :     3.398854
      pz      :     1.856393  p :     4.651881
      px      :     1.313486
      py      :     1.482002
      dz2     :     0.004039  d :     0.025359
      dxz     :     0.000286
      dyz     :     0.002358
      dx2y2   :     0.014367
      dxy     :     0.004308
  4 H s       :     0.895101  s :     0.895101
      pz      :     0.017863  p :     0.082625
      px      :     0.049842
      py      :     0.014920
  5 H s       :     0.888087  s :     0.888087
      pz      :     0.017358  p :     0.084952
      px      :     0.023796
      py      :     0.043797
  6 H s       :     0.894069  s :     0.894069
      pz      :     0.017475  p :     0.080901
      px      :     0.022855
      py      :     0.040571
  7 H s       :     0.910664  s :     0.910664
      pz      :     0.037617  p :     0.075334
      px      :     0.017491
      py      :     0.020226
  8 H s       :     0.910664  s :     0.910664
      pz      :     0.037620  p :     0.075332
      px      :     0.017490
      py      :     0.020222
  9 H s       :     0.741848  s :     0.741848
      pz      :     0.060694  p :     0.207774
      px      :     0.105134
      py      :     0.041946


                      *****************************
                      * MAYER POPULATION ANALYSIS *
                      *****************************

  NA   - Mulliken gross atomic population
  ZA   - Total nuclear charge
  QA   - Mulliken gross atomic charge
  VA   - Mayer's total valence
  BVA  - Mayer's bonded valence
  FA   - Mayer's free valence

  ATOM       NA         ZA         QA         VA         BVA        FA
  0 C      6.0099     6.0000    -0.0099     3.9503     3.9503     0.0000
  1 C      6.2134     6.0000    -0.2134     4.0628     4.0628     0.0000
  2 C      5.7427     6.0000     0.2573     3.9615     3.9615     0.0000
  3 O      8.3824     8.0000    -0.3824     2.0215     2.0215    -0.0000
  4 H      0.9575     1.0000     0.0425     0.9732     0.9732     0.0000
  5 H      0.9401     1.0000     0.0599     0.9963     0.9963     0.0000
  6 H      0.9737     1.0000     0.0263     0.9870     0.9870     0.0000
  7 H      0.9734     1.0000     0.0266     0.9577     0.9577     0.0000
  8 H      0.9734     1.0000     0.0266     0.9577     0.9577     0.0000
  9 H      0.8334     1.0000     0.1666     1.0197     1.0197    -0.0000

  Mayer bond orders larger than 0.1
B(  0-C ,  1-C ) :   2.0079 B(  0-C ,  4-H ) :   0.9697 B(  0-C ,  5-H ) :   0.9607 
B(  1-C ,  2-C ) :   1.0528 B(  1-C ,  6-H ) :   0.9710 B(  2-C ,  3-O ) :   1.0045 
B(  2-C ,  7-H ) :   0.9609 B(  2-C ,  8-H ) :   0.9609 B(  3-O ,  9-H ) :   0.9972 


-------
TIMINGS
-------

Total SCF time: 0 days 0 hours 0 min 1 sec 

Total time                  ....       1.912 sec
Sum of individual times     ....       1.747 sec  ( 91.4%)

Fock matrix formation       ....       1.716 sec  ( 89.7%)
Diagonalization             ....       0.004 sec  (  0.2%)
Density matrix formation    ....       0.001 sec  (  0.0%)
Population analysis         ....       0.003 sec  (  0.2%)
Initial guess               ....       0.016 sec  (  0.8%)
Orbital Transformation      ....       0.000 sec  (  0.0%)
Orbital Orthonormalization  ....       0.000 sec  (  0.0%)
DIIS solution               ....       0.000 sec  (  0.0%)
SOSCF solution              ....       0.007 sec  (  0.4%)


           ************************************************************
           *        Program running with 4 parallel MPI-processes     *
           *              working on a common directory               *
           ************************************************************


------------------------------------------------------------------------------- 
                              ORCA-MATRIX DRIVEN CI                            
------------------------------------------------------------------------------- 


Wavefunction type
-----------------
Correlation treatment                      ...      CCSD     
Single excitations                         ... ON
Orbital optimization                       ... OFF
Calculation of Z vector                    ... OFF
Calculation of Brueckner orbitals          ... OFF
Perturbative triple excitations            ... ON
Calculation of F12 correction              ... OFF
Frozen core treatment                      ... chemical core (8 el)
Reference Wavefunction                     ... RHF
  Internal Orbitals:     4 ...   15 ( 12 MO's/ 24 electrons)
  Virtual  Orbitals:    16 ...   85 ( 70 MO's              )
Number of AO's                             ...     86
Number of electrons                        ...     32
Number of correlated electrons             ...     24

Algorithmic settings
--------------------
Integral transformation                    ... All integrals via the RI transformation
K(C) Formation                             ... RI-DLPNO
   PNO-Integral Storage                    ... ON DISK
   PNO occupation number cut-off           ... 1.000e-07
   Singles PNO occupation number cut-off   ... 3.000e-09
   PNO Mulliken prescreening cut-off       ... 1.000e-03
   Domain cut-off (Mulliken population)    ... 1.000e-03
   PNO Normalization                       ...    1
Maximum number of iterations               ...        50
Convergence tolerance (max. residuum)      ... 1.000e-05
Level shift for amplitude update           ... 2.000e-01
Maximum number of DIIS vectors             ...         7
DIIS turned on at iteration                ...         0
Damping before turning on DIIS             ...     0.500
Damping after turning on DIIS              ...     0.000
Pair specific amplitude update             ... OFF
Natural orbital iterations                 ... OFF
Perturbative natural orbital generation    ... OFF
Printlevel                                 ... 2

Singles Fock matrix elements calculated using PNOs.

Memory handling:
----------------
Maximum memory for working arrays          ...   8000 MB
Data storage in matrix containers          ... UNCOMPRESSED
Data type for integral storage             ... DOUBLE
In-Core Storage of quantities:
   Amplitudes+Sigma Vector      ... NO
   J+K operators                ... NO
   DIIS vectors                 ... NO
   3-external integrals         ... NO
   4-external integrals         ... NO

Localization treatment:
-----------------------
Localization option                        ...    6
Localization threshhold                    ... -1.0e+00
Using relative localization threshhold     ... 1.0e-08
Neglect threshold for strong pairs         ... 1.000e-05 Eh
Prescreening threshold for very weak pairs ... 1.000e-07 Eh

Initializing the integral package          ... done
Localizing the valence orbitals
------------------------------------------------------------------------------
                           ORCA ORBITAL LOCALIZATION
------------------------------------------------------------------------------

Input orbitals are from                  ... propen_3_ol_syn_a.proc0.gbw
Output orbitals are to                   ... propen_3_ol_syn_a.proc0.loc
Max. number of iterations                ... 128
Localizations seeded randomly            ... off
Convergence tolerance                    ... 1.000e-06
Using relative localization threshhold   ... 1.000e-08
Treshold for strong local MOs            ... 9.500e-01
Treshold for bond MOs                    ... 8.500e-01
Operator                                 ... 0
Orbital range for localization           ... 4 to 15
Localization criterion                   ... FOSTER-BOYS (AUGMENTED HESSIAN)
Doing the dipole integrals     ... o.k.
Initial value of the localization sum :    85.230589
ITERATION   0 : L=   96.9462081460 DL=  1.17e+01 (AVERGE_DL)=    0.4213186299 
ITERATION   1 : L=   99.2450203158 DL=  2.30e+00 (AVERGE_DL)=    0.1866292780 
ITERATION   2 : L=   99.2717517518 DL=  2.67e-02 (AVERGE_DL)=    0.0201251524 
ITERATION   3 : L=   99.2734431692 DL=  1.69e-03 (AVERGE_DL)=    0.0050623647 
ITERATION   4 : L=   99.2735801918 DL=  1.37e-04 (AVERGE_DL)=    0.0014408677 
ITERATION   5 : L=   99.2735932301 DL=  1.30e-05 (AVERGE_DL)=    0.0004444667 
ITERATION   6 : L=   99.2735944237 DL=  1.19e-06 (AVERGE_DL)=    0.0001344812 
ITERATION   7 : L=   99.2735945294 DL=  1.06e-07 (AVERGE_DL)=    0.0000400047 
LOCALIZATION SUM CONVERGED

------------------------------------------------------
AUGMENTED HESSIAN OPTIMIZATION OF FOSTER-BOYS ORBITALS
------------------------------------------------------

Spin operator:           0
Orbital window:          4 to 15
Number of iterations:    128
Gradient tolerance:      1.000e-06
Number of pairs:         66
Davidson threshold:      2000
Diagonalization method:  LAPACK
Iter:    0   L: 99.2735945294   Grad. norm: 5.703651e-04
   *** Likely close to a maximum now. ***
       Augmented Hessian eigenvalues:  2.24e-08 -1.35e+00 -3.63e+00 -5.29e+00 ... 
Iter:    1   L: 99.2735945406   Grad. norm: 6.500115e-09
LOCALIZATION HAS CONVERGED.

Eigenvalues of the Hessian:
  0 -1.349e+00
  1 -3.634e+00
  2 -5.288e+00
  3 -5.571e+00
  4 -5.666e+00
  5 -7.592e+00
  6 -1.050e+01
  7 -1.753e+01
  8 -1.840e+01
  9 -1.926e+01
    ...


------------------------------------------------------------------------------- 
                    LOCALIZED MOLECULAR ORBITAL COMPOSITIONS                   
------------------------------------------------------------------------------- 

The Mulliken populations for each LMO on each atom are computed
The LMO`s will be ordered according to atom index and type
  (A) Strongly localized MO`s have populations of >=0.950 on one atom
  (B) Two center bond orbitals have populations of >=0.850 on two atoms
  (C) Other MO`s are considered to be `delocalized`

FOUND  -   2 strongly local MO`s
       -  10 two center bond MO`s
       -   0 significantly delocalized MO`s

Rather strongly localized orbitals:
MO   5:   3O  -   0.986088
MO   4:   3O  -   0.986091
Bond-like localized orbitals:
MO  15:   9H  -   0.417712  and   3O  -   0.582751
MO  14:   8H  -   0.509242  and   2C  -   0.505080
MO  13:   7H  -   0.509243  and   2C  -   0.505079
MO  12:   6H  -   0.497199  and   1C  -   0.508592
MO  11:   5H  -   0.475483  and   0C  -   0.525933
MO  10:   4H  -   0.494592  and   0C  -   0.509493
MO   9:   3O  -   0.657963  and   2C  -   0.349805
MO   8:   2C  -   0.504020  and   1C  -   0.543618
MO   7:   1C  -   0.519659  and   0C  -   0.492350
MO   6:   1C  -   0.519654  and   0C  -   0.492355
Localized MO's were stored in: propen_3_ol_syn_a.proc0.loc

Localizing the core orbitals
------------------------------------------------------------------------------
                           ORCA ORBITAL LOCALIZATION
------------------------------------------------------------------------------

Input orbitals are from                  ... propen_3_ol_syn_a.proc0.loc
Output orbitals are to                   ... propen_3_ol_syn_a.proc0.loc
Max. number of iterations                ... 128
Localizations seeded randomly            ... off
Convergence tolerance                    ... 1.000e-06
Using relative localization threshhold   ... 1.000e-08
Treshold for strong local MOs            ... 9.500e-01
Treshold for bond MOs                    ... 8.500e-01
Operator                                 ... 0
Orbital range for localization           ... 0 to 3
Localization criterion                   ... FOSTER-BOYS (AUGMENTED HESSIAN)
Doing the dipole integrals     ... o.k.
Initial value of the localization sum :    23.223778
ITERATION   0 : L=   23.2237808734 DL=  3.35e-06 (AVERGE_DL)=    0.0007476625 
ITERATION   1 : L=   23.2237808734 DL=  0.00e+00 (AVERGE_DL)=    0.0000000000 
LOCALIZATION SUM CONVERGED

------------------------------------------------------
AUGMENTED HESSIAN OPTIMIZATION OF FOSTER-BOYS ORBITALS
------------------------------------------------------

Spin operator:           0
Orbital window:          0 to 3
Number of iterations:    128
Gradient tolerance:      1.000e-06
Number of pairs:         6
Davidson threshold:      2000
Diagonalization method:  LAPACK
Iter:    0   L: 23.2237808734   Grad. norm: 1.224477e-06
   *** Likely close to a maximum now. ***
       Augmented Hessian eigenvalues:  4.13e-14 -2.54e+01 -2.89e+01 -3.22e+01 ... 
Iter:    1   L: 23.2237808734   Grad. norm: 5.720851e-20
LOCALIZATION HAS CONVERGED.

Eigenvalues of the Hessian:
  0 -2.544e+01
  1 -2.893e+01
  2 -3.216e+01
  3 -8.238e+01
  4 -9.072e+01
  5 -1.105e+02


------------------------------------------------------------------------------- 
                    LOCALIZED MOLECULAR ORBITAL COMPOSITIONS                   
------------------------------------------------------------------------------- 

The Mulliken populations for each LMO on each atom are computed
The LMO`s will be ordered according to atom index and type
  (A) Strongly localized MO`s have populations of >=0.950 on one atom
  (B) Two center bond orbitals have populations of >=0.850 on two atoms
  (C) Other MO`s are considered to be `delocalized`

FOUND  -   4 strongly local MO`s
       -   0 two center bond MO`s
       -   0 significantly delocalized MO`s

Rather strongly localized orbitals:
MO   3:   3O  -   0.999808
MO   2:   2C  -   0.999493
MO   1:   1C  -   0.999407
MO   0:   0C  -   0.999659
Localized MO's were stored in: propen_3_ol_syn_a.proc0.loc

Warning: internal orbitals are localized - no re-canonicalization of internal orbitals

--------------------------
CLOSED-SHELL FOCK OPERATOR
--------------------------

RI-JK section for the Fock operator:
  RHF full Fock operator         ... done
  RHF frozen core Fock operator  ... done
Time needed for Fock operator              ...            0.531 sec
Reference energy                           ...   -191.936837261

--------------
DLPNO SETTINGS (2015 fully linear scaling implementation)
--------------

TCutMKN:           1.000e-03
TCutPAO:           1.000e-03
TCutPNO:           1.000e-07
TCutPNOSingles:    3.000e-09
TCutEN:            9.700e-01
TCutPAOExt:        1.000e-01
TCutPairs:         1.000e-05
TCutPre:           1.000e-07
TCutOSV:           1.000e-06
TCutDOij:          1.000e-05
TCutDO:            5.000e-03
TCutC:             1.000e-04
TCutCPAO:          1.000e-03
TCutCMO:           1.000e-03
TScaleDOMP2PreScr: 2.000e+00
TScaleMKNMP2PreScr:1.000e+01
TScalePNOMP2PreScr:1.000e+00
PAO overlap thresh 1.000e-08
Using PNOs for Singles Fock computation
Use new domains
Use fully linear algorithm
TCutTNO:           1.000e-09
TCutMP2Pairs:      1.000e-06
TCutDOStrong:      2.000e-03
TCutMKNStrong:     1.000e-02
TCutMKNWeak:       1.000e-01
TCutDOWeak:        4.000e-03
NTCutTNO:          1

--------------------------
Calculating differential overlap integrals ... ok
--------------------------
ELECTRON PAIR PRESCREENING
--------------------------

Dipole-based pair screening          .... used

   TCutDOij = 1.000000e-05
   TCutPre  = 1.000000e-07
   .... Finished loop over pairs
Total time spent in the prescreening                  ...     0.000 sec
sum of pair energies estimated for screened out pairs ...       0.000000000000 Eh
Thresholds for map construction and integral transformation for crude MP2:
   TCutMKN                    ...     1.0e-02
   TCutDO                     ...     1.0e-02
   TCutPairs                  ...     1.0e-05
   TCutPNO_CrudeMP2           ...     1.0e-07
   TCutPNOSingles_CrudeMP2    ...     3.0e-09
--------------------------------
LOCAL RI TRANSFORMATION (IAVPAO)
--------------------------------

Orbital window:       4 to 15
Number of PAOs:      86
Basis functions:     86 (42 shells)
Aux. functions:     308 (108 shells)

Processing maps (0.0 sec)
Average map sizes:
   Aux shells -> MOs              12.0
   Aux shells -> PAOs             86.0
   MOs        -> AO shells        42.0
   PAOs       -> AO shells        42.0

Calculating integrals (0.2 sec, 2.429 MB)
Sorting integrals (0.0 sec, 2.425 MB)
Total time for the integral transformation: 0.2 sec
--------------------------------
INITIAL GUESS AND PNO GENERATION
--------------------------------

PNO truncation parameters                   .... 
    PAOOverlapThresh   =        1.000e-08

    TCutPairs          =        1.000e-05
    TCutPNO            =        1.000e-07
    TCutPNOSingles     =        3.000e-09
    TCutMP2Pairs       =        1.000e-06
    TCutMKN            =        1.000e-02
    TCutDO             =        1.000e-02

Pair selection                          .... not used
Type of local MP2 treatment                 .... semi-local MP2
Strategy for PNO selection                  .... occupation number selection
Pair density normalization                  .... MP2 norm
Spin component scaling                      .... not used

   .... Finished loop over pairs
Making pair pair interaction lists          ... done

                       ===========================
                         78 OF   78 PAIRS ARE KEPT CCSD PAIRS
                          0 OF   78 PAIRS ARE KEPT MP2 PAIRS FOR (T)
                          0 OF   78 PAIRS ARE SKIPPED
                       ===========================

Total time spent in the initial guess                 ...     0.080 sec
SL-MP2 correlation energy (all non-screened pairs)    ...      -0.574264582974 Eh

Initial PNO correlation energy                        ...      -0.574122339901 Eh
sum of pair energies prescreened and skipped MP2 pairs...       0.000000000000 Eh
sum of pair energies of crude MP2 skipped pairs only  ...       0.000000000000 Eh
sum of MP2 pair energies for pairs that were not kept ...       0.000000000000 Eh
sum of PNO error estimates for the kept pairs         ...      -0.000142243072 Eh
                                                          --------------------
sum of all corrections                                         -0.000142243072
Initial total correlation energy                               -0.574264582974
Thresholds for map construction and integral transformation for fine MP2 and CCSD(T) calculation:
   TCutMKN   ...     1.0e-03
   TCutDO    ...     5.0e-03
   TCutPairs ...     1.0e-05
   TCutCMO   ...     1.0e-03
   TCutCPAO  ...     1.0e-03

Thresholds for map construction and integral transformation for strong Triples:
   TCutMKN   ...     1.0e-02
   TCutDO    ...     1.0e-02
   TCutCMO   ...     1.0e-03
   TCutCPAO  ...     1.0e-03

Thresholds for map construction and integral transformation for weak Triples:
   TCutMKN   ...     1.0e-01
   TCutDO    ...     2.0e-02
   TCutCMO   ...     1.0e-03
   TCutCPAO  ...     1.0e-03

--------------------------------
LOCAL RI TRANSFORMATION (IAVPAO)
--------------------------------

Orbital window:       4 to 15
Number of PAOs:      86
Basis functions:     86 (42 shells)
Aux. functions:     308 (108 shells)

Processing maps (0.0 sec)
Average map sizes:
   Aux shells -> MOs              12.0
   Aux shells -> PAOs             86.0
   MOs        -> AO shells        42.0
   PAOs       -> AO shells        42.0

Calculating integrals (0.2 sec, 2.429 MB)
Sorting integrals (0.0 sec, 2.425 MB)
Total time for the integral transformation: 0.2 sec
--------------------------------
INITIAL GUESS AND PNO GENERATION
--------------------------------

PNO truncation parameters                   .... 
    ScaleTCutPNO       =        1.000e-02
    PAOOverlapThresh   =        1.000e-08

    TCutPairs          =        1.000e-05
    TCutPNO            =        1.000e-07
    TCutPNOSingles     =        3.000e-09
    TCutMP2Pairs       =        1.000e-06
    TCutMKN            =        1.000e-03
    TCutDO             =        5.000e-03

Pair selection                          .... not used
Type of local MP2 treatment                 .... full local PMP2
Strategy for PNO selection                  .... occupation number selection
Pair density normalization                  .... MP2 norm
Spin component scaling                      .... not used

PASS-1: Formation of initial guess LMP2 amplitudes
Initial amplitudes guess done. Entering LMP2 iteration loop:
   Max. no of iterations          ...  50
   Energy convergence tolerance   ...    1.0e-07
   Residual convergence tolerance ...    5.0e-07
   Fock matrix cutoff             ...    1.0e-05 Eh
   DIIS convergence acceleration parameters:
        Max # vectors in DIIS     ... 7
        Start iteration of DIIS   ... 0
        Levelshift                ... 2.000e-01
        Damping factor 1          ... 5.000e-01
        Damping factor 2          ... 1.000e+00
   L-MP2 PNO cut-off              ...   1.0e-09
   L-MP2 PNO cut-off (core)       ...   1.0e-11
                           *** Turning on DIIS ***
LMP2-Iter=   0:  ELMP2= -0.588078865684  DE=   1.4e-02 RMAX=   1.8e-02
LMP2-Iter=   1:  ELMP2= -0.595271800891  DE=   7.2e-03 RMAX=   7.1e-03
LMP2-Iter=   2:  ELMP2= -0.596591280998  DE=   1.3e-03 RMAX=   2.7e-03
LMP2-Iter=   3:  ELMP2= -0.596757268645  DE=   1.7e-04 RMAX=   8.0e-04
LMP2-Iter=   4:  ELMP2= -0.596758056816  DE=   7.9e-07 RMAX=   2.0e-04
LMP2-Iter=   5:  ELMP2= -0.596754234675  DE=   3.8e-06 RMAX=   2.9e-05
LMP2-Iter=   6:  ELMP2= -0.596754070547  DE=   1.6e-07 RMAX=   4.5e-06
LMP2-Iter=   7:  ELMP2= -0.596754055624  DE=   1.5e-08 RMAX=   6.1e-07
LMP2-Iter=   8:  ELMP2= -0.596754076113  DE=   2.0e-08 RMAX=   1.4e-07
LMP2-Iter=   9:  ELMP2= -0.596754077217  DE=   1.1e-09 RMAX=   4.1e-08 => CONVERGED
PASS-2: Formation of Pair natural orbitals
   .... Finished loop over pairs

 PNO Occupation Number Statistics: 
  | Av. % of trace(Dij) retained        ...  99.837139512042
  | sigma^2 in % of trace(Dij) retained ...   7.15e-02
  | Av. % of trace(Di) retained         ...  99.999897570856
  | sigma^2 in % of trace(Di) retained  ...   1.66e-09
 Distributions of % trace(Dij) recovered:
  |       >= 99.9  ...    54 ( 69.2 % of all pairs)
  |   [90.0, 99.0) ...     3 (  3.8 % of all pairs)
  |   [99.0, 99.9) ...    21 ( 26.9 % of all pairs)
 Distributions of % trace(Di) recovered :
  |       >= 99.9  ...    12 (100.0 % of all I-pairs )

Making pair pair interaction lists          ... done

                       ===========================
                         78 OF   78 PAIRS ARE KEPT
                       ===========================

Total time spent in the initial guess                 ...     0.775 sec
L-MP2 correlation energy (all non-screened pairs)     ...      -0.596754077217 Eh
L-MP2 PNO error correction                            ...      -0.000001327516 Eh
                                                          --------------------
Initial total L-MP2 energy (non-screened pairs)       ...      -0.596755404734 Eh

Initial PNO correlation energy                        ...      -0.596627887631 Eh
sum of pair energies estimated for screened out pairs ...       0.000000000000 Eh
sum of MP2 pair energies for pairs that were not kept ...       0.000000000000 Eh
sum of PNO error estimates for the kept pairs         ...      -0.000127517102 Eh
                                                          --------------------
sum of all corrections                                         -0.000127517102
Initial total correlation energy                               -0.596755404734
Thresholds for map construction and integral transformation for fine MP2 and CCSD(T) calculation:
   TCutMKN   ...     1.0e-03
   TCutDO    ...     5.0e-03
   TCutPairs ...     1.0e-05
   TCutCMO   ...     1.0e-03
   TCutCPAO  ...     1.0e-03

Time for aux screen maps:            0.001
Time for maps after fine MP2:            0.002
-----------------------------
LOCAL RI TRANSFORMATION (IJV)
-----------------------------

Orbital window:       4 to 15
Basis functions:     86 (42 shells)
Aux. functions:     308 (108 shells)

Processing maps (0.0 sec)
Average map sizes:
   Aux shells -> MOs(i)           12.0
   Aux shells -> MOs(j)           12.0
   MOs        -> AO shells        42.0

Calculating integrals (0.2 sec, 0.342 MB)
Sorting integrals (0.0 sec, 0.339 MB)
Total time for the integral transformation: 0.2 sec
--------------------------------
LOCAL RI TRANSFORMATION (VABPAO)
--------------------------------

Number of PAOs:      86
Basis functions:     86 (42 shells)
Aux. functions:     308 (108 shells)

Processing maps (0.0 sec)
Average map sizes:
   Aux shells -> PAOs             86.0
   PAOs       -> AO shells        42.0

Calculating integrals (0.3 sec, 30.872 MB)
Finished


-------------------------------------
Pair Pair Term precalculation with     
RI-(ij|mn) and (im|jn) transformation  
ON THE FLY                             
-------------------------------------

   IBatch   1 (of   1)              ... done (    2.538 sec)
Total EXT                           ...           2.538 sec

---------------------
RI-PNO TRANSFORMATION
---------------------

Total Number of PNOs                   ...  2291
Average number of PNOs per pair        ...    29
Maximal number of PNOs per pair        ...    42
   #pairs with  1 -  5 PNOs   :    0
   #pairs with  6 - 10 PNOs   :    0
   #pairs with 11 - 15 PNOs   :    1
   #pairs with 16 - 20 PNOs   :    7
   #pairs with 21 - 25 PNOs   :   18
   #pairs with 26 - 30 PNOs   :   14
   #pairs with 31 - 35 PNOs   :   24
   #pairs with 36 - 40 PNOs   :   12
   #pairs with 41 - 45 PNOs   :    2
   #pairs with 46 - 50 PNOs   :    0

Generation of (ij|ab)[P] integrals            ... on
Generation of (ia|bc)[P],(ja|bc)[P] integrals ... on
Storage of 3 and 4 external integrals         ... on
Generation of ALL (ka|bc)[P] integrals        ... on
Keep RI integrals in memory                   ... off

Ibatch:  1 (of  1)
Starting 2-4 index PNO integral generation ... done

Timings:
Total PNO integral transformation time     ...          0.910 sec
Size of the 3-external file                ...        17 MB
Size of the 4-external file                ...        75 MB
Size of the IKJL file                      ...         0 MB
Size of the all 3-external file            ...       106 MB
Size of the 1-external file                ...         0 MB

Making pair/pair overlap matrices          ... done (    0.099 sec)
Size of the pair overlap file              ... 29 MB
Redoing the guess amplitudes               ... done (    0.001 sec)

-------------------------
FINAL STARTUP INFORMATION
-------------------------

E(0)                                       ...   -191.936837261
E(L-MP2)                                   ...     -0.596755405
E(L-MP2) including corrections             ...     -0.596755405
Initial E(tot)                             ...   -192.533592666
<T|T>                                      ...      0.173828242
Number of pairs included                   ... 78
Total number of pairs                      ... 78

------------------------------------------------
                  RHF COUPLED CLUSTER ITERATIONS
------------------------------------------------

Number of PNO amplitudes to be optimized   ...        70455
Number of non-PNO amplitudes               ...       382200
Untruncated number of regular amplitudes   ...       382200

Iter       E(tot)           E(Corr)          Delta-E          Residual     Time
  0   -192.511276550     -0.574311772      0.022443633      0.020564016    0.79
                           *** Turning on DIIS ***
  1   -192.551113209     -0.614148431     -0.039836659      0.013465448    0.79
  2   -192.571656985     -0.634692207     -0.020543777      0.007963479    0.78
  3   -192.575353172     -0.638388394     -0.003696187      0.004528813    0.79
  4   -192.576665115     -0.639700336     -0.001311943      0.002292511    0.78
  5   -192.577100470     -0.640135692     -0.000435356      0.000900579    0.78
  6   -192.577211657     -0.640246879     -0.000111186      0.000242401    0.79
  7   -192.577225289     -0.640260511     -0.000013632      0.000057435    0.79
  8   -192.577225672     -0.640260894     -0.000000383      0.000013450    0.79
  9   -192.577225114     -0.640260335      0.000000559      0.000003538    0.80
               --- The Coupled-Cluster iterations have converged ---

----------------------
COUPLED CLUSTER ENERGY
----------------------

E(0)                                       ...   -191.936837261
E(CORR)(strong-pairs)                      ...     -0.640260335
E(CORR)(weak-pairs)                        ...     -0.000127517
E(CORR)(corrected)                         ...     -0.640387852
E(TOT)                                     ...   -192.577225114
Singles Norm <S|S>**1/2                    ...      0.046445566  
T1 diagnostic                              ...      0.009480662  

------------------
LARGEST AMPLITUDES
------------------
   7-> 16   7-> 16       0.068832
   6-> 16   6-> 16       0.068831
   7-> 16   6-> 16       0.062975
   9-> 17   9-> 17       0.040824
  15-> 20  15-> 20       0.037277
  12-> 17  12-> 17       0.035757
  10-> 17  10-> 17       0.035571
  15-> 16  15-> 16       0.033192
  11-> 17  11-> 17       0.033029
  15-> 16  15-> 20       0.028494
  15-> 20  15-> 16       0.028494
  14-> 22  14-> 22       0.028361
  13-> 22  13-> 22       0.028359
   7-> 26   7-> 16       0.027223
   7-> 16   7-> 26       0.027223
   6-> 26   6-> 16       0.027223


-------------------------------------------
DLPNO BASED TRIPLES CORRECTION
-------------------------------------------

Singles multiplier          ...  1.000000
TCutTNO                     ... 1.000e-09
TCutMP2Pairs                ... 1.000e-06
TCutDOStrong                ... 1.000e-02
TCutMKNStrong               ... 1.000e-02
TCutDOWeak                  ... 2.000e-02
TCutMKNWeak                 ... 1.000e-01

Fragment selection                          .... not used
Number of Triples that are to be computed   ...       352

 . . . . . . . . .
10% done  
20% done  
30% done  
40% done  
50% done  
60% done  
70% done  
80% done  
90% done               (      3.828 sec)
Triples timings:
Total time for T0               ...     4.094 sec
Total time for Iterative (T)    ...     0.000 sec
Total time of overall (T)       ...     4.332 sec

Triples List generation         ...     0.000 sec
TNO generation                  ...     0.265 sec
Pair density generation         ...     0.001 sec
Look up tables                  ...     0.000 sec
Generating 3-index integrals    ...     1.488 sec
  Make 4-ind.int. from 3-ind.int...     0.985 sec
  Projecting amplitudes (D + S) ...     0.267 sec
  Downprojecting integrals      ...     0.000 sec
  Energy contr. (sum over a,b,c)...     0.345 sec
Fitting ET(->0)                 ...     0.000 sec

Everything after 3-index        ...     2.339 sec

Timing details:
 TNO integrals                  ...     2.341 sec
   Reading 3-index integrals    ...     0.006 sec
   Sorting integrals            ...     0.569 sec
       Sorting integrals 1      ...     0.000 sec
       Sorting integrals 2      ...     0.111 sec
       Sorting integrals 3      ...     0.032 sec
       Sorting integrals 4      ...     0.003 sec
       Sorting integrals 5      ...     0.008 sec
       Sorting integrals 6      ...     0.416 sec
   Calculating local VM**-1/2   ...     0.031 sec
   Orthogonal. integrals        ...     0.062 sec
   Multipl. 3-index integrals   ...     1.672 sec
   All concerning IRIab (w/TNO) ...     0.434 sec

 Calculate W0/W1                ...     0.741 sec
 W 3-ext contribution           ...     0.438 sec
 W 3-int contribution           ...     0.116 sec
 Sorting W                      ...     0.166 sec

 V exchange contribution        ...     0.150 sec

 Timings for Triples without generation
     of 3-index integrals       ...     2.339 sec
       0 weak pairs             ...     2.339 sec
       1 weak pair              ...     0.000 sec
       2 weak pairs             ...     0.000 sec
       3 weak pairs             ...     0.000 sec
  Extra time for extrapolation  ...     0.000 sec

Number of Triples   (0, 1, 2, 3 weak pairs; overall):    352       0       0       0  (   352)
Number of Atoms     (0, 1, 2, 3 weak pairs; overall):    9.9     0.0     0.0     0.0  (    10)
Number of PAOs      (0, 1, 2, 3 weak pairs; overall):   85.5     0.0     0.0     0.0  (    86)
Number of AuxFcns   (0, 1, 2, 3 weak pairs; overall):  194.7     0.0     0.0     0.0  (   308)
Number of TNOs      (0, 1, 2, 3 weak pairs         ):   55.5     0.0     0.0     0.0
Aver. Number of NTNO, Atoms, PAOs, AuxFcns / Triples:    352    55.5     9.9    85.5   194.7

Triples Correction (T)                     ...     -0.018138567
Final correlation energy                   ...     -0.658526420
E(CCSD)                                    ...   -192.577225114
E(CCSD(T))                                 ...   -192.595363681


Maximum memory used throughout the entire calculation: 1012.1 MB


------------------------------------------------------------------------------- 
                                     TIMINGS                                   
------------------------------------------------------------------------------- 


Total execution time                   ...       19.160 sec

Localization of occupied MO's          ...        0.363 sec (  1.9%)
Fock Matrix Formation                  ...        0.531 sec (  2.8%)
Global overlap, Fock, MKN matrices     ...        0.108 sec (  0.6%)
Differential overlap integrals         ...        0.045 sec (  0.2%)
Organizing maps                        ...        0.006 sec (  0.0%)
RI 3-index integral generations        ...        1.011 sec (  5.3%)
RI-PNO integral transformation         ...        3.837 sec ( 20.0%)
Initial Guess                          ...        0.862 sec (  4.5%)
DIIS Solver                            ...        0.202 sec (  1.1%)
State Vector Update                    ...        0.005 sec (  0.0%)
Sigma-vector construction              ...        7.828 sec ( 40.9%)
  <D|H|D>(0-ext)                       ...        0.397 sec (  5.1% of sigma)
  <D|H|D>(2-ext Fock)                  ...        0.005 sec (  0.1% of sigma)
  <D|H|D>(2-ext)                       ...        0.782 sec ( 10.0% of sigma)
  <D|H|D>(4-ext)                       ...        0.914 sec ( 11.7% of sigma)
  <D|H|D>(4-ext-corr)                  ...        3.533 sec ( 45.1% of sigma)
  CCSD doubles correction              ...        0.047 sec (  0.6% of sigma)
  <S|H|S>                              ...        0.056 sec (  0.7% of sigma)
  <S|H|D>(1-ext)                       ...        0.069 sec (  0.9% of sigma)
  <D|H|S>(1-ext)                       ...        0.003 sec (  0.0% of sigma)
  <S|H|D>(3-ext)                       ...        0.070 sec (  0.9% of sigma)
  Fock-dressing                        ...        1.119 sec ( 14.3% of sigma)
  Singles amplitudes                   ...        0.053 sec (  0.7% of sigma)
  (ik|jl)-dressing                     ...        0.285 sec (  3.6% of sigma)
  (ij|ab),(ia|jb)-dressing             ...        0.423 sec (  5.4% of sigma)
  Pair energies                        ...        0.002 sec (  0.0% of sigma)
Total Time for computing (T)           ...        4.344 sec ( 22.7% of ALL)


-------------------------   --------------------
FINAL SINGLE POINT ENERGY      -192.595363680897
-------------------------   --------------------


                            ***************************************
                            *     ORCA property calculations      *
                            ***************************************

                                    ---------------------
                                    Active property flags
                                    ---------------------
   (+) Dipole Moment


------------------------------------------------------------------------------
                       ORCA ELECTRIC PROPERTIES CALCULATION
------------------------------------------------------------------------------

Dipole Moment Calculation                       ... on
Quadrupole Moment Calculation                   ... off
Polarizability Calculation                      ... off
GBWName                                         ... propen_3_ol_syn_a.gbw
Electron density file                           ... propen_3_ol_syn_a.scfp.tmp
The origin for moment calculation is the CENTER OF MASS  = ( 0.018264, -0.042742 -0.000008)

-------------
DIPOLE MOMENT
-------------
                                X             Y             Z
Electronic contribution:      1.06080      -0.80657      -0.00012
Nuclear contribution   :     -0.58448       1.36785       0.00027
                        -----------------------------------------
Total Dipole Moment    :      0.47632       0.56127       0.00015
                        -----------------------------------------
Magnitude (a.u.)       :      0.73614
Magnitude (Debye)      :      1.87113



--------------------
Rotational spectrum 
--------------------
 
Rotational constants in cm-1:     0.571711     0.198345     0.151444 
Rotational constants in MHz : 17139.477587  5946.231781  4540.172370 

 Dipole components along the rotational axes: 
x,y,z [a.u.] :    -0.455908     0.577974     0.000145 
x,y,z [Debye]:    -1.158826     1.469093     0.000368 

 

Timings for individual modules:

Sum of individual times         ...       21.595 sec (=   0.360 min)
GTO integral calculation        ...        0.329 sec (=   0.005 min)   1.5 %
SCF iterations                  ...        1.992 sec (=   0.033 min)   9.2 %
MDCI module                     ...       19.274 sec (=   0.321 min)  89.3 %
                             ****ORCA TERMINATED NORMALLY****
TOTAL RUN TIME: 0 days 0 hours 0 minutes 21 seconds 811 msec
propen_3_ol_syn_a.gbw -> /home1/pantazis/klk/VDZ/Oxygen_compounds/propen_3_ol_syn_a.gbw
propen_3_ol_syn_a.ges -> /home1/pantazis/klk/VDZ/Oxygen_compounds/propen_3_ol_syn_a.ges
propen_3_ol_syn_a.job -> /home1/pantazis/klk/VDZ/Oxygen_compounds/propen_3_ol_syn_a.job
propen_3_ol_syn_a.loc -> /home1/pantazis/klk/VDZ/Oxygen_compounds/propen_3_ol_syn_a.loc
propen_3_ol_syn_a.nodes -> /home1/pantazis/klk/VDZ/Oxygen_compounds/propen_3_ol_syn_a.nodes
propen_3_ol_syn_a.prop -> /home1/pantazis/klk/VDZ/Oxygen_compounds/propen_3_ol_syn_a.prop
propen_3_ol_syn_a_property.txt -> /home1/pantazis/klk/VDZ/Oxygen_compounds/propen_3_ol_syn_a_property.txt
propen_3_ol_syn_a.xyz -> /home1/pantazis/klk/VDZ/Oxygen_compounds/propen_3_ol_syn_a.xyz
cp: cannot stat propen_3_ol_syn_a.asa.inp: No such file or directory
