! Job execution by suborca V 6.07 on ZEUS !
Job started from zeus1, running /scratch/pantazis/TMH_a__yo2xPZ/orca/orca copied from /opt/orca on zeussn122 in /scratch/pantazis/TMH_a__yo2xPZ
Job execution start: Sat Jun 29 11:11:51 CEST 2019
Shared library path: /scratch/pantazis/TMH_a__yo2xPZ/orca:/opt/openmpi_1.10.2/lib:/opt/intel/mkl/lib/intel64:/opt/intel/lib/intel64:
PBS Job ID is: 158798.icqc
izeussn122
izeussn122
izeussn122
izeussn122

                                 *****************
                                 * O   R   C   A *
                                 *****************

           --- An Ab Initio, DFT and Semiempirical electronic structure package ---

                  #######################################################
                  #                        -***-                        #
                  #          Department of theory and spectroscopy      #
                  #               Directorship: Frank Neese             #
                  #        Max Planck Institute fuer Kohlenforschung    #
                  #                Kaiser Wilhelm Platz 1               #
                  #                 D-45470 Muelheim/Ruhr               #
                  #                      Germany                        #
                  #                                                     #
                  #                  All rights reserved                #
                  #                        -***-                        #
                  #######################################################


                         Program Version 4.1.x  -  STABLE  -
                                (SVN: $Rev: 14094$)
                ($Date: 2019-06-14 15:01:15 +0200 (Fri, 14 Jun 2019) $)

                         (BUILD: $Sun Jun 23 06:18:31 CEST 2019$)


 With contributions from (in alphabetic order):
   Daniel Aravena         : Magnetic Properties
   Michael Atanasov       : Ab Initio Ligand Field Theory
   Alexander A. Auer      : GIAO ZORA
   Ute Becker             : Parallelization
   Giovanni Bistoni       : ED, Open-shell LED
   Martin Brehm           : Molecular dynamics
   Dmytro Bykov           : SCF Hessian
   Vijay G. Chilkuri      : MRCI spin determinant printing
   Dipayan Datta          : RHF DLPNO-CCSD density
   Achintya Kumar Dutta   : EOM-CC, STEOM-CC
   Dmitry Ganyushin       : Spin-Orbit,Spin-Spin,Magnetic field MRCI
   Miquel Garcia          : C-PCM Hessian
   Yang Guo               : DLPNO-NEVPT2, CIM, IAO-localization
   Andreas Hansen         : Spin unrestricted coupled pair/coupled cluster methods
   Benjamin Helmich-Paris : CASSCF linear response (MC-RPA)
   Lee Huntington         : MR-EOM, pCC
   Robert Izsak           : Overlap fitted RIJCOSX, COSX-SCS-MP3, EOM
   Christian Kollmar      : KDIIS, OOCD, Brueckner-CCSD(T), CCSD density
   Simone Kossmann        : Meta GGA functionals, TD-DFT gradient, OOMP2, MP2 Hessian
   Martin Krupicka        : AUTO-CI
   Lucas Lang             : DCDCAS
   Dagmar Lenk            : GEPOL surface, SMD
   Dimitrios Liakos       : Extrapolation schemes; parallel MDCI
   Dimitrios Manganas     : ROCIS; embedding schemes
   Dimitrios Pantazis     : SARC Basis sets
   Taras Petrenko         : DFT Hessian,TD-DFT gradient, ASA, ECA, R-Raman, ABS, FL, XAS/XES, NRVS
   Peter Pinski           : DLPNO-MP2, DLPNO-MP2 Gradient
   Christoph Reimann      : Effective Core Potentials
   Marius Retegan         : Local ZFS, SOC
   Christoph Riplinger    : Optimizer, TS searches, QM/MM, DLPNO-CCSD(T), (RO)-DLPNO pert. Triples
   Tobias Risthaus        : Range-separated hybrids, TD-DFT gradient, RPA, STAB
   Michael Roemelt        : Restricted open shell CIS
   Masaaki Saitow         : Open-shell DLPNO
   Barbara Sandhoefer     : DKH picture change effects
   Avijit Sen             : IP-ROCIS
   Kantharuban Sivalingam : CASSCF convergence, NEVPT2, FIC-MRCI
   Bernardo de Souza      : ESD, SOC TD-DFT
   Georgi Stoychev        : AutoAux, RI-MP2 NMR
   Willem Van den Heuvel  : Paramagnetic NMR
   Boris Wezisla          : Elementary symmetry handling
   Frank Wennmohs         : Technical directorship


 We gratefully acknowledge several colleagues who have allowed us to
 interface, adapt or use parts of their codes:
   Stefan Grimme, W. Hujo, H. Kruse,             : VdW corrections, initial TS optimization,
                  C. Bannwarth                     DFT functionals, gCP, sTDA/sTD-DF
   Ed Valeev                                     : LibInt (2-el integral package), F12 methods
   Garnet Chan, S. Sharma, J. Yang, R. Olivares  : DMRG
   Ulf Ekstrom                                   : XCFun DFT Library
   Mihaly Kallay                                 : mrcc  (arbitrary order and MRCC methods)
   Andreas Klamt, Michael Diedenhofen            : otool_cosmo (COSMO solvation model)
   Jiri Pittner, Ondrej Demel                    : Mk-CCSD
   Frank Weinhold                                : gennbo (NPA and NBO analysis)
   Christopher J. Cramer and Donald G. Truhlar   : smd solvation model
   Lars Goerigk                                  : TD-DFT with DH, B97 family of functionals
   V. Asgeirsson, H. Jonsson                     : NEB implementation
   FAccTs GmbH                                   : IRC, NEB, NEB-TS, Multilevel


 Your calculation uses the libint2 library for the computation of 2-el integrals
 For citations please refer to: http://libint.valeyev.net

 This ORCA versions uses:
   CBLAS   interface :  Fast vector & matrix operations
   LAPACKE interface :  Fast linear algebra routines
   SCALAPACK package :  Parallel linear algebra routines




***************************************
The coordinates will be read from file: TMH_a.xyz
***************************************


----- Orbital basis set information -----
Your calculation utilizes the basis: cc-pVDZ 
       H, B-Ne : Obtained from the ccRepo (grant-hill.group.shef.ac.uk/ccrepo) Feb. 2017
                 T. H. Dunning, Jr., J. Chem. Phys. 90, 1007 (1989)
            He : Obtained from the ccRepo (grant-hill.group.shef.ac.uk/ccrepo) Feb. 2017
                 D. E. Woon, T. H. Dunning, Jr., J. Chem. Phys. 100, 2975 (1994)
  Li-Be, Na-Mg : Obtained from the ccRepo (grant-hill.group.shef.ac.uk/ccrepo) Feb. 2017
                 B. P. Prascher, D. E. Woon, K. A. Peterson, T. H. Dunning, Jr., A. K. Wilson, Theor. Chem. Acc. 128, 69 (2011)
         Al-Ar : Obtained from the ccRepo (grant-hill.group.shef.ac.uk/ccrepo) Feb. 2017
                 D. E. Woon, T. H. Dunning, Jr., J. Chem. Phys. 98, 1358 (1993)
            Ca : Obtained from the Peterson Research Group Website (tyr0.chem.wsu.edu/~kipeters) Feb. 2017
                 J. Koput, K. A. Peterson, J. Phys. Chem. 106, 9595 (2002)
         Sc-Zn : Obtained from the ccRepo (grant-hill.group.shef.ac.uk/ccrepo) Feb. 2017
                 N. B. Balabanov, K. A. Peterson, J. Chem. Phys. 123, 064107 (2005)
                 N. B. Balabanov, K. A. Peterson, J. Chem. Phys. 125, 074110 (2006)
         Ga-Kr : Obtained from the ccRepo (grant-hill.group.shef.ac.uk/ccrepo) Feb. 2017
                 A. K. Wilson, D. E. Woon, K. A. Peterson, T. H. Dunning, Jr., J. Chem. Phys. 110, 7667 (1999)

----- AuxC basis set information -----
Your calculation utilizes the auxiliary basis: cc-pVDZ/C 
  H-He, B, Ne, Al-Ar, Ga-Br : Obtained from the EMSL Basis Set Exchange (bse.pnl.gov) Feb. 2017
                              F. Weigend, A. Kohn, C. Hattig, J. Chem. Phys. 116, 3175 (2002)
               Li-Be, Na-Mg : Obtained from the EMSL Basis Set Exchange (bse.pnl.gov) Feb. 2017
                              C. Haettig, Phys. Chem. Chem. Phys. 7, 59 (2005)
                        C-F : Obtained from the EMSL Basis Set Exchange (bse.pnl.gov) Feb. 2017
                              C. Haettig, Phys. Chem. Chem. Phys. 7, 59 (2005)
                              F. Weigend, A. Kohn, C. Hattig, J. Chem. Phys. 116, 3175 (2002)
                         Kr : Obtained from the TURBOMOLE 7.0 basis set library
                              F. Weigend, A. Kohn, C. Hattig, J. Chem. Phys. 116, 3175 (2002)
                              S function revised in Sep. 2009

----- AuxJK basis set information -----
Your calculation utilizes the auxiliary basis: cc-pVTZ/JK 
  H, B-F, Al-Cl, Ga-Br : Obtained from the TURBOMOLE 7.0 basis set library

================================================================================
                                        WARNINGS
                       Please study these warnings very carefully!
================================================================================


WARNING: MDCI localization with Augmented Hessian Foster-Boys
  ===> : Switching off randomization!

WARNING: Post HF methods need fully converged wavefunctions
  ===> : Setting SCFConvForced true
         You can overwrite this default with %scf ConvForced false 


INFO   : the flag for use of LIBINT has been found!

================================================================================
                                       INPUT FILE
================================================================================
NAME = TMH_a.inp
|  1> ! RHF DLPNO-CCSD(T) cc-pVDZ RIJK cc-pVTZ/JK cc-pVDZ/C
|  2> ! KDIIS SOSCF TightSCF TightPNO
|  3> 
|  4> %pal nprocs 4 end
|  5> 
|  6> %maxcore 8000
|  7> 
|  8> %scf maxiter 300
|  9>      shift shift 0.2 erroff 0.1 end
| 10> end
| 11> 
| 12> * xyzfile 0 1 TMH_a.xyz 
| 13> 
| 14> 
| 15>                          ****END OF INPUT****
================================================================================

                       ****************************
                       * Single Point Calculation *
                       ****************************

---------------------------------
CARTESIAN COORDINATES (ANGSTROEM)
---------------------------------
  C      3.278470    0.357670    0.060010
  C      1.820480    0.771450   -0.197340
  C      0.730390   -0.331680   -0.017770
  C      0.985460   -1.089380    1.307290
  C     -0.730400    0.331680   -0.017770
  C     -0.877160    1.349080   -1.175360
  C      0.877180   -1.349060   -1.175370
  C     -1.820500   -0.771450   -0.197370
  C     -3.278480   -0.357680    0.060000
  C     -0.985460    1.089350    1.307320
  H      3.946260    1.194990   -0.171340
  H      3.452620    0.083040    1.105040
  H      3.592510   -0.486190   -0.563610
  H      1.594820    1.615480    0.465150
  H      1.754760    1.162080   -1.219380
  H     -1.754780   -1.162050   -1.219410
  H     -1.594830   -1.615500    0.465100
  H     -3.946280   -1.194980   -0.171390
  H     -3.452630   -0.083080    1.105040
  H     -3.592530    0.486220   -0.563580
  H      0.253490   -2.234740   -1.024150
  H      0.615100   -0.913290   -2.145360
  H      1.911970   -1.698880   -1.245270
  H      0.170070   -1.778720    1.547280
  H      1.897570   -1.689890    1.234890
  H      1.108480   -0.408890    2.155840
  H     -1.897570    1.689870    1.234930
  H     -1.108460    0.408840    2.155850
  H     -0.170060    1.778680    1.547320
  H     -1.911930    1.698940   -1.245280
  H     -0.253450    2.234750   -1.024120
  H     -0.615070    0.913330   -2.145350

----------------------------
CARTESIAN COORDINATES (A.U.)
----------------------------
  NO LB      ZA    FRAG     MASS         X           Y           Z
   0 C     6.0000    0    12.011    6.195410    0.675898    0.113402
   1 C     6.0000    0    12.011    3.440209    1.457829   -0.372919
   2 C     6.0000    0    12.011    1.380237   -0.626784   -0.033580
   3 C     6.0000    0    12.011    1.862250   -2.058630    2.470420
   4 C     6.0000    0    12.011   -1.380256    0.626784   -0.033580
   5 C     6.0000    0    12.011   -1.657592    2.549392   -2.221109
   6 C     6.0000    0    12.011    1.657630   -2.549354   -2.221127
   7 C     6.0000    0    12.011   -3.440246   -1.457829   -0.372975
   8 C     6.0000    0    12.011   -6.195429   -0.675917    0.113384
   9 C     6.0000    0    12.011   -1.862250    2.058573    2.470477
  10 H     1.0000    0     1.008    7.457351    2.258204   -0.323786
  11 H     1.0000    0     1.008    6.524506    0.156923    2.088223
  12 H     1.0000    0     1.008    6.788860   -0.918766   -1.065069
  13 H     1.0000    0     1.008    3.013773    3.052815    0.879006
  14 H     1.0000    0     1.008    3.316016    2.196013   -2.304294
  15 H     1.0000    0     1.008   -3.316054   -2.195956   -2.304351
  16 H     1.0000    0     1.008   -3.013792   -3.052853    0.878912
  17 H     1.0000    0     1.008   -7.457388   -2.258185   -0.323880
  18 H     1.0000    0     1.008   -6.524525   -0.156998    2.088223
  19 H     1.0000    0     1.008   -6.788898    0.918823   -1.065012
  20 H     1.0000    0     1.008    0.479027   -4.223047   -1.935363
  21 H     1.0000    0     1.008    1.162371   -1.725868   -4.054143
  22 H     1.0000    0     1.008    3.613100   -3.210418   -2.353219
  23 H     1.0000    0     1.008    0.321386   -3.361294    2.923935
  24 H     1.0000    0     1.008    3.585888   -3.193429    2.333604
  25 H     1.0000    0     1.008    2.094724   -0.772690    4.073947
  26 H     1.0000    0     1.008   -3.585888    3.193392    2.333679
  27 H     1.0000    0     1.008   -2.094686    0.772596    4.073966
  28 H     1.0000    0     1.008   -0.321367    3.361218    2.924011
  29 H     1.0000    0     1.008   -3.613024    3.210531   -2.353238
  30 H     1.0000    0     1.008   -0.478951    4.223065   -1.935306
  31 H     1.0000    0     1.008   -1.162314    1.725944   -4.054124

--------------------------------
INTERNAL COORDINATES (ANGSTROEM)
--------------------------------
 C      0   0   0     0.000000000000     0.00000000     0.00000000
 C      1   0   0     1.537263071501     0.00000000     0.00000000
 C      2   1   0     1.561229448191   116.92201548     0.00000000
 C      3   2   1     1.547563891573   109.22907849    46.40097899
 C      3   2   1     1.604354672041   110.09593754   168.08005351
 C      5   3   2     1.548113647540   110.98026209    46.17491821
 C      3   2   1     1.548110825652   108.18797339   289.51490512
 C      5   3   2     1.561239881280   110.09615327   165.92895697
 C      8   5   3     1.537254243839   116.92207910   168.07893871
 C      5   3   2     1.547573242402   110.64006110   286.76415274
 H      1   2   3     1.095705749278   109.69377653   175.78412762
 H      1   2   3     1.094457655782   112.22862939   294.88497489
 H      1   2   3     1.095272900057   112.58172804    56.65193629
 H      2   1   3     1.096449760181   107.53250124   123.32673286
 H      2   1   3     1.096118915492   107.99196276   237.38764663
 H      8   5   3     1.096108224584   108.49293829   290.43245250
 H      8   5   3     1.096455130090   109.31170754    45.66985685
 H      9   8   5     1.095705006879   109.69425607   175.78298641
 H      9   8   5     1.094459676781   112.22896244   294.88507761
 H      9   8   5     1.095283812032   112.58226779    56.65088977
 H      7   3   2     1.093748493439   112.00617034   170.70494044
 H      7   3   2     1.095199534058   112.21535387   292.31425757
 H      7   3   2     1.094554880534   110.33004014    51.86914116
 H      4   3   2     1.094369995842   111.92325135   172.07339850
 H      4   3   2     1.094439889715   110.44844490   290.98808812
 H      4   3   2     1.094640426350   112.20288538    50.75818562
 H     10   5   3     1.094444715187   110.44791544   169.63892569
 H     10   5   3     1.094635108609   112.20278041   289.41032463
 H     10   5   3     1.094373340730   111.92296120    50.72452734
 H      6   5   3     1.094550034900   110.33139956   172.75683703
 H      6   5   3     1.093754565979   112.00606072   291.59223372
 H      6   5   3     1.095193969441   112.21573409    53.20080974

---------------------------
INTERNAL COORDINATES (A.U.)
---------------------------
 C      0   0   0     0.000000000000     0.00000000     0.00000000
 C      1   0   0     2.905006200927     0.00000000     0.00000000
 C      2   1   0     2.950296089295   116.92201548     0.00000000
 C      3   2   1     2.924471929818   109.22907849    46.40097899
 C      3   2   1     3.031790951835   110.09593754   168.08005351
 C      5   3   2     2.925510818037   110.98026209    46.17491821
 C      3   2   1     2.925505485440   108.18797339   289.51490512
 C      5   3   2     2.950315804975   110.09615327   165.92895697
 C      8   5   3     2.904989519063   116.92207910   168.07893871
 C      5   3   2     2.924489600325   110.64006110   286.76415274
 H      1   2   3     2.070583789498   109.69377653   175.78412762
 H      1   2   3     2.068225234602   112.22862939   294.88497489
 H      1   2   3     2.069765823014   112.58172804    56.65193629
 H      2   1   3     2.071989766345   107.53250124   123.32673286
 H      2   1   3     2.071364560491   107.99196276   237.38764663
 H      8   5   3     2.071344357602   108.49293829   290.43245250
 H      8   5   3     2.071999914003   109.31170754    45.66985685
 H      9   8   5     2.070582386568   109.69425607   175.78298641
 H      9   8   5     2.068229053736   112.22896244   294.88507761
 H      9   8   5     2.069786443658   112.58226779    56.65088977
 H      7   3   2     2.066885111989   112.00617034   170.70494044
 H      7   3   2     2.069627181367   112.21535387   292.31425757
 H      7   3   2     2.068408962755   110.33004014    51.86914116
 H      4   3   2     2.068059581323   111.92325135   172.07339850
 H      4   3   2     2.068191661601   110.44844490   290.98808812
 H      4   3   2     2.068570620921   112.20288538    50.75818562
 H     10   5   3     2.068200780420   110.44791544   169.63892569
 H     10   5   3     2.068560571847   112.20278041   289.41032463
 H     10   5   3     2.068065902244   111.92296120    50.72452734
 H      6   5   3     2.068399805835   110.33139956   172.75683703
 H      6   5   3     2.066896587426   112.00606072   291.59223372
 H      6   5   3     2.069616665766   112.21573409    53.20080974

---------------------
BASIS SET INFORMATION
---------------------
There are 2 groups of distinct atoms

 Group   1 Type C   : 17s4p1d contracted to 3s2p1d pattern {881/31/1}
 Group   2 Type H   : 4s1p contracted to 2s1p pattern {31/1}

Atom   0C    basis set group =>   1
Atom   1C    basis set group =>   1
Atom   2C    basis set group =>   1
Atom   3C    basis set group =>   1
Atom   4C    basis set group =>   1
Atom   5C    basis set group =>   1
Atom   6C    basis set group =>   1
Atom   7C    basis set group =>   1
Atom   8C    basis set group =>   1
Atom   9C    basis set group =>   1
Atom  10H    basis set group =>   2
Atom  11H    basis set group =>   2
Atom  12H    basis set group =>   2
Atom  13H    basis set group =>   2
Atom  14H    basis set group =>   2
Atom  15H    basis set group =>   2
Atom  16H    basis set group =>   2
Atom  17H    basis set group =>   2
Atom  18H    basis set group =>   2
Atom  19H    basis set group =>   2
Atom  20H    basis set group =>   2
Atom  21H    basis set group =>   2
Atom  22H    basis set group =>   2
Atom  23H    basis set group =>   2
Atom  24H    basis set group =>   2
Atom  25H    basis set group =>   2
Atom  26H    basis set group =>   2
Atom  27H    basis set group =>   2
Atom  28H    basis set group =>   2
Atom  29H    basis set group =>   2
Atom  30H    basis set group =>   2
Atom  31H    basis set group =>   2
-------------------------------
AUXILIARY BASIS SET INFORMATION
-------------------------------
There are 2 groups of distinct atoms

 Group   1 Type C   : 7s5p4d2f contracted to 7s5p4d2f pattern {1111111/11111/1111/11}
 Group   2 Type H   : 3s2p1d contracted to 3s2p1d pattern {111/11/1}

Atom   0C    basis set group =>   1
Atom   1C    basis set group =>   1
Atom   2C    basis set group =>   1
Atom   3C    basis set group =>   1
Atom   4C    basis set group =>   1
Atom   5C    basis set group =>   1
Atom   6C    basis set group =>   1
Atom   7C    basis set group =>   1
Atom   8C    basis set group =>   1
Atom   9C    basis set group =>   1
Atom  10H    basis set group =>   2
Atom  11H    basis set group =>   2
Atom  12H    basis set group =>   2
Atom  13H    basis set group =>   2
Atom  14H    basis set group =>   2
Atom  15H    basis set group =>   2
Atom  16H    basis set group =>   2
Atom  17H    basis set group =>   2
Atom  18H    basis set group =>   2
Atom  19H    basis set group =>   2
Atom  20H    basis set group =>   2
Atom  21H    basis set group =>   2
Atom  22H    basis set group =>   2
Atom  23H    basis set group =>   2
Atom  24H    basis set group =>   2
Atom  25H    basis set group =>   2
Atom  26H    basis set group =>   2
Atom  27H    basis set group =>   2
Atom  28H    basis set group =>   2
Atom  29H    basis set group =>   2
Atom  30H    basis set group =>   2
Atom  31H    basis set group =>   2
-------------------------------
AUXILIARY BASIS SET INFORMATION
-------------------------------
There are 2 groups of distinct atoms

 Group   1 Type C   : 10s7p5d2f1g contracted to 10s7p5d2f1g pattern {1111111111/1111111/11111/11/1}
 Group   2 Type H   : 4s3p2d1f contracted to 4s3p2d1f pattern {1111/111/11/1}

Atom   0C    basis set group =>   1
Atom   1C    basis set group =>   1
Atom   2C    basis set group =>   1
Atom   3C    basis set group =>   1
Atom   4C    basis set group =>   1
Atom   5C    basis set group =>   1
Atom   6C    basis set group =>   1
Atom   7C    basis set group =>   1
Atom   8C    basis set group =>   1
Atom   9C    basis set group =>   1
Atom  10H    basis set group =>   2
Atom  11H    basis set group =>   2
Atom  12H    basis set group =>   2
Atom  13H    basis set group =>   2
Atom  14H    basis set group =>   2
Atom  15H    basis set group =>   2
Atom  16H    basis set group =>   2
Atom  17H    basis set group =>   2
Atom  18H    basis set group =>   2
Atom  19H    basis set group =>   2
Atom  20H    basis set group =>   2
Atom  21H    basis set group =>   2
Atom  22H    basis set group =>   2
Atom  23H    basis set group =>   2
Atom  24H    basis set group =>   2
Atom  25H    basis set group =>   2
Atom  26H    basis set group =>   2
Atom  27H    basis set group =>   2
Atom  28H    basis set group =>   2
Atom  29H    basis set group =>   2
Atom  30H    basis set group =>   2
Atom  31H    basis set group =>   2

Checking for AutoStart:
The File: TMH_a.gbw exists
Trying to determine its content:
     ... Fine, the file contains calculation information
     ... Fine, the calculation information was read
     ... Fine, the file contains a basis set
     ... Fine, the basis set was read
     ... Fine, the file contains a geometry
     ... Fine, the geometry was read
     ... Fine, the file contains a set of orbitals
     ... Fine, the orbitals can be read
     => possible old guess file was deleted
     => GBW file was renamed to GES file
     => GES file is set as startup file
     => Guess is set to MORead
     ... now leaving AutoStart



           ************************************************************
           *        Program running with 4 parallel MPI-processes     *
           *              working on a common directory               *
           ************************************************************
------------------------------------------------------------------------------
                           ORCA GTO INTEGRAL CALCULATION
                           -- RI-GTO INTEGRALS CHOSEN --
------------------------------------------------------------------------------

                         BASIS SET STATISTICS AND STARTUP INFO

Gaussian basis set:
 # of primitive gaussian shells          ...  330
 # of primitive gaussian functions       ...  494
 # of contracted shells                  ...  126
 # of contracted basis functions         ...  250
 Highest angular momentum                ...    2
 Maximum contraction depth               ...    8
Auxiliary gaussian basis set:
 # of primitive gaussian shells          ...  470
 # of primitive gaussian functions       ... 1450
 # of contracted shells                  ...  470
 # of contracted aux-basis functions     ... 1450
 Highest angular momentum                ...    4
 Maximum contraction depth               ...    1
Ratio of auxiliary to basis functions    ...  5.80
Integral package used                  ... LIBINT
 One Electron integrals                  ... done
 Ordering auxiliary basis shells         ... done
 Integral threshhold             Thresh  ...  2.500e-11
 Primitive cut-off               TCut    ...  2.500e-12
 Pre-screening matrix                    ... done
 Shell pair data                         ... 
 Ordering of the shell pairs             ... done (   0.001 sec) 7701 of 8001 pairs
 Determination of significant pairs      ... done (   0.000 sec)
 Creation of shell pair data             ... done (   0.003 sec)
 Storage of shell pair data              ... done (   0.003 sec)
 Shell pair data done in (   0.008 sec)
 Computing two index integrals           ... done
 Cholesky decomposition of the V-matrix  ... done


Timings:
 Total evaluation time                   ...  42.193 sec (  0.703 min)
 One electron matrix time                ...  41.504 sec (  0.692 min) = 98.4%
 Schwartz matrix evaluation time         ...   0.240 sec (  0.004 min) =  0.6%
 Two index repulsion integral time       ...   0.181 sec (  0.003 min) =  0.4%
 Cholesky decomposition of V             ...   0.234 sec (  0.004 min) =  0.6%
 Three index repulsion integral time     ...   0.000 sec (  0.000 min) =  0.0%



           ************************************************************
           *        Program running with 4 parallel MPI-processes     *
           *              working on a common directory               *
           ************************************************************
-------------------------------------------------------------------------------
                                 ORCA SCF
-------------------------------------------------------------------------------

------------
SCF SETTINGS
------------
Hamiltonian:
 Ab initio Hamiltonian  Method          .... Hartree-Fock(GTOs)
 RI-approximation to the Coulomb term is turned on
   Number of auxiliary basis functions  .... 1450
   RI-JK (J+K treated both via RI)      .... on


General Settings:
 Integral files         IntName         .... TMH_a
 Hartree-Fock type      HFTyp           .... RHF
 Total Charge           Charge          ....    0
 Multiplicity           Mult            ....    1
 Number of Electrons    NEL             ....   82
 Basis Dimension        Dim             ....  250
 Nuclear Repulsion      ENuc            ....    615.3416979746 Eh

Convergence Acceleration:
 DIIS                   CNVDIIS         .... off
 Newton-Raphson         CNVNR           .... off
 SOSCF                  CNVSOSCF        .... on
   Start iteration      SOSCFMaxIt      ....   150
   Startup grad/error   SOSCFStart      ....  0.003300
 Level Shifting         CNVShift        .... on
   Level shift para.    LevelShift      ....    0.2000
   Turn off err/grad.   ShiftErr        ....    0.1000
 Zerner damping         CNVZerner       .... off
 Static damping         CNVDamp         .... off
 Fernandez-Rico         CNVRico         .... off

SCF Procedure:
 Maximum # iterations   MaxIter         ....   300
 SCF integral mode      SCFMode         .... Direct
   Integral package                     .... LIBINT
 Reset frequency        DirectResetFreq ....    20
 Integral Threshold     Thresh          ....  2.500e-11 Eh
 Primitive CutOff       TCut            ....  2.500e-12 Eh

Convergence Tolerance:
 Convergence Check Mode ConvCheckMode   .... Total+1el-Energy
 Convergence forced     ConvForced      .... 1
 Energy Change          TolE            ....  1.000e-08 Eh
 1-El. energy change                    ....  1.000e-05 Eh
 Orbital Gradient       TolG            ....  1.000e-05
 Orbital Rotation angle TolX            ....  1.000e-05


Diagonalization of the overlap matrix:
Smallest eigenvalue                        ... 1.879e-03
Time for diagonalization                   ...    0.013 sec
Threshold for overlap eigenvalues          ... 1.000e-08
Number of eigenvalues below threshold      ... 0
Time for construction of square roots      ...    0.029 sec
Total time needed                          ...    0.043 sec

---------------------
INITIAL GUESS: MOREAD
---------------------
Guess MOs are being read from file: TMH_a.ges
Input Geometry matches current geometry (good)
Atom 0: N(Shells)= 6 and 10 - projection required
Input basis set needs projection
NBasis(read)= 608
NBasis(calc)= 250
Basis set overlap was calculated
Using GuessMode=FMatrix for the initial guess
C*T matrix was formed
Effective Fockian was calculated
Effective Fockian was diagonalized
Initial density was built
                      ------------------
                      INITIAL GUESS DONE (   0.1 sec)
                      ------------------
--------------
SCF ITERATIONS
--------------
ITER       Energy         Delta-E        Max-DP      RMS-DP      [F,P]   Gradient Norm
                             ****Turning on KDIIS(Cayley)****
  0   -391.5040033996   0.000000000000 0.00541584  0.00006061  0.0044091   0.005593281
  1   -391.5041786094  -0.000175209816 0.00980054  0.00011306  0.0040015   0.005085708
                      *** Initiating the SOSCF procedure ***
                           *** Shutting down KDIIS ***
                      *** Re-Reading the Fockian *** 
                      *** Removing any level shift *** 
ITER      Energy       Delta-E        Grad      Rot      Max-DP    RMS-DP
  2   -391.50448225  -0.0003036424  0.003203  0.003203  0.015128  0.000179
  3   -391.50483339  -0.0003511350  0.001920  0.000529  0.021333  0.000256
  4   -391.50502751  -0.0001941274  0.000157  0.000114  0.000651  0.000020
  5   -391.50503156  -0.0000040465  0.000034  0.000032  0.000322  0.000004
  6   -391.50503168  -0.0000001150  0.000017  0.000013  0.000062  0.000001
                  ***Gradient check signals convergence***
              ***Rediagonalizing the Fockian in SOSCF/NRSCF***

               *****************************************************
               *                     SUCCESS                       *
               *           SCF CONVERGED AFTER   7 CYCLES          *
               *****************************************************


----------------
TOTAL SCF ENERGY
----------------

Total Energy       :         -391.50503169 Eh          -10653.39352 eV

Components:
Nuclear Repulsion  :          615.34169797 Eh           16744.29887 eV
Electronic Energy  :        -1006.84672966 Eh          -27397.69239 eV
One Electron Energy:        -1749.09847844 Eh          -47595.38930 eV
Two Electron Energy:          742.25174878 Eh           20197.69692 eV

Virial components:
Potential Energy   :         -782.35577478 Eh          -21288.98294 eV
Kinetic Energy     :          390.85074309 Eh           10635.58942 eV
Virial Ratio       :            2.00167401


---------------
SCF CONVERGENCE
---------------

  Last Energy change         ...   -1.3441e-08  Tolerance :   1.0000e-08
  Last MAX-Density change    ...    1.0973e-05  Tolerance :   1.0000e-07
  Last RMS-Density change    ...    2.7677e-07  Tolerance :   5.0000e-09
  Last Orbital Gradient      ...    2.3385e-06  Tolerance :   1.0000e-05
  Last Orbital Rotation      ...    2.0464e-06  Tolerance :   1.0000e-05

             **** THE GBW FILE WAS UPDATED (TMH_a.gbw) ****
             **** DENSITY FILE WAS UPDATED (TMH_a.scfp.tmp) ****
             **** ENERGY FILE WAS UPDATED (TMH_a.en.tmp) ****
----------------
ORBITAL ENERGIES
----------------

  NO   OCC          E(Eh)            E(eV) 
   0   2.0000     -11.236062      -305.7488 
   1   2.0000     -11.235603      -305.7363 
   2   2.0000     -11.218367      -305.2673 
   3   2.0000     -11.218366      -305.2673 
   4   2.0000     -11.216487      -305.2161 
   5   2.0000     -11.216486      -305.2161 
   6   2.0000     -11.212715      -305.1135 
   7   2.0000     -11.212707      -305.1133 
   8   2.0000     -11.212312      -305.1025 
   9   2.0000     -11.212308      -305.1024 
  10   2.0000      -1.121542       -30.5187 
  11   2.0000      -1.051627       -28.6162 
  12   2.0000      -0.985304       -26.8115 
  13   2.0000      -0.980610       -26.6838 
  14   2.0000      -0.937505       -25.5108 
  15   2.0000      -0.909050       -24.7365 
  16   2.0000      -0.859086       -23.3769 
  17   2.0000      -0.858554       -23.3625 
  18   2.0000      -0.767324       -20.8799 
  19   2.0000      -0.688629       -18.7386 
  20   2.0000      -0.642081       -17.4719 
  21   2.0000      -0.620774       -16.8921 
  22   2.0000      -0.612182       -16.6583 
  23   2.0000      -0.601502       -16.3677 
  24   2.0000      -0.591802       -16.1037 
  25   2.0000      -0.567639       -15.4462 
  26   2.0000      -0.546135       -14.8611 
  27   2.0000      -0.532464       -14.4891 
  28   2.0000      -0.531464       -14.4619 
  29   2.0000      -0.526733       -14.3331 
  30   2.0000      -0.522122       -14.2077 
  31   2.0000      -0.509176       -13.8554 
  32   2.0000      -0.498557       -13.5664 
  33   2.0000      -0.495736       -13.4897 
  34   2.0000      -0.492484       -13.4012 
  35   2.0000      -0.480792       -13.0830 
  36   2.0000      -0.462315       -12.5802 
  37   2.0000      -0.460051       -12.5186 
  38   2.0000      -0.426494       -11.6055 
  39   2.0000      -0.415897       -11.3171 
  40   2.0000      -0.410660       -11.1746 
  41   0.0000       0.175449         4.7742 
  42   0.0000       0.195439         5.3182 
  43   0.0000       0.215751         5.8709 
  44   0.0000       0.219393         5.9700 
  45   0.0000       0.227755         6.1975 
  46   0.0000       0.233771         6.3612 
  47   0.0000       0.235852         6.4179 
  48   0.0000       0.253676         6.9029 
  49   0.0000       0.254678         6.9301 
  50   0.0000       0.259906         7.0724 
  51   0.0000       0.268534         7.3072 
  52   0.0000       0.271781         7.3955 
  53   0.0000       0.285178         7.7601 
  54   0.0000       0.292959         7.9718 
  55   0.0000       0.300705         8.1826 
  56   0.0000       0.306381         8.3370 
  57   0.0000       0.314045         8.5456 
  58   0.0000       0.331153         9.0111 
  59   0.0000       0.331862         9.0304 
  60   0.0000       0.343421         9.3450 
  61   0.0000       0.350939         9.5495 
  62   0.0000       0.355178         9.6649 
  63   0.0000       0.375019        10.2048 
  64   0.0000       0.375361        10.2141 
  65   0.0000       0.403220        10.9722 
  66   0.0000       0.406841        11.0707 
  67   0.0000       0.435894        11.8613 
  68   0.0000       0.437402        11.9023 
  69   0.0000       0.441276        12.0077 
  70   0.0000       0.461766        12.5653 
  71   0.0000       0.471240        12.8231 
  72   0.0000       0.569406        15.4943 
  73   0.0000       0.588899        16.0248 
  74   0.0000       0.589628        16.0446 
  75   0.0000       0.606801        16.5119 
  76   0.0000       0.607487        16.5306 
  77   0.0000       0.623064        16.9544 
  78   0.0000       0.624094        16.9825 
  79   0.0000       0.637208        17.3393 
  80   0.0000       0.653738        17.7891 
  81   0.0000       0.704592        19.1729 
  82   0.0000       0.729980        19.8638 
  83   0.0000       0.750797        20.4302 
  84   0.0000       0.760837        20.7034 
  85   0.0000       0.787353        21.4250 
  86   0.0000       0.799880        21.7658 
  87   0.0000       0.814636        22.1674 
  88   0.0000       0.825497        22.4629 
  89   0.0000       0.834882        22.7183 
  90   0.0000       0.849390        23.1131 
  91   0.0000       0.853655        23.2291 
  92   0.0000       0.857032        23.3210 
  93   0.0000       0.868829        23.6420 
  94   0.0000       0.876431        23.8489 
  95   0.0000       0.880088        23.9484 
  96   0.0000       0.888131        24.1673 
  97   0.0000       0.891452        24.2576 
  98   0.0000       0.893427        24.3114 
  99   0.0000       0.902931        24.5700 
 100   0.0000       0.904885        24.6232 
 101   0.0000       0.907407        24.6918 
 102   0.0000       0.917246        24.9595 
 103   0.0000       0.921503        25.0754 
 104   0.0000       0.922278        25.0965 
 105   0.0000       0.927741        25.2451 
 106   0.0000       0.940480        25.5918 
 107   0.0000       0.944025        25.6882 
 108   0.0000       0.952915        25.9301 
 109   0.0000       0.961328        26.1591 
 110   0.0000       0.974782        26.5252 
 111   0.0000       0.977656        26.6034 
 112   0.0000       0.990976        26.9658 
 113   0.0000       0.998977        27.1835 
 114   0.0000       1.004512        27.3342 
 115   0.0000       1.004638        27.3376 
 116   0.0000       1.025211        27.8974 
 117   0.0000       1.040536        28.3144 
 118   0.0000       1.044674        28.4270 
 119   0.0000       1.046326        28.4720 
 120   0.0000       1.071456        29.1558 
 121   0.0000       1.088502        29.6196 
 122   0.0000       1.106027        30.0965 
 123   0.0000       1.112629        30.2762 
 124   0.0000       1.134599        30.8740 
 125   0.0000       1.156321        31.4651 
 126   0.0000       1.166538        31.7431 
 127   0.0000       1.291057        35.1315 
 128   0.0000       1.293408        35.1954 
 129   0.0000       1.307235        35.5717 
 130   0.0000       1.361242        37.0413 
 131   0.0000       1.398955        38.0675 
 132   0.0000       1.415335        38.5132 
 133   0.0000       1.420813        38.6623 
 134   0.0000       1.462121        39.7863 
 135   0.0000       1.467710        39.9384 
 136   0.0000       1.481709        40.3193 
 137   0.0000       1.492146        40.6034 
 138   0.0000       1.521516        41.4025 
 139   0.0000       1.560383        42.4602 
 140   0.0000       1.595549        43.4171 
 141   0.0000       1.609369        43.7931 
 142   0.0000       1.633703        44.4553 
 143   0.0000       1.639852        44.6226 
 144   0.0000       1.673320        45.5334 
 145   0.0000       1.681480        45.7554 
 146   0.0000       1.685597        45.8674 
 147   0.0000       1.693967        46.0952 
 148   0.0000       1.696621        46.1674 
 149   0.0000       1.713604        46.6295 
 150   0.0000       1.718775        46.7703 
 151   0.0000       1.734356        47.1942 
 152   0.0000       1.739283        47.3283 
 153   0.0000       1.774492        48.2864 
 154   0.0000       1.782992        48.5177 
 155   0.0000       1.788336        48.6631 
 156   0.0000       1.804702        49.1084 
 157   0.0000       1.814793        49.3830 
 158   0.0000       1.838692        50.0334 
 159   0.0000       1.863782        50.7161 
 160   0.0000       1.867672        50.8220 
 161   0.0000       1.884272        51.2736 
 162   0.0000       1.901766        51.7497 
 163   0.0000       1.902734        51.7760 
 164   0.0000       1.913080        52.0576 
 165   0.0000       1.924026        52.3554 
 166   0.0000       1.931006        52.5454 
 167   0.0000       1.942595        52.8607 
 168   0.0000       1.942792        52.8661 
 169   0.0000       1.952026        53.1173 
 170   0.0000       1.955034        53.1992 
 171   0.0000       1.986493        54.0552 
 172   0.0000       1.986566        54.0572 
 173   0.0000       1.994917        54.2844 
 174   0.0000       2.011468        54.7348 
 175   0.0000       2.013393        54.7872 
 176   0.0000       2.024918        55.1008 
 177   0.0000       2.036917        55.4273 
 178   0.0000       2.040140        55.5150 
 179   0.0000       2.048465        55.7416 
 180   0.0000       2.056261        55.9537 
 181   0.0000       2.066969        56.2451 
 182   0.0000       2.071856        56.3781 
 183   0.0000       2.077597        56.5343 
 184   0.0000       2.106297        57.3153 
 185   0.0000       2.109926        57.4140 
 186   0.0000       2.117233        57.6128 
 187   0.0000       2.117971        57.6329 
 188   0.0000       2.136290        58.1314 
 189   0.0000       2.139987        58.2320 
 190   0.0000       2.163529        58.8726 
 191   0.0000       2.166856        58.9631 
 192   0.0000       2.181283        59.3557 
 193   0.0000       2.191143        59.6240 
 194   0.0000       2.200743        59.8853 
 195   0.0000       2.217734        60.3476 
 196   0.0000       2.227318        60.6084 
 197   0.0000       2.251253        61.2597 
 198   0.0000       2.266391        61.6716 
 199   0.0000       2.285605        62.1945 
 200   0.0000       2.311917        62.9105 
 201   0.0000       2.351000        63.9740 
 202   0.0000       2.362736        64.2933 
 203   0.0000       2.366983        64.4089 
 204   0.0000       2.367806        64.4313 
 205   0.0000       2.380259        64.7701 
 206   0.0000       2.394712        65.1634 
 207   0.0000       2.410801        65.6012 
 208   0.0000       2.425854        66.0108 
 209   0.0000       2.438801        66.3631 
 210   0.0000       2.464551        67.0638 
 211   0.0000       2.474286        67.3287 
 212   0.0000       2.491521        67.7977 
 213   0.0000       2.492148        67.8148 
 214   0.0000       2.507855        68.2422 
 215   0.0000       2.525961        68.7349 
 216   0.0000       2.547519        69.3215 
 217   0.0000       2.560123        69.6645 
 218   0.0000       2.574848        70.0652 
 219   0.0000       2.618054        71.2409 
 220   0.0000       2.623844        71.3984 
 221   0.0000       2.650744        72.1304 
 222   0.0000       2.685580        73.0783 
 223   0.0000       2.694097        73.3101 
 224   0.0000       2.701108        73.5009 
 225   0.0000       2.741206        74.5920 
 226   0.0000       2.742110        74.6166 
 227   0.0000       2.777505        75.5798 
 228   0.0000       2.778009        75.5935 
 229   0.0000       2.783394        75.7400 
 230   0.0000       2.793209        76.0071 
 231   0.0000       2.802902        76.2708 
 232   0.0000       2.813801        76.5674 
 233   0.0000       2.824839        76.8678 
 234   0.0000       2.828486        76.9670 
 235   0.0000       2.873258        78.1853 
 236   0.0000       2.887584        78.5752 
 237   0.0000       2.889413        78.6249 
 238   0.0000       2.894220        78.7557 
 239   0.0000       2.920749        79.4776 
 240   0.0000       2.931996        79.7837 
 241   0.0000       2.939553        79.9893 
 242   0.0000       2.944171        80.1150 
 243   0.0000       2.964641        80.6720 
 244   0.0000       2.978138        81.0392 
 245   0.0000       3.020369        82.1884 
 246   0.0000       3.037846        82.6640 
 247   0.0000       3.065310        83.4113 
 248   0.0000       3.078799        83.7784 
 249   0.0000       3.122845        84.9769 

                    ********************************
                    * MULLIKEN POPULATION ANALYSIS *
                    ********************************

-----------------------
MULLIKEN ATOMIC CHARGES
-----------------------
   0 C :   -0.012958
   1 C :   -0.014392
   2 C :   -0.411500
   3 C :    0.067662
   4 C :   -0.411502
   5 C :    0.072584
   6 C :    0.072583
   7 C :   -0.014386
   8 C :   -0.012962
   9 C :    0.067658
  10 H :    0.028569
  11 H :    0.031602
  12 H :    0.027983
  13 H :    0.025091
  14 H :    0.025163
  15 H :    0.025161
  16 H :    0.025092
  17 H :    0.028570
  18 H :    0.031602
  19 H :    0.027983
  20 H :    0.028009
  21 H :    0.024725
  22 H :    0.025394
  23 H :    0.024956
  24 H :    0.028768
  25 H :    0.028344
  26 H :    0.028770
  27 H :    0.028346
  28 H :    0.024956
  29 H :    0.025393
  30 H :    0.028009
  31 H :    0.024725
Sum of atomic charges:   -0.0000000

--------------------------------
MULLIKEN REDUCED ORBITAL CHARGES
--------------------------------
  0 C s       :     3.013671  s :     3.013671
      pz      :     0.997493  p :     2.936907
      px      :     0.950660
      py      :     0.988754
      dz2     :     0.014465  d :     0.062380
      dxz     :     0.008932
      dyz     :     0.010590
      dx2y2   :     0.011554
      dxy     :     0.016839
  1 C s       :     3.056732  s :     3.056732
      pz      :     0.969544  p :     2.876719
      px      :     0.936358
      py      :     0.970818
      dz2     :     0.016613  d :     0.080941
      dxz     :     0.008737
      dyz     :     0.016879
      dx2y2   :     0.018343
      dxy     :     0.020369
  2 C s       :     3.236635  s :     3.236635
      pz      :     1.044890  p :     3.057013
      px      :     0.975964
      py      :     1.036159
      dz2     :     0.026439  d :     0.117852
      dxz     :     0.013186
      dyz     :     0.031903
      dx2y2   :     0.017785
      dxy     :     0.028538
  3 C s       :     2.986323  s :     2.986323
      pz      :     0.938553  p :     2.887198
      px      :     0.981703
      py      :     0.966943
      dz2     :     0.015066  d :     0.058816
      dxz     :     0.005000
      dyz     :     0.017826
      dx2y2   :     0.003878
      dxy     :     0.017046
  4 C s       :     3.236640  s :     3.236640
      pz      :     1.044889  p :     3.057010
      px      :     0.975961
      py      :     1.036160
      dz2     :     0.026440  d :     0.117851
      dxz     :     0.013185
      dyz     :     0.031903
      dx2y2   :     0.017785
      dxy     :     0.028538
  5 C s       :     2.985346  s :     2.985346
      pz      :     0.945612  p :     2.883116
      px      :     0.981095
      py      :     0.956409
      dz2     :     0.016908  d :     0.058953
      dxz     :     0.004162
      dyz     :     0.014808
      dx2y2   :     0.009386
      dxy     :     0.013689
  6 C s       :     2.985348  s :     2.985348
      pz      :     0.945612  p :     2.883115
      px      :     0.981093
      py      :     0.956410
      dz2     :     0.016909  d :     0.058954
      dxz     :     0.004162
      dyz     :     0.014809
      dx2y2   :     0.009387
      dxy     :     0.013688
  7 C s       :     3.056729  s :     3.056729
      pz      :     0.969544  p :     2.876716
      px      :     0.936355
      py      :     0.970817
      dz2     :     0.016613  d :     0.080941
      dxz     :     0.008737
      dyz     :     0.016878
      dx2y2   :     0.018343
      dxy     :     0.020369
  8 C s       :     3.013675  s :     3.013675
      pz      :     0.997495  p :     2.936907
      px      :     0.950660
      py      :     0.988753
      dz2     :     0.014465  d :     0.062380
      dxz     :     0.008932
      dyz     :     0.010589
      dx2y2   :     0.011554
      dxy     :     0.016839
  9 C s       :     2.986329  s :     2.986329
      pz      :     0.938550  p :     2.887198
      px      :     0.981704
      py      :     0.966944
      dz2     :     0.015066  d :     0.058815
      dxz     :     0.005000
      dyz     :     0.017826
      dx2y2   :     0.003878
      dxy     :     0.017046
 10 H s       :     0.941071  s :     0.941071
      pz      :     0.005982  p :     0.030360
      px      :     0.010411
      py      :     0.013967
 11 H s       :     0.938005  s :     0.938005
      pz      :     0.019340  p :     0.030394
      px      :     0.004743
      py      :     0.006311
 12 H s       :     0.941518  s :     0.941518
      pz      :     0.010232  p :     0.030499
      px      :     0.005776
      py      :     0.014491
 13 H s       :     0.946116  s :     0.946116
      pz      :     0.010723  p :     0.028793
      px      :     0.004398
      py      :     0.013671
 14 H s       :     0.946244  s :     0.946244
      pz      :     0.018550  p :     0.028594
      px      :     0.003583
      py      :     0.006460
 15 H s       :     0.946245  s :     0.946245
      pz      :     0.018550  p :     0.028594
      px      :     0.003584
      py      :     0.006460
 16 H s       :     0.946116  s :     0.946116
      pz      :     0.010723  p :     0.028793
      px      :     0.004398
      py      :     0.013671
 17 H s       :     0.941070  s :     0.941070
      pz      :     0.005983  p :     0.030360
      px      :     0.010411
      py      :     0.013966
 18 H s       :     0.938004  s :     0.938004
      pz      :     0.019340  p :     0.030394
      px      :     0.004743
      py      :     0.006310
 19 H s       :     0.941519  s :     0.941519
      pz      :     0.010231  p :     0.030498
      px      :     0.005776
      py      :     0.014491
 20 H s       :     0.941588  s :     0.941588
      pz      :     0.004806  p :     0.030403
      px      :     0.010453
      py      :     0.015145
 21 H s       :     0.944997  s :     0.944997
      pz      :     0.016918  p :     0.030278
      px      :     0.006248
      py      :     0.007112
 22 H s       :     0.944153  s :     0.944153
      pz      :     0.004757  p :     0.030453
      px      :     0.019050
      py      :     0.006647
 23 H s       :     0.944553  s :     0.944553
      pz      :     0.005354  p :     0.030491
      px      :     0.013883
      py      :     0.011255
 24 H s       :     0.940968  s :     0.940968
      pz      :     0.004421  p :     0.030264
      px      :     0.016060
      py      :     0.009784
 25 H s       :     0.941535  s :     0.941535
      pz      :     0.013934  p :     0.030121
      px      :     0.005440
      py      :     0.010746
 26 H s       :     0.940967  s :     0.940967
      pz      :     0.004420  p :     0.030264
      px      :     0.016059
      py      :     0.009784
 27 H s       :     0.941533  s :     0.941533
      pz      :     0.013934  p :     0.030121
      px      :     0.005440
      py      :     0.010747
 28 H s       :     0.944552  s :     0.944552
      pz      :     0.005354  p :     0.030491
      px      :     0.013883
      py      :     0.011255
 29 H s       :     0.944153  s :     0.944153
      pz      :     0.004757  p :     0.030453
      px      :     0.019049
      py      :     0.006647
 30 H s       :     0.941588  s :     0.941588
      pz      :     0.004806  p :     0.030403
      px      :     0.010453
      py      :     0.015144
 31 H s       :     0.944996  s :     0.944996
      pz      :     0.016918  p :     0.030279
      px      :     0.006249
      py      :     0.007112


                     *******************************
                     * LOEWDIN POPULATION ANALYSIS *
                     *******************************

----------------------
LOEWDIN ATOMIC CHARGES
----------------------
   0 C :   -0.050944
   1 C :   -0.028088
   2 C :   -0.044966
   3 C :   -0.037676
   4 C :   -0.044962
   5 C :   -0.037762
   6 C :   -0.037761
   7 C :   -0.028089
   8 C :   -0.050946
   9 C :   -0.037676
  10 H :    0.022912
  11 H :    0.018854
  12 H :    0.016831
  13 H :    0.015703
  14 H :    0.017986
  15 H :    0.017985
  16 H :    0.015704
  17 H :    0.022912
  18 H :    0.018854
  19 H :    0.016833
  20 H :    0.018779
  21 H :    0.016112
  22 H :    0.018160
  23 H :    0.016519
  24 H :    0.019614
  25 H :    0.017963
  26 H :    0.019615
  27 H :    0.017963
  28 H :    0.016520
  29 H :    0.018159
  30 H :    0.018780
  31 H :    0.016111

-------------------------------
LOEWDIN REDUCED ORBITAL CHARGES
-------------------------------
  0 C s       :     2.794014  s :     2.794014
      pz      :     1.044830  p :     3.094654
      px      :     1.006953
      py      :     1.042871
      dz2     :     0.039007  d :     0.162275
      dxz     :     0.021301
      dyz     :     0.028574
      dx2y2   :     0.029073
      dxy     :     0.044321
  1 C s       :     2.793376  s :     2.793376
      pz      :     1.030943  p :     3.031807
      px      :     0.988700
      py      :     1.012164
      dz2     :     0.041799  d :     0.202905
      dxz     :     0.021163
      dyz     :     0.045621
      dx2y2   :     0.045883
      dxy     :     0.048439
  2 C s       :     2.804048  s :     2.804048
      pz      :     0.998520  p :     2.979331
      px      :     0.983056
      py      :     0.997755
      dz2     :     0.057532  d :     0.261588
      dxz     :     0.030323
      dyz     :     0.068376
      dx2y2   :     0.041684
      dxy     :     0.063672
  3 C s       :     2.793365  s :     2.793365
      pz      :     1.009565  p :     3.081301
      px      :     1.040429
      py      :     1.031307
      dz2     :     0.041161  d :     0.163010
      dxz     :     0.014588
      dyz     :     0.048168
      dx2y2   :     0.010810
      dxy     :     0.048284
  4 C s       :     2.804052  s :     2.804052
      pz      :     0.998519  p :     2.979327
      px      :     0.983054
      py      :     0.997754
      dz2     :     0.057533  d :     0.261583
      dxz     :     0.030322
      dyz     :     0.068375
      dx2y2   :     0.041683
      dxy     :     0.063671
  5 C s       :     2.793737  s :     2.793737
      pz      :     1.015836  p :     3.080809
      px      :     1.041361
      py      :     1.023612
      dz2     :     0.047426  d :     0.163216
      dxz     :     0.012295
      dyz     :     0.038269
      dx2y2   :     0.026212
      dxy     :     0.039014
  6 C s       :     2.793737  s :     2.793737
      pz      :     1.015835  p :     3.080807
      px      :     1.041359
      py      :     1.023614
      dz2     :     0.047426  d :     0.163216
      dxz     :     0.012295
      dyz     :     0.038269
      dx2y2   :     0.026215
      dxy     :     0.039011
  7 C s       :     2.793375  s :     2.793375
      pz      :     1.030945  p :     3.031809
      px      :     0.988701
      py      :     1.012163
      dz2     :     0.041801  d :     0.202905
      dxz     :     0.021164
      dyz     :     0.045618
      dx2y2   :     0.045883
      dxy     :     0.048438
  8 C s       :     2.794016  s :     2.794016
      pz      :     1.044829  p :     3.094653
      px      :     1.006955
      py      :     1.042870
      dz2     :     0.039008  d :     0.162277
      dxz     :     0.021302
      dyz     :     0.028571
      dx2y2   :     0.029074
      dxy     :     0.044321
  9 C s       :     2.793367  s :     2.793367
      pz      :     1.009565  p :     3.081301
      px      :     1.040428
      py      :     1.031308
      dz2     :     0.041160  d :     0.163007
      dxz     :     0.014587
      dyz     :     0.048168
      dx2y2   :     0.010810
      dxy     :     0.048283
 10 H s       :     0.899131  s :     0.899131
      pz      :     0.017022  p :     0.077957
      px      :     0.027395
      py      :     0.033539
 11 H s       :     0.902223  s :     0.902223
      pz      :     0.044520  p :     0.078923
      px      :     0.016637
      py      :     0.017765
 12 H s       :     0.904182  s :     0.904182
      pz      :     0.025912  p :     0.078987
      px      :     0.018559
      py      :     0.034516
 13 H s       :     0.904409  s :     0.904409
      pz      :     0.027272  p :     0.079889
      px      :     0.017671
      py      :     0.034946
 14 H s       :     0.902597  s :     0.902597
      pz      :     0.042875  p :     0.079417
      px      :     0.016264
      py      :     0.020278
 15 H s       :     0.902596  s :     0.902596
      pz      :     0.042876  p :     0.079420
      px      :     0.016265
      py      :     0.020279
 16 H s       :     0.904409  s :     0.904409
      pz      :     0.027271  p :     0.079887
      px      :     0.017670
      py      :     0.034946
 17 H s       :     0.899131  s :     0.899131
      pz      :     0.017022  p :     0.077957
      px      :     0.027396
      py      :     0.033539
 18 H s       :     0.902223  s :     0.902223
      pz      :     0.044521  p :     0.078922
      px      :     0.016637
      py      :     0.017765
 19 H s       :     0.904183  s :     0.904183
      pz      :     0.025909  p :     0.078984
      px      :     0.018558
      py      :     0.034517
 20 H s       :     0.901509  s :     0.901509
      pz      :     0.016287  p :     0.079712
      px      :     0.026452
      py      :     0.036972
 21 H s       :     0.904594  s :     0.904594
      pz      :     0.040753  p :     0.079294
      px      :     0.017662
      py      :     0.020878
 22 H s       :     0.902211  s :     0.902211
      pz      :     0.016104  p :     0.079629
      px      :     0.044117
      py      :     0.019407
 23 H s       :     0.903443  s :     0.903443
      pz      :     0.017685  p :     0.080038
      px      :     0.033899
      py      :     0.028454
 24 H s       :     0.901164  s :     0.901164
      pz      :     0.015951  p :     0.079222
      px      :     0.037671
      py      :     0.025600
 25 H s       :     0.902898  s :     0.902898
      pz      :     0.035192  p :     0.079139
      px      :     0.016122
      py      :     0.027825
 26 H s       :     0.901164  s :     0.901164
      pz      :     0.015951  p :     0.079221
      px      :     0.037671
      py      :     0.025600
 27 H s       :     0.902897  s :     0.902897
      pz      :     0.035192  p :     0.079140
      px      :     0.016122
      py      :     0.027827
 28 H s       :     0.903443  s :     0.903443
      pz      :     0.017685  p :     0.080037
      px      :     0.033899
      py      :     0.028453
 29 H s       :     0.902212  s :     0.902212
      pz      :     0.016104  p :     0.079630
      px      :     0.044117
      py      :     0.019408
 30 H s       :     0.901509  s :     0.901509
      pz      :     0.016287  p :     0.079711
      px      :     0.026452
      py      :     0.036971
 31 H s       :     0.904593  s :     0.904593
      pz      :     0.040754  p :     0.079295
      px      :     0.017663
      py      :     0.020878


                      *****************************
                      * MAYER POPULATION ANALYSIS *
                      *****************************

  NA   - Mulliken gross atomic population
  ZA   - Total nuclear charge
  QA   - Mulliken gross atomic charge
  VA   - Mayer's total valence
  BVA  - Mayer's bonded valence
  FA   - Mayer's free valence

  ATOM       NA         ZA         QA         VA         BVA        FA
  0 C      6.0130     6.0000    -0.0130     3.9900     3.9900     0.0000
  1 C      6.0144     6.0000    -0.0144     3.9676     3.9676    -0.0000
  2 C      6.4115     6.0000    -0.4115     4.1013     4.1013    -0.0000
  3 C      5.9323     6.0000     0.0677     3.8993     3.8993    -0.0000
  4 C      6.4115     6.0000    -0.4115     4.1013     4.1013    -0.0000
  5 C      5.9274     6.0000     0.0726     3.8988     3.8988     0.0000
  6 C      5.9274     6.0000     0.0726     3.8988     3.8988     0.0000
  7 C      6.0144     6.0000    -0.0144     3.9676     3.9676    -0.0000
  8 C      6.0130     6.0000    -0.0130     3.9900     3.9900    -0.0000
  9 C      5.9323     6.0000     0.0677     3.8993     3.8993     0.0000
 10 H      0.9714     1.0000     0.0286     0.9754     0.9754     0.0000
 11 H      0.9684     1.0000     0.0316     0.9755     0.9755     0.0000
 12 H      0.9720     1.0000     0.0280     0.9753     0.9753    -0.0000
 13 H      0.9749     1.0000     0.0251     0.9641     0.9641    -0.0000
 14 H      0.9748     1.0000     0.0252     0.9696     0.9696    -0.0000
 15 H      0.9748     1.0000     0.0252     0.9696     0.9696    -0.0000
 16 H      0.9749     1.0000     0.0251     0.9641     0.9641    -0.0000
 17 H      0.9714     1.0000     0.0286     0.9754     0.9754    -0.0000
 18 H      0.9684     1.0000     0.0316     0.9755     0.9755     0.0000
 19 H      0.9720     1.0000     0.0280     0.9753     0.9753    -0.0000
 20 H      0.9720     1.0000     0.0280     0.9825     0.9825     0.0000
 21 H      0.9753     1.0000     0.0247     0.9794     0.9794    -0.0000
 22 H      0.9746     1.0000     0.0254     0.9822     0.9822     0.0000
 23 H      0.9750     1.0000     0.0250     0.9824     0.9824     0.0000
 24 H      0.9712     1.0000     0.0288     0.9819     0.9819    -0.0000
 25 H      0.9717     1.0000     0.0283     0.9799     0.9799    -0.0000
 26 H      0.9712     1.0000     0.0288     0.9819     0.9819     0.0000
 27 H      0.9717     1.0000     0.0283     0.9799     0.9799     0.0000
 28 H      0.9750     1.0000     0.0250     0.9824     0.9824    -0.0000
 29 H      0.9746     1.0000     0.0254     0.9822     0.9822     0.0000
 30 H      0.9720     1.0000     0.0280     0.9825     0.9825    -0.0000
 31 H      0.9753     1.0000     0.0247     0.9794     0.9794     0.0000

  Mayer bond orders larger than 0.1
B(  0-C ,  1-C ) :   1.0764 B(  0-C , 10-H ) :   0.9805 B(  0-C , 11-H ) :   0.9773 
B(  0-C , 12-H ) :   0.9784 B(  1-C ,  2-C ) :   1.0243 B(  1-C , 13-H ) :   0.9585 
B(  1-C , 14-H ) :   0.9606 B(  2-C ,  3-C ) :   1.0308 B(  2-C ,  4-C ) :   1.0039 
B(  2-C ,  6-C ) :   1.0324 B(  3-C , 23-H ) :   0.9760 B(  3-C , 24-H ) :   0.9756 
B(  3-C , 25-H ) :   0.9753 B(  4-C ,  5-C ) :   1.0324 B(  4-C ,  7-C ) :   1.0242 
B(  4-C ,  9-C ) :   1.0308 B(  5-C , 29-H ) :   0.9754 B(  5-C , 30-H ) :   0.9757 
B(  5-C , 31-H ) :   0.9761 B(  6-C , 20-H ) :   0.9757 B(  6-C , 21-H ) :   0.9761 
B(  6-C , 22-H ) :   0.9754 B(  7-C ,  8-C ) :   1.0764 B(  7-C , 15-H ) :   0.9606 
B(  7-C , 16-H ) :   0.9585 B(  8-C , 17-H ) :   0.9805 B(  8-C , 18-H ) :   0.9773 
B(  8-C , 19-H ) :   0.9784 B(  9-C , 26-H ) :   0.9756 B(  9-C , 27-H ) :   0.9753 
B(  9-C , 28-H ) :   0.9760 

-------
TIMINGS
-------

Total SCF time: 0 days 0 hours 0 min 22 sec 

Total time                  ....      22.642 sec
Sum of individual times     ....      22.413 sec  ( 99.0%)

Fock matrix formation       ....      22.168 sec  ( 97.9%)
Diagonalization             ....       0.027 sec  (  0.1%)
Density matrix formation    ....       0.005 sec  (  0.0%)
Population analysis         ....       0.038 sec  (  0.2%)
Initial guess               ....       0.138 sec  (  0.6%)
Orbital Transformation      ....       0.000 sec  (  0.0%)
Orbital Orthonormalization  ....       0.000 sec  (  0.0%)
DIIS solution               ....       0.000 sec  (  0.0%)
SOSCF solution              ....       0.038 sec  (  0.2%)


           ************************************************************
           *        Program running with 4 parallel MPI-processes     *
           *              working on a common directory               *
           ************************************************************


------------------------------------------------------------------------------- 
                              ORCA-MATRIX DRIVEN CI                            
------------------------------------------------------------------------------- 


Wavefunction type
-----------------
Correlation treatment                      ...      CCSD     
Single excitations                         ... ON
Orbital optimization                       ... OFF
Calculation of Z vector                    ... OFF
Calculation of Brueckner orbitals          ... OFF
Perturbative triple excitations            ... ON
Calculation of F12 correction              ... OFF
Frozen core treatment                      ... chemical core (20 el)
Reference Wavefunction                     ... RHF
  Internal Orbitals:    10 ...   40 ( 31 MO's/ 62 electrons)
  Virtual  Orbitals:    41 ...  249 (209 MO's              )
Number of AO's                             ...    250
Number of electrons                        ...     82
Number of correlated electrons             ...     62

Algorithmic settings
--------------------
Integral transformation                    ... All integrals via the RI transformation
K(C) Formation                             ... RI-DLPNO
   PNO-Integral Storage                    ... ON DISK
   PNO occupation number cut-off           ... 1.000e-07
   Singles PNO occupation number cut-off   ... 3.000e-09
   PNO Mulliken prescreening cut-off       ... 1.000e-03
   Domain cut-off (Mulliken population)    ... 1.000e-03
   PNO Normalization                       ...    1
Maximum number of iterations               ...        50
Convergence tolerance (max. residuum)      ... 1.000e-05
Level shift for amplitude update           ... 2.000e-01
Maximum number of DIIS vectors             ...         7
DIIS turned on at iteration                ...         0
Damping before turning on DIIS             ...     0.500
Damping after turning on DIIS              ...     0.000
Pair specific amplitude update             ... OFF
Natural orbital iterations                 ... OFF
Perturbative natural orbital generation    ... OFF
Printlevel                                 ... 2

Singles Fock matrix elements calculated using PNOs.

Memory handling:
----------------
Maximum memory for working arrays          ...   8000 MB
Data storage in matrix containers          ... UNCOMPRESSED
Data type for integral storage             ... DOUBLE
In-Core Storage of quantities:
   Amplitudes+Sigma Vector      ... NO
   J+K operators                ... NO
   DIIS vectors                 ... NO
   3-external integrals         ... NO
   4-external integrals         ... NO

Localization treatment:
-----------------------
Localization option                        ...    6
Localization threshhold                    ... -1.0e+00
Using relative localization threshhold     ... 1.0e-08
Neglect threshold for strong pairs         ... 1.000e-05 Eh
Prescreening threshold for very weak pairs ... 1.000e-07 Eh

Initializing the integral package          ... done
Localizing the valence orbitals
------------------------------------------------------------------------------
                           ORCA ORBITAL LOCALIZATION
------------------------------------------------------------------------------

Input orbitals are from                  ... TMH_a.proc0.gbw
Output orbitals are to                   ... TMH_a.proc0.loc
Max. number of iterations                ... 128
Localizations seeded randomly            ... off
Convergence tolerance                    ... 1.000e-06
Using relative localization threshhold   ... 1.000e-08
Treshold for strong local MOs            ... 9.500e-01
Treshold for bond MOs                    ... 8.500e-01
Operator                                 ... 0
Orbital range for localization           ... 10 to 40
Localization criterion                   ... FOSTER-BOYS (AUGMENTED HESSIAN)
Doing the dipole integrals     ... o.k.
Initial value of the localization sum :   646.402215
ITERATION   0 : L=  667.8619620860 DL=  2.15e+01 (AVERGE_DL)=    0.2148254937 
ITERATION   1 : L=  669.1437412660 DL=  1.28e+00 (AVERGE_DL)=    0.0525025177 
ITERATION   2 : L=  669.1656793602 DL=  2.19e-02 (AVERGE_DL)=    0.0068686751 
ITERATION   3 : L=  669.1658024315 DL=  1.23e-04 (AVERGE_DL)=    0.0005144605 
ITERATION   4 : L=  669.1658028220 DL=  3.90e-07 (AVERGE_DL)=    0.0000289774 
LOCALIZATION SUM CONVERGED

------------------------------------------------------
AUGMENTED HESSIAN OPTIMIZATION OF FOSTER-BOYS ORBITALS
------------------------------------------------------

Spin operator:           0
Orbital window:          10 to 40
Number of iterations:    128
Gradient tolerance:      1.000e-06
Number of pairs:         465
Davidson threshold:      2000
Diagonalization method:  LAPACK
Iter:    0   L: 669.1658028220   Grad. norm: 2.715345e-03
   *** Likely close to a maximum now. ***
       Augmented Hessian eigenvalues:  2.74e-08 -1.73e+01 -1.73e+01 -1.73e+01 ... 
Iter:    1   L: 669.1658028357   Grad. norm: 4.072090e-10
LOCALIZATION HAS CONVERGED.

Eigenvalues of the Hessian:
  0 -1.731e+01
  1 -1.731e+01
  2 -1.732e+01
  3 -1.732e+01
  4 -1.735e+01
  5 -1.735e+01
  6 -1.784e+01
  7 -1.784e+01
  8 -1.817e+01
  9 -1.818e+01
    ...


------------------------------------------------------------------------------- 
                    LOCALIZED MOLECULAR ORBITAL COMPOSITIONS                   
------------------------------------------------------------------------------- 

The Mulliken populations for each LMO on each atom are computed
The LMO`s will be ordered according to atom index and type
  (A) Strongly localized MO`s have populations of >=0.950 on one atom
  (B) Two center bond orbitals have populations of >=0.850 on two atoms
  (C) Other MO`s are considered to be `delocalized`

FOUND  -   0 strongly local MO`s
       -  31 two center bond MO`s
       -   0 significantly delocalized MO`s

Bond-like localized orbitals:
MO  40:  31H  -   0.504261  and   5C  -   0.506027
MO  39:  30H  -   0.501800  and   5C  -   0.508218
MO  38:  29H  -   0.503083  and   5C  -   0.506525
MO  37:  28H  -   0.503140  and   9C  -   0.506537
MO  36:  27H  -   0.502384  and   9C  -   0.507835
MO  35:  26H  -   0.501557  and   9C  -   0.508307
MO  34:  25H  -   0.502385  and   3C  -   0.507835
MO  33:  24H  -   0.501558  and   3C  -   0.508306
MO  32:  23H  -   0.503140  and   3C  -   0.506536
MO  31:  22H  -   0.503083  and   6C  -   0.506526
MO  30:  21H  -   0.504261  and   6C  -   0.506027
MO  29:  20H  -   0.501800  and   6C  -   0.508218
MO  28:  19H  -   0.503815  and   8C  -   0.509068
MO  27:  18H  -   0.502027  and   8C  -   0.509944
MO  26:  17H  -   0.503216  and   8C  -   0.506839
MO  25:  16H  -   0.509515  and   7C  -   0.500224
MO  24:  15H  -   0.507878  and   7C  -   0.502153
MO  23:  14H  -   0.507878  and   1C  -   0.502155
MO  22:  13H  -   0.509515  and   1C  -   0.500223
MO  21:  12H  -   0.503814  and   0C  -   0.509067
MO  20:  11H  -   0.502027  and   0C  -   0.509944
MO  19:  10H  -   0.503216  and   0C  -   0.506839
MO  18:   9C  -   0.490275  and   4C  -   0.556991
MO  17:   8C  -   0.496972  and   7C  -   0.544168
MO  16:   7C  -   0.497083  and   4C  -   0.560012
MO  15:   6C  -   0.489884  and   2C  -   0.558554
MO  14:   5C  -   0.489884  and   4C  -   0.558553
MO  13:   4C  -   0.535231  and   2C  -   0.535234
MO  12:   3C  -   0.490276  and   2C  -   0.556990
MO  11:   2C  -   0.560010  and   1C  -   0.497084
MO  10:   1C  -   0.544169  and   0C  -   0.496972
Localized MO's were stored in: TMH_a.proc0.loc

Localizing the core orbitals
------------------------------------------------------------------------------
                           ORCA ORBITAL LOCALIZATION
------------------------------------------------------------------------------

Input orbitals are from                  ... TMH_a.proc0.loc
Output orbitals are to                   ... TMH_a.proc0.loc
Max. number of iterations                ... 128
Localizations seeded randomly            ... off
Convergence tolerance                    ... 1.000e-06
Using relative localization threshhold   ... 1.000e-08
Treshold for strong local MOs            ... 9.500e-01
Treshold for bond MOs                    ... 8.500e-01
Operator                                 ... 0
Orbital range for localization           ... 0 to 9
Localization criterion                   ... FOSTER-BOYS (AUGMENTED HESSIAN)
Doing the dipole integrals     ... o.k.
Initial value of the localization sum :   166.483422
ITERATION   0 : L=  166.4834451540 DL=  2.30e-05 (AVERGE_DL)=    0.0007148005 
ITERATION   1 : L=  166.4834451540 DL=  0.00e+00 (AVERGE_DL)=    0.0000000000 
LOCALIZATION SUM CONVERGED

------------------------------------------------------
AUGMENTED HESSIAN OPTIMIZATION OF FOSTER-BOYS ORBITALS
------------------------------------------------------

Spin operator:           0
Orbital window:          0 to 9
Number of iterations:    128
Gradient tolerance:      1.000e-06
Number of pairs:         45
Davidson threshold:      2000
Diagonalization method:  LAPACK
Iter:    0   L: 166.4834451540   Grad. norm: 2.700853e-04
   *** Likely close to a maximum now. ***
       Augmented Hessian eigenvalues:  5.01e-10 -3.38e+01 -3.38e+01 -3.42e+01 ... 
Iter:    1   L: 166.4834451542   Grad. norm: 1.228478e-15
LOCALIZATION HAS CONVERGED.

Eigenvalues of the Hessian:
  0 -3.376e+01
  1 -3.376e+01
  2 -3.421e+01
  3 -3.421e+01
  4 -3.423e+01
  5 -3.423e+01
  6 -3.482e+01
  7 -3.482e+01
  8 -3.677e+01
  9 -8.917e+01
    ...


------------------------------------------------------------------------------- 
                    LOCALIZED MOLECULAR ORBITAL COMPOSITIONS                   
------------------------------------------------------------------------------- 

The Mulliken populations for each LMO on each atom are computed
The LMO`s will be ordered according to atom index and type
  (A) Strongly localized MO`s have populations of >=0.950 on one atom
  (B) Two center bond orbitals have populations of >=0.850 on two atoms
  (C) Other MO`s are considered to be `delocalized`

FOUND  -  10 strongly local MO`s
       -   0 two center bond MO`s
       -   0 significantly delocalized MO`s

Rather strongly localized orbitals:
MO   9:   9C  -   0.999626
MO   8:   8C  -   0.999516
MO   7:   7C  -   0.999262
MO   6:   6C  -   0.999612
MO   5:   5C  -   0.999612
MO   4:   4C  -   0.998720
MO   3:   3C  -   0.999626
MO   2:   2C  -   0.998720
MO   1:   1C  -   0.999262
MO   0:   0C  -   0.999516
Localized MO's were stored in: TMH_a.proc0.loc

Warning: internal orbitals are localized - no re-canonicalization of internal orbitals

--------------------------
CLOSED-SHELL FOCK OPERATOR
--------------------------

RI-JK section for the Fock operator:
  RHF full Fock operator         ... done
  RHF frozen core Fock operator  ... done
Time needed for Fock operator              ...            5.174 sec
Reference energy                           ...   -391.505031690

--------------
DLPNO SETTINGS (2015 fully linear scaling implementation)
--------------

TCutMKN:           1.000e-03
TCutPAO:           1.000e-03
TCutPNO:           1.000e-07
TCutPNOSingles:    3.000e-09
TCutEN:            9.700e-01
TCutPAOExt:        1.000e-01
TCutPairs:         1.000e-05
TCutPre:           1.000e-07
TCutOSV:           1.000e-06
TCutDOij:          1.000e-05
TCutDO:            5.000e-03
TCutC:             1.000e-04
TCutCPAO:          1.000e-03
TCutCMO:           1.000e-03
TScaleDOMP2PreScr: 2.000e+00
TScaleMKNMP2PreScr:1.000e+01
TScalePNOMP2PreScr:1.000e+00
PAO overlap thresh 1.000e-08
Using PNOs for Singles Fock computation
Use new domains
Use fully linear algorithm
TCutTNO:           1.000e-09
TCutMP2Pairs:      1.000e-06
TCutDOStrong:      2.000e-03
TCutMKNStrong:     1.000e-02
TCutMKNWeak:       1.000e-01
TCutDOWeak:        4.000e-03
NTCutTNO:          1

--------------------------
Calculating differential overlap integrals ... ok
--------------------------
ELECTRON PAIR PRESCREENING
--------------------------

Dipole-based pair screening          .... used

   TCutDOij = 1.000000e-05
   TCutPre  = 1.000000e-07
   .... Finished loop over pairs
Total time spent in the prescreening                  ...     0.000 sec
sum of pair energies estimated for screened out pairs ...       0.000000000000 Eh
Thresholds for map construction and integral transformation for crude MP2:
   TCutMKN                    ...     1.0e-02
   TCutDO                     ...     1.0e-02
   TCutPairs                  ...     1.0e-05
   TCutPNO_CrudeMP2           ...     1.0e-07
   TCutPNOSingles_CrudeMP2    ...     3.0e-09
--------------------------------
LOCAL RI TRANSFORMATION (IAVPAO)
--------------------------------

Orbital window:      10 to 40
Number of PAOs:     250
Basis functions:    250 (126 shells)
Aux. functions:     868 (312 shells)

Processing maps (0.0 sec)
Average map sizes:
   Aux shells -> MOs              31.0
   Aux shells -> PAOs            250.0
   MOs        -> AO shells       117.3
   PAOs       -> AO shells       125.4

Calculating integrals (1.0 sec, 51.333 MB)
Sorting integrals (0.1 sec, 51.323 MB)
Total time for the integral transformation: 1.1 sec
--------------------------------
INITIAL GUESS AND PNO GENERATION
--------------------------------

PNO truncation parameters                   .... 
    PAOOverlapThresh   =        1.000e-08

    TCutPairs          =        1.000e-05
    TCutPNO            =        1.000e-07
    TCutPNOSingles     =        3.000e-09
    TCutMP2Pairs       =        1.000e-06
    TCutMKN            =        1.000e-02
    TCutDO             =        1.000e-02

Pair selection                          .... not used
Type of local MP2 treatment                 .... semi-local MP2
Strategy for PNO selection                  .... occupation number selection
Pair density normalization                  .... MP2 norm
Spin component scaling                      .... not used

   .... Finished loop over pairs
Making pair pair interaction lists          ... done

                       ===========================
                        459 OF  496 PAIRS ARE KEPT CCSD PAIRS
                         37 OF  496 PAIRS ARE KEPT MP2 PAIRS FOR (T)
                          0 OF  496 PAIRS ARE SKIPPED
                       ===========================

Total time spent in the initial guess                 ...     3.525 sec
SL-MP2 correlation energy (all non-screened pairs)    ...      -1.430956075717 Eh

Initial PNO correlation energy                        ...      -1.429767985712 Eh
sum of pair energies prescreened and skipped MP2 pairs...       0.000000000000 Eh
sum of pair energies of crude MP2 skipped pairs only  ...       0.000000000000 Eh
sum of MP2 pair energies for pairs that were not kept ...      -0.000223359972 Eh
sum of PNO error estimates for the kept pairs         ...      -0.000964730032 Eh
                                                          --------------------
sum of all corrections                                         -0.001188090004
Initial total correlation energy                               -1.430956075717
Thresholds for map construction and integral transformation for fine MP2 and CCSD(T) calculation:
   TCutMKN   ...     1.0e-03
   TCutDO    ...     5.0e-03
   TCutPairs ...     1.0e-05
   TCutCMO   ...     1.0e-03
   TCutCPAO  ...     1.0e-03

Thresholds for map construction and integral transformation for strong Triples:
   TCutMKN   ...     1.0e-02
   TCutDO    ...     1.0e-02
   TCutCMO   ...     1.0e-03
   TCutCPAO  ...     1.0e-03

Thresholds for map construction and integral transformation for weak Triples:
   TCutMKN   ...     1.0e-01
   TCutDO    ...     2.0e-02
   TCutCMO   ...     1.0e-03
   TCutCPAO  ...     1.0e-03

--------------------------------
LOCAL RI TRANSFORMATION (IAVPAO)
--------------------------------

Orbital window:      10 to 40
Number of PAOs:     250
Basis functions:    250 (126 shells)
Aux. functions:     868 (312 shells)

Processing maps (0.0 sec)
Average map sizes:
   Aux shells -> MOs              31.0
   Aux shells -> PAOs            250.0
   MOs        -> AO shells       117.3
   PAOs       -> AO shells       125.4

Calculating integrals (1.0 sec, 51.333 MB)
Sorting integrals (0.1 sec, 51.323 MB)
Total time for the integral transformation: 1.1 sec
--------------------------------
INITIAL GUESS AND PNO GENERATION
--------------------------------

PNO truncation parameters                   .... 
    ScaleTCutPNO       =        1.000e-02
    PAOOverlapThresh   =        1.000e-08

    TCutPairs          =        1.000e-05
    TCutPNO            =        1.000e-07
    TCutPNOSingles     =        3.000e-09
    TCutMP2Pairs       =        1.000e-06
    TCutMKN            =        1.000e-03
    TCutDO             =        5.000e-03

Pair selection                          .... not used
Type of local MP2 treatment                 .... full local PMP2
Strategy for PNO selection                  .... occupation number selection
Pair density normalization                  .... MP2 norm
Spin component scaling                      .... not used

PASS-1: Formation of initial guess LMP2 amplitudes
Initial amplitudes guess done. Entering LMP2 iteration loop:
   Max. no of iterations          ...  50
   Energy convergence tolerance   ...    1.0e-07
   Residual convergence tolerance ...    5.0e-07
   Fock matrix cutoff             ...    1.0e-05 Eh
   DIIS convergence acceleration parameters:
        Max # vectors in DIIS     ... 7
        Start iteration of DIIS   ... 0
        Levelshift                ... 2.000e-01
        Damping factor 1          ... 5.000e-01
        Damping factor 2          ... 1.000e+00
   L-MP2 PNO cut-off              ...   1.0e-09
   L-MP2 PNO cut-off (core)       ...   1.0e-11
                           *** Turning on DIIS ***
LMP2-Iter=   0:  ELMP2= -1.459795303340  DE=   2.8e-02 RMAX=   3.4e-03
LMP2-Iter=   1:  ELMP2= -1.473681122422  DE=   1.4e-02 RMAX=   1.6e-03
LMP2-Iter=   2:  ELMP2= -1.475698652909  DE=   2.0e-03 RMAX=   1.7e-04
LMP2-Iter=   3:  ELMP2= -1.475844737628  DE=   1.5e-04 RMAX=   6.2e-05
LMP2-Iter=   4:  ELMP2= -1.475847154818  DE=   2.4e-06 RMAX=   6.5e-06
LMP2-Iter=   5:  ELMP2= -1.475845703697  DE=   1.5e-06 RMAX=   2.3e-06
LMP2-Iter=   6:  ELMP2= -1.475845591263  DE=   1.1e-07 RMAX=   2.2e-07
LMP2-Iter=   7:  ELMP2= -1.475845585411  DE=   5.9e-09 RMAX=   6.1e-08 => CONVERGED
PASS-2: Formation of Pair natural orbitals
   .... Finished loop over pairs

 PNO Occupation Number Statistics: 
  | Av. % of trace(Dij) retained        ...  99.011120795409
  | sigma^2 in % of trace(Dij) retained ...   3.29e+00
  | Av. % of trace(Di) retained         ...  99.999845977642
  | sigma^2 in % of trace(Di) retained  ...   6.89e-09
 Distributions of % trace(Dij) recovered:
  |       >= 99.9  ...   117 ( 23.6 % of all pairs)
  |   [80.0, 90.0) ...     8 (  1.6 % of all pairs)
  |   [90.0, 99.0) ...   126 ( 25.4 % of all pairs)
  |   [99.0, 99.9) ...   245 ( 49.4 % of all pairs)
 Distributions of % trace(Di) recovered :
  |       >= 99.9  ...    31 (100.0 % of all I-pairs )

Making pair pair interaction lists          ... done

                       ===========================
                        459 OF  496 PAIRS ARE KEPT
                       ===========================

Total time spent in the initial guess                 ...    23.986 sec
L-MP2 correlation energy (all non-screened pairs)     ...      -1.475845585411 Eh
L-MP2 PNO error correction                            ...      -0.000021840102 Eh
                                                          --------------------
Initial total L-MP2 energy (non-screened pairs)       ...      -1.475867425513 Eh

Initial PNO correlation energy                        ...      -1.474836865466 Eh
sum of pair energies estimated for screened out pairs ...       0.000000000000 Eh
sum of MP2 pair energies for pairs that were not kept ...      -0.000270918979 Eh
sum of PNO error estimates for the kept pairs         ...      -0.000891371488 Eh
                                                          --------------------
sum of all corrections                                         -0.001162290467
Initial total correlation energy                               -1.475999155933
Thresholds for map construction and integral transformation for fine MP2 and CCSD(T) calculation:
   TCutMKN   ...     1.0e-03
   TCutDO    ...     5.0e-03
   TCutPairs ...     1.0e-05
   TCutCMO   ...     1.0e-03
   TCutCPAO  ...     1.0e-03

Time for aux screen maps:            0.012
Time for maps after fine MP2:            0.039
-----------------------------
LOCAL RI TRANSFORMATION (IJV)
-----------------------------

Orbital window:      10 to 40
Basis functions:    250 (126 shells)
Aux. functions:     868 (312 shells)

Processing maps (0.0 sec)
Average map sizes:
   Aux shells -> MOs(i)           31.0
   Aux shells -> MOs(j)           31.0
   MOs        -> AO shells       117.3

Calculating integrals (1.0 sec, 6.374 MB)
Sorting integrals (0.0 sec, 6.364 MB)
Total time for the integral transformation: 1.0 sec
--------------------------------
LOCAL RI TRANSFORMATION (VABPAO)
--------------------------------

Number of PAOs:     250
Basis functions:    250 (126 shells)
Aux. functions:     868 (312 shells)

Processing maps (0.0 sec)
Average map sizes:
   Aux shells -> PAOs            250.0
   PAOs       -> AO shells       125.4

Calculating integrals (1.9 sec, 737.208 MB)
Finished


-------------------------------------
Pair Pair Term precalculation with     
RI-(ij|mn) and (im|jn) transformation  
ON THE FLY                             
-------------------------------------

   IBatch   1 (of   3)              ... done (   43.766 sec)
   IBatch   2 (of   3)              ... done (   53.463 sec)
   IBatch   3 (of   3)              ... done (   12.967 sec)
Total EXT                           ...         110.196 sec

---------------------
RI-PNO TRANSFORMATION
---------------------

Total Number of PNOs                   ... 11521
Average number of PNOs per pair        ...    25
Maximal number of PNOs per pair        ...    46
   #pairs with  1 -  5 PNOs   :    0
   #pairs with  6 - 10 PNOs   :   53
   #pairs with 11 - 15 PNOs   :   45
   #pairs with 16 - 20 PNOs   :   47
   #pairs with 21 - 25 PNOs   :  116
   #pairs with 26 - 30 PNOs   :   48
   #pairs with 31 - 35 PNOs   :   60
   #pairs with 36 - 40 PNOs   :   70
   #pairs with 41 - 45 PNOs   :   18
   #pairs with 46 - 50 PNOs   :    2

Generation of (ij|ab)[P] integrals            ... on
Generation of (ia|bc)[P],(ja|bc)[P] integrals ... on
Storage of 3 and 4 external integrals         ... on
Generation of ALL (ka|bc)[P] integrals        ... on
Keep RI integrals in memory                   ... off

Ibatch:  1 (of  1)
Starting 2-4 index PNO integral generation ... done

Timings:
Total PNO integral transformation time     ...         28.547 sec
Size of the 3-external file                ...        86 MB
Size of the 4-external file                ...       384 MB
Size of the IKJL file                      ...         0 MB
Size of the all 3-external file            ...      1339 MB
Size of the 1-external file                ...         8 MB

Making pair/pair overlap matrices          ... done (    7.960 sec)
Size of the pair overlap file              ... 645 MB
Redoing the guess amplitudes               ... done (    1.027 sec)

-------------------------
FINAL STARTUP INFORMATION
-------------------------

E(0)                                       ...   -391.505031690
E(L-MP2)                                   ...     -1.475867426
E(L-MP2) including corrections             ...     -1.475999156
Initial E(tot)                             ...   -392.981030846
<T|T>                                      ...      0.471371762
Number of pairs included                   ... 459
Total number of pairs                      ... 496

------------------------------------------------
                  RHF COUPLED CLUSTER ITERATIONS
------------------------------------------------

Number of PNO amplitudes to be optimized   ...       338903
Number of non-PNO amplitudes               ...     20049579
Untruncated number of regular amplitudes   ...     21665776

Iter       E(tot)           E(Corr)          Delta-E          Residual     Time
  0   -392.936526996     -1.430333016      0.045534410      0.019797615   11.44
                           *** Turning on DIIS ***
  1   -393.054428317     -1.548234336     -0.117901321      0.007489464   12.22
  2   -393.106369538     -1.600175557     -0.051941221      0.001611971   12.67
  3   -393.112836839     -1.606642859     -0.006467301      0.000687902   11.76
  4   -393.114059868     -1.607865887     -0.001223029      0.000138893   11.21
  5   -393.114246784     -1.608052804     -0.000186916      0.000041088   11.87
  6   -393.114280331     -1.608086351     -0.000033547      0.000006381   12.39
               --- The Coupled-Cluster iterations have converged ---

----------------------
COUPLED CLUSTER ENERGY
----------------------

E(0)                                       ...   -391.505031690
E(CORR)(strong-pairs)                      ...     -1.608086351
E(CORR)(weak-pairs)                        ...     -0.001162290
E(CORR)(corrected)                         ...     -1.609248641
E(TOT)                                     ...   -393.114280331
Singles Norm <S|S>**1/2                    ...      0.056521307  
T1 diagnostic                              ...      0.007178213  

------------------
LARGEST AMPLITUDES
------------------
  19-> 50  19-> 50       0.042244
  26-> 50  26-> 50       0.042243
  27-> 50  27-> 50       0.040271
  20-> 50  20-> 50       0.040271
  13-> 41  13-> 41       0.039739
  21-> 50  21-> 50       0.038435
  28-> 50  28-> 50       0.038435
  25-> 41  25-> 41       0.037611
  22-> 41  22-> 41       0.037610
  23-> 41  23-> 41       0.037257
  24-> 41  24-> 41       0.037256
  34-> 41  34-> 41       0.036687
  36-> 41  36-> 41       0.036686
  35-> 41  35-> 41       0.036591
  33-> 41  33-> 41       0.036591
  31-> 50  31-> 50       0.036566


-------------------------------------------
DLPNO BASED TRIPLES CORRECTION
-------------------------------------------

Singles multiplier          ...  1.000000
TCutTNO                     ... 1.000e-09
TCutMP2Pairs                ... 1.000e-06
TCutDOStrong                ... 1.000e-02
TCutMKNStrong               ... 1.000e-02
TCutDOWeak                  ... 2.000e-02
TCutMKNWeak                 ... 1.000e-01

Fragment selection                          .... not used
Number of Triples that are to be computed   ...      5171

 . . . . . . . . .
10% done  
20% done  
30% done  
40% done  
50% done  
60% done  
70% done  
80% done  
90% done               (    283.930 sec)
Triples timings:
Total time for T0               ...   315.172 sec
Total time for Iterative (T)    ...     0.000 sec
Total time of overall (T)       ...   315.930 sec

Triples List generation         ...     0.000 sec
TNO generation                  ...    31.225 sec
Pair density generation         ...     0.005 sec
Look up tables                  ...     0.009 sec
Generating 3-index integrals    ...   172.164 sec
  Make 4-ind.int. from 3-ind.int...    29.635 sec
  Projecting amplitudes (D + S) ...    49.014 sec
  Downprojecting integrals      ...     0.010 sec
  Energy contr. (sum over a,b,c)...     9.053 sec
Fitting ET(->0)                 ...     0.000 sec

Everything after 3-index        ...   111.766 sec

Timing details:
 TNO integrals                  ...   197.638 sec
   Reading 3-index integrals    ...     0.153 sec
   Sorting integrals            ...    27.779 sec
       Sorting integrals 1      ...     0.011 sec
       Sorting integrals 2      ...    15.722 sec
       Sorting integrals 3      ...     1.184 sec
       Sorting integrals 4      ...     0.208 sec
       Sorting integrals 5      ...     0.481 sec
       Sorting integrals 6      ...    10.174 sec
   Calculating local VM**-1/2   ...     1.428 sec
   Orthogonal. integrals        ...     2.099 sec
   Multipl. 3-index integrals   ...   166.178 sec
   All concerning IRIab (w/TNO) ...    14.585 sec

 Calculate W0/W1                ...    24.016 sec
 W 3-ext contribution           ...    11.689 sec
 W 3-int contribution           ...     5.697 sec
 Sorting W                      ...     6.167 sec

 V exchange contribution        ...     3.416 sec

 Timings for Triples without generation
     of 3-index integrals       ...   111.749 sec
       0 weak pairs             ...   103.907 sec
       1 weak pair              ...     7.842 sec
       2 weak pairs             ...     0.000 sec
       3 weak pairs             ...     0.000 sec
  Extra time for extrapolation  ...     0.000 sec

Number of Triples   (0, 1, 2, 3 weak pairs; overall):   4458     713       0       0  (  5171)
Number of Atoms     (0, 1, 2, 3 weak pairs; overall):   27.2    21.4     0.0     0.0  (    32)
Number of PAOs      (0, 1, 2, 3 weak pairs; overall):  220.7   185.8     0.0     0.0  (   250)
Number of AuxFcns   (0, 1, 2, 3 weak pairs; overall):  277.7   228.4     0.0     0.0  (   868)
Number of TNOs      (0, 1, 2, 3 weak pairs         ):   63.9    45.7     0.0     0.0
Aver. Number of NTNO, Atoms, PAOs, AuxFcns / Triples:   5171    61.4    26.4   215.9   270.9

Triples Correction (T)                     ...     -0.049695561
Final correlation energy                   ...     -1.658944202
E(CCSD)                                    ...   -393.114280331
E(CCSD(T))                                 ...   -393.163975892


Maximum memory used throughout the entire calculation: 8034.1 MB


------------------------------------------------------------------------------- 
                                     TIMINGS                                   
------------------------------------------------------------------------------- 


Total execution time                   ...      587.412 sec

Localization of occupied MO's          ...        0.627 sec (  0.1%)
Fock Matrix Formation                  ...        5.174 sec (  0.9%)
Global overlap, Fock, MKN matrices     ...        0.194 sec (  0.0%)
Differential overlap integrals         ...        0.337 sec (  0.1%)
Organizing maps                        ...        0.109 sec (  0.0%)
RI 3-index integral generations        ...        5.085 sec (  0.9%)
RI-PNO integral transformation         ...      148.039 sec ( 25.2%)
Initial Guess                          ...       27.552 sec (  4.7%)
DIIS Solver                            ...        1.113 sec (  0.2%)
State Vector Update                    ...        0.020 sec (  0.0%)
Sigma-vector construction              ...       83.393 sec ( 14.2%)
  <D|H|D>(0-ext)                       ...        7.352 sec (  8.8% of sigma)
  <D|H|D>(2-ext Fock)                  ...        0.021 sec (  0.0% of sigma)
  <D|H|D>(2-ext)                       ...       19.481 sec ( 23.4% of sigma)
  <D|H|D>(4-ext)                       ...        3.779 sec (  4.5% of sigma)
  <D|H|D>(4-ext-corr)                  ...       24.811 sec ( 29.8% of sigma)
  CCSD doubles correction              ...        0.489 sec (  0.6% of sigma)
  <S|H|S>                              ...        0.615 sec (  0.7% of sigma)
  <S|H|D>(1-ext)                       ...        0.712 sec (  0.9% of sigma)
  <D|H|S>(1-ext)                       ...        0.025 sec (  0.0% of sigma)
  <S|H|D>(3-ext)                       ...        0.256 sec (  0.3% of sigma)
  Fock-dressing                        ...       15.395 sec ( 18.5% of sigma)
  Singles amplitudes                   ...        0.517 sec (  0.6% of sigma)
  (ik|jl)-dressing                     ...        5.410 sec (  6.5% of sigma)
  (ij|ab),(ia|jb)-dressing             ...        3.776 sec (  4.5% of sigma)
  Pair energies                        ...        0.008 sec (  0.0% of sigma)
Total Time for computing (T)           ...      316.159 sec ( 53.8% of ALL)


-------------------------   --------------------
FINAL SINGLE POINT ENERGY      -393.163975892224
-------------------------   --------------------


                            ***************************************
                            *     ORCA property calculations      *
                            ***************************************

                                    ---------------------
                                    Active property flags
                                    ---------------------
   (+) Dipole Moment


------------------------------------------------------------------------------
                       ORCA ELECTRIC PROPERTIES CALCULATION
------------------------------------------------------------------------------

Dipole Moment Calculation                       ... on
Quadrupole Moment Calculation                   ... off
Polarizability Calculation                      ... off
GBWName                                         ... TMH_a.gbw
Electron density file                           ... TMH_a.scfp.tmp
The origin for moment calculation is the CENTER OF MASS  = (-0.000002, -0.000003 -0.003671)

-------------
DIPOLE MOMENT
-------------
                                X             Y             Z
Electronic contribution:     -0.00008      -0.00004      -0.29834
Nuclear contribution   :      0.00008       0.00004       0.30110
                        -----------------------------------------
Total Dipole Moment    :      0.00000      -0.00000       0.00275
                        -----------------------------------------
Magnitude (a.u.)       :      0.00275
Magnitude (Debye)      :      0.00700



--------------------
Rotational spectrum 
--------------------
 
Rotational constants in cm-1:     0.068171     0.027325     0.026468 
Rotational constants in MHz :  2043.705362   819.179821   793.487546 

 Dipole components along the rotational axes: 
x,y,z [a.u.] :     0.000002     0.000001     0.002752 
x,y,z [Debye]:     0.000006     0.000003     0.006995 

 

Timings for individual modules:

Sum of individual times         ...      660.557 sec (=  11.009 min)
GTO integral calculation        ...       49.945 sec (=   0.832 min)   7.6 %
SCF iterations                  ...       22.777 sec (=   0.380 min)   3.4 %
MDCI module                     ...      587.835 sec (=   9.797 min)  89.0 %
                             ****ORCA TERMINATED NORMALLY****
TOTAL RUN TIME: 0 days 0 hours 11 minutes 1 seconds 4 msec
TMH_a.gbw -> /home1/pantazis/klk/VDZ/Hydrocarbons/TMH_a.gbw
TMH_a.ges -> /home1/pantazis/klk/VDZ/Hydrocarbons/TMH_a.ges
TMH_a.job -> /home1/pantazis/klk/VDZ/Hydrocarbons/TMH_a.job
TMH_a.loc -> /home1/pantazis/klk/VDZ/Hydrocarbons/TMH_a.loc
TMH_a.nodes -> /home1/pantazis/klk/VDZ/Hydrocarbons/TMH_a.nodes
TMH_a.prop -> /home1/pantazis/klk/VDZ/Hydrocarbons/TMH_a.prop
TMH_a_property.txt -> /home1/pantazis/klk/VDZ/Hydrocarbons/TMH_a_property.txt
TMH_a.xyz -> /home1/pantazis/klk/VDZ/Hydrocarbons/TMH_a.xyz
cp: cannot stat TMH_a.asa.inp: No such file or directory
