! Job execution by suborca V 6.07 on ZEUS !
Job started from zeus1, running /scratch/pantazis/trans1_2dichlorocycloh_eq_eq__cqZ1Y6/orca/orca copied from /opt/orca on zeussn151 in /scratch/pantazis/trans1_2dichlorocycloh_eq_eq__cqZ1Y6
Job execution start: Sat Jun 29 10:25:40 CEST 2019
Shared library path: /scratch/pantazis/trans1_2dichlorocycloh_eq_eq__cqZ1Y6/orca:/opt/openmpi_1.10.2/lib:/opt/intel/mkl/lib/intel64:/opt/intel/lib/intel64:
PBS Job ID is: 158706.icqc
izeussn151
izeussn151
izeussn151
izeussn151

                                 *****************
                                 * O   R   C   A *
                                 *****************

           --- An Ab Initio, DFT and Semiempirical electronic structure package ---

                  #######################################################
                  #                        -***-                        #
                  #          Department of theory and spectroscopy      #
                  #               Directorship: Frank Neese             #
                  #        Max Planck Institute fuer Kohlenforschung    #
                  #                Kaiser Wilhelm Platz 1               #
                  #                 D-45470 Muelheim/Ruhr               #
                  #                      Germany                        #
                  #                                                     #
                  #                  All rights reserved                #
                  #                        -***-                        #
                  #######################################################


                         Program Version 4.1.x  -  STABLE  -
                                (SVN: $Rev: 14094$)
                ($Date: 2019-06-14 15:01:15 +0200 (Fri, 14 Jun 2019) $)

                         (BUILD: $Sun Jun 23 06:18:31 CEST 2019$)


 With contributions from (in alphabetic order):
   Daniel Aravena         : Magnetic Properties
   Michael Atanasov       : Ab Initio Ligand Field Theory
   Alexander A. Auer      : GIAO ZORA
   Ute Becker             : Parallelization
   Giovanni Bistoni       : ED, Open-shell LED
   Martin Brehm           : Molecular dynamics
   Dmytro Bykov           : SCF Hessian
   Vijay G. Chilkuri      : MRCI spin determinant printing
   Dipayan Datta          : RHF DLPNO-CCSD density
   Achintya Kumar Dutta   : EOM-CC, STEOM-CC
   Dmitry Ganyushin       : Spin-Orbit,Spin-Spin,Magnetic field MRCI
   Miquel Garcia          : C-PCM Hessian
   Yang Guo               : DLPNO-NEVPT2, CIM, IAO-localization
   Andreas Hansen         : Spin unrestricted coupled pair/coupled cluster methods
   Benjamin Helmich-Paris : CASSCF linear response (MC-RPA)
   Lee Huntington         : MR-EOM, pCC
   Robert Izsak           : Overlap fitted RIJCOSX, COSX-SCS-MP3, EOM
   Christian Kollmar      : KDIIS, OOCD, Brueckner-CCSD(T), CCSD density
   Simone Kossmann        : Meta GGA functionals, TD-DFT gradient, OOMP2, MP2 Hessian
   Martin Krupicka        : AUTO-CI
   Lucas Lang             : DCDCAS
   Dagmar Lenk            : GEPOL surface, SMD
   Dimitrios Liakos       : Extrapolation schemes; parallel MDCI
   Dimitrios Manganas     : ROCIS; embedding schemes
   Dimitrios Pantazis     : SARC Basis sets
   Taras Petrenko         : DFT Hessian,TD-DFT gradient, ASA, ECA, R-Raman, ABS, FL, XAS/XES, NRVS
   Peter Pinski           : DLPNO-MP2, DLPNO-MP2 Gradient
   Christoph Reimann      : Effective Core Potentials
   Marius Retegan         : Local ZFS, SOC
   Christoph Riplinger    : Optimizer, TS searches, QM/MM, DLPNO-CCSD(T), (RO)-DLPNO pert. Triples
   Tobias Risthaus        : Range-separated hybrids, TD-DFT gradient, RPA, STAB
   Michael Roemelt        : Restricted open shell CIS
   Masaaki Saitow         : Open-shell DLPNO
   Barbara Sandhoefer     : DKH picture change effects
   Avijit Sen             : IP-ROCIS
   Kantharuban Sivalingam : CASSCF convergence, NEVPT2, FIC-MRCI
   Bernardo de Souza      : ESD, SOC TD-DFT
   Georgi Stoychev        : AutoAux, RI-MP2 NMR
   Willem Van den Heuvel  : Paramagnetic NMR
   Boris Wezisla          : Elementary symmetry handling
   Frank Wennmohs         : Technical directorship


 We gratefully acknowledge several colleagues who have allowed us to
 interface, adapt or use parts of their codes:
   Stefan Grimme, W. Hujo, H. Kruse,             : VdW corrections, initial TS optimization,
                  C. Bannwarth                     DFT functionals, gCP, sTDA/sTD-DF
   Ed Valeev                                     : LibInt (2-el integral package), F12 methods
   Garnet Chan, S. Sharma, J. Yang, R. Olivares  : DMRG
   Ulf Ekstrom                                   : XCFun DFT Library
   Mihaly Kallay                                 : mrcc  (arbitrary order and MRCC methods)
   Andreas Klamt, Michael Diedenhofen            : otool_cosmo (COSMO solvation model)
   Jiri Pittner, Ondrej Demel                    : Mk-CCSD
   Frank Weinhold                                : gennbo (NPA and NBO analysis)
   Christopher J. Cramer and Donald G. Truhlar   : smd solvation model
   Lars Goerigk                                  : TD-DFT with DH, B97 family of functionals
   V. Asgeirsson, H. Jonsson                     : NEB implementation
   FAccTs GmbH                                   : IRC, NEB, NEB-TS, Multilevel


 Your calculation uses the libint2 library for the computation of 2-el integrals
 For citations please refer to: http://libint.valeyev.net

 This ORCA versions uses:
   CBLAS   interface :  Fast vector & matrix operations
   LAPACKE interface :  Fast linear algebra routines
   SCALAPACK package :  Parallel linear algebra routines




***************************************
The coordinates will be read from file: trans1_2dichlorocycloh_eq_eq.xyz
***************************************


----- Orbital basis set information -----
Your calculation utilizes the basis: cc-pVDZ 
       H, B-Ne : Obtained from the ccRepo (grant-hill.group.shef.ac.uk/ccrepo) Feb. 2017
                 T. H. Dunning, Jr., J. Chem. Phys. 90, 1007 (1989)
            He : Obtained from the ccRepo (grant-hill.group.shef.ac.uk/ccrepo) Feb. 2017
                 D. E. Woon, T. H. Dunning, Jr., J. Chem. Phys. 100, 2975 (1994)
  Li-Be, Na-Mg : Obtained from the ccRepo (grant-hill.group.shef.ac.uk/ccrepo) Feb. 2017
                 B. P. Prascher, D. E. Woon, K. A. Peterson, T. H. Dunning, Jr., A. K. Wilson, Theor. Chem. Acc. 128, 69 (2011)
         Al-Ar : Obtained from the ccRepo (grant-hill.group.shef.ac.uk/ccrepo) Feb. 2017
                 D. E. Woon, T. H. Dunning, Jr., J. Chem. Phys. 98, 1358 (1993)
            Ca : Obtained from the Peterson Research Group Website (tyr0.chem.wsu.edu/~kipeters) Feb. 2017
                 J. Koput, K. A. Peterson, J. Phys. Chem. 106, 9595 (2002)
         Sc-Zn : Obtained from the ccRepo (grant-hill.group.shef.ac.uk/ccrepo) Feb. 2017
                 N. B. Balabanov, K. A. Peterson, J. Chem. Phys. 123, 064107 (2005)
                 N. B. Balabanov, K. A. Peterson, J. Chem. Phys. 125, 074110 (2006)
         Ga-Kr : Obtained from the ccRepo (grant-hill.group.shef.ac.uk/ccrepo) Feb. 2017
                 A. K. Wilson, D. E. Woon, K. A. Peterson, T. H. Dunning, Jr., J. Chem. Phys. 110, 7667 (1999)

----- AuxC basis set information -----
Your calculation utilizes the auxiliary basis: cc-pVDZ/C 
  H-He, B, Ne, Al-Ar, Ga-Br : Obtained from the EMSL Basis Set Exchange (bse.pnl.gov) Feb. 2017
                              F. Weigend, A. Kohn, C. Hattig, J. Chem. Phys. 116, 3175 (2002)
               Li-Be, Na-Mg : Obtained from the EMSL Basis Set Exchange (bse.pnl.gov) Feb. 2017
                              C. Haettig, Phys. Chem. Chem. Phys. 7, 59 (2005)
                        C-F : Obtained from the EMSL Basis Set Exchange (bse.pnl.gov) Feb. 2017
                              C. Haettig, Phys. Chem. Chem. Phys. 7, 59 (2005)
                              F. Weigend, A. Kohn, C. Hattig, J. Chem. Phys. 116, 3175 (2002)
                         Kr : Obtained from the TURBOMOLE 7.0 basis set library
                              F. Weigend, A. Kohn, C. Hattig, J. Chem. Phys. 116, 3175 (2002)
                              S function revised in Sep. 2009

----- AuxJK basis set information -----
Your calculation utilizes the auxiliary basis: cc-pVTZ/JK 
  H, B-F, Al-Cl, Ga-Br : Obtained from the TURBOMOLE 7.0 basis set library

================================================================================
                                        WARNINGS
                       Please study these warnings very carefully!
================================================================================


WARNING: MDCI localization with Augmented Hessian Foster-Boys
  ===> : Switching off randomization!

WARNING: Post HF methods need fully converged wavefunctions
  ===> : Setting SCFConvForced true
         You can overwrite this default with %scf ConvForced false 


INFO   : the flag for use of LIBINT has been found!

================================================================================
                                       INPUT FILE
================================================================================
NAME = trans1_2dichlorocycloh_eq_eq.inp
|  1> ! RHF DLPNO-CCSD(T) cc-pVDZ RIJK cc-pVTZ/JK cc-pVDZ/C
|  2> ! KDIIS SOSCF TightSCF TightPNO
|  3> 
|  4> %pal nprocs 4 end
|  5> 
|  6> %maxcore 8000
|  7> 
|  8> %scf maxiter 300
|  9>      shift shift 0.2 erroff 0.1 end
| 10> end
| 11> 
| 12> * xyzfile 0 1 trans1_2dichlorocycloh_eq_eq.xyz 
| 13> 
| 14> 
| 15>                          ****END OF INPUT****
================================================================================

                       ****************************
                       * Single Point Calculation *
                       ****************************

---------------------------------
CARTESIAN COORDINATES (ANGSTROEM)
---------------------------------
  C      2.377860    0.681540    0.351610
  C      2.377860   -0.681530   -0.351600
  C      1.107910   -1.474520   -0.005360
  C     -0.163230   -0.683480   -0.343650
  C     -0.163220    0.683470    0.343650
  C      1.107900    1.474530    0.005350
  Cl    -1.620810   -1.672080    0.141310
  Cl    -1.620810    1.672080   -0.141310
  H      1.099350   -1.712470    1.065820
  H      1.080660   -2.428040   -0.541900
  H     -0.260040   -0.548360   -1.424230
  H     -0.260050    0.548370    1.424230
  H      3.259550   -1.266200   -0.065120
  H      2.438970   -0.534080   -1.438900
  H      1.099350    1.712460   -1.065830
  H      1.080640    2.428050    0.541880
  H      3.259540    1.266210    0.065110
  H      2.438990    0.534070    1.438900

----------------------------
CARTESIAN COORDINATES (A.U.)
----------------------------
  NO LB      ZA    FRAG     MASS         X           Y           Z
   0 C     6.0000    0    12.011    4.493504    1.287924    0.664447
   1 C     6.0000    0    12.011    4.493504   -1.287905   -0.664428
   2 C     6.0000    0    12.011    2.093646   -2.786439   -0.010129
   3 C     6.0000    0    12.011   -0.308460   -1.291590   -0.649404
   4 C     6.0000    0    12.011   -0.308441    1.291571    0.649404
   5 C     6.0000    0    12.011    2.093628    2.786458    0.010110
   6 Cl   17.0000    0    35.453   -3.062887   -3.159773    0.267037
   7 Cl   17.0000    0    35.453   -3.062887    3.159773   -0.267037
   8 H     1.0000    0     1.008    2.077470   -3.236099    2.014108
   9 H     1.0000    0     1.008    2.042151   -4.588331   -1.024043
  10 H     1.0000    0     1.008   -0.491404   -1.036250   -2.691405
  11 H     1.0000    0     1.008   -0.491423    1.036269    2.691405
  12 H     1.0000    0     1.008    6.159657   -2.392771   -0.123059
  13 H     1.0000    0     1.008    4.608985   -1.009265   -2.719127
  14 H     1.0000    0     1.008    2.077470    3.236080   -2.014127
  15 H     1.0000    0     1.008    2.042114    4.588350    1.024005
  16 H     1.0000    0     1.008    6.159638    2.392790    0.123040
  17 H     1.0000    0     1.008    4.609023    1.009246    2.719127

--------------------------------
INTERNAL COORDINATES (ANGSTROEM)
--------------------------------
 C      0   0   0     0.000000000000     0.00000000     0.00000000
 C      1   0   0     1.533774471361     0.00000000     0.00000000
 C      2   1   0     1.536713467176   110.81155453     0.00000000
 C      3   2   1     1.534920618566   111.64076955    55.83122463
 C      4   3   2     1.530010977934   111.18788831   304.67853170
 C      5   4   3     1.534916567114   111.18914767    54.70755206
 Cl     4   3   2     1.826760963564   108.86687582   181.63296621
 Cl     5   4   3     1.826774354374   111.36098547   176.30816571
 H      3   2   1     1.097324048994   109.77268730   295.23652609
 H      3   2   1     1.094448776554   111.08189751   177.31768059
 H      4   3   2     1.093289864080   110.78481185    66.66978129
 H      5   4   3     1.093289163625   109.48667072   291.96223720
 H      2   1   3     1.096032415305   110.74649118   238.51932422
 H      2   1   3     1.098952785428   109.53494079   121.24292096
 H      6   5   4     1.097319634291   108.69003284    65.90212538
 H      6   5   4     1.094444123242   108.68348098   181.81199360
 H      1   2   3     1.096029598734   110.74603436   182.79989809
 H      1   2   3     1.098946687469   109.53381668    65.52345867

---------------------------
INTERNAL COORDINATES (A.U.)
---------------------------
 C      0   0   0     0.000000000000     0.00000000     0.00000000
 C      1   0   0     2.898413702073     0.00000000     0.00000000
 C      2   1   0     2.903967599271   110.81155453     0.00000000
 C      3   2   1     2.900579606399   111.64076955    55.83122463
 C      4   3   2     2.891301730189   111.18788831   304.67853170
 C      5   4   3     2.900571950263   111.18914767    54.70755206
 Cl     4   3   2     3.452077933273   108.86687582   181.63296621
 Cl     5   4   3     3.452103238238   111.36098547   176.30816571
 H      3   2   1     2.073641932764   109.77268730   295.23652609
 H      3   2   1     2.068208455292   111.08189751   177.31768059
 H      4   3   2     2.066018428103   110.78481185    66.66978129
 H      5   4   3     2.066017104435   109.48667072   291.96223720
 H      2   1   3     2.071201098827   110.74649118   238.51932422
 H      2   1   3     2.076719798569   109.53494079   121.24292096
 H      6   5   4     2.073633590184   108.69003284    65.90212538
 H      6   5   4     2.068199661808   108.68348098   181.81199360
 H      1   2   3     2.071195776278   110.74603436   182.79989809
 H      1   2   3     2.076708275097   109.53381668    65.52345867

---------------------
BASIS SET INFORMATION
---------------------
There are 3 groups of distinct atoms

 Group   1 Type C   : 17s4p1d contracted to 3s2p1d pattern {881/31/1}
 Group   2 Type Cl  : 34s15p1d contracted to 4s3p1d pattern {1111111/771/1}
 Group   3 Type H   : 4s1p contracted to 2s1p pattern {31/1}

Atom   0C    basis set group =>   1
Atom   1C    basis set group =>   1
Atom   2C    basis set group =>   1
Atom   3C    basis set group =>   1
Atom   4C    basis set group =>   1
Atom   5C    basis set group =>   1
Atom   6Cl   basis set group =>   2
Atom   7Cl   basis set group =>   2
Atom   8H    basis set group =>   3
Atom   9H    basis set group =>   3
Atom  10H    basis set group =>   3
Atom  11H    basis set group =>   3
Atom  12H    basis set group =>   3
Atom  13H    basis set group =>   3
Atom  14H    basis set group =>   3
Atom  15H    basis set group =>   3
Atom  16H    basis set group =>   3
Atom  17H    basis set group =>   3
-------------------------------
AUXILIARY BASIS SET INFORMATION
-------------------------------
There are 3 groups of distinct atoms

 Group   1 Type C   : 7s5p4d2f contracted to 7s5p4d2f pattern {1111111/11111/1111/11}
 Group   2 Type Cl  : 9s7p5d3f contracted to 9s7p5d3f pattern {111111111/1111111/11111/111}
 Group   3 Type H   : 3s2p1d contracted to 3s2p1d pattern {111/11/1}

Atom   0C    basis set group =>   1
Atom   1C    basis set group =>   1
Atom   2C    basis set group =>   1
Atom   3C    basis set group =>   1
Atom   4C    basis set group =>   1
Atom   5C    basis set group =>   1
Atom   6Cl   basis set group =>   2
Atom   7Cl   basis set group =>   2
Atom   8H    basis set group =>   3
Atom   9H    basis set group =>   3
Atom  10H    basis set group =>   3
Atom  11H    basis set group =>   3
Atom  12H    basis set group =>   3
Atom  13H    basis set group =>   3
Atom  14H    basis set group =>   3
Atom  15H    basis set group =>   3
Atom  16H    basis set group =>   3
Atom  17H    basis set group =>   3
-------------------------------
AUXILIARY BASIS SET INFORMATION
-------------------------------
There are 3 groups of distinct atoms

 Group   1 Type C   : 10s7p5d2f1g contracted to 10s7p5d2f1g pattern {1111111111/1111111/11111/11/1}
 Group   2 Type Cl  : 13s11p9d3f1g contracted to 13s11p9d3f1g pattern {1111111111111/11111111111/111111111/111/1}
 Group   3 Type H   : 4s3p2d1f contracted to 4s3p2d1f pattern {1111/111/11/1}

Atom   0C    basis set group =>   1
Atom   1C    basis set group =>   1
Atom   2C    basis set group =>   1
Atom   3C    basis set group =>   1
Atom   4C    basis set group =>   1
Atom   5C    basis set group =>   1
Atom   6Cl   basis set group =>   2
Atom   7Cl   basis set group =>   2
Atom   8H    basis set group =>   3
Atom   9H    basis set group =>   3
Atom  10H    basis set group =>   3
Atom  11H    basis set group =>   3
Atom  12H    basis set group =>   3
Atom  13H    basis set group =>   3
Atom  14H    basis set group =>   3
Atom  15H    basis set group =>   3
Atom  16H    basis set group =>   3
Atom  17H    basis set group =>   3

Checking for AutoStart:
The File: trans1_2dichlorocycloh_eq_eq.gbw exists
Trying to determine its content:
     ... Fine, the file contains calculation information
     ... Fine, the calculation information was read
     ... Fine, the file contains a basis set
     ... Fine, the basis set was read
     ... Fine, the file contains a geometry
     ... Fine, the geometry was read
     ... Fine, the file contains a set of orbitals
     ... Fine, the orbitals can be read
     => possible old guess file was deleted
     => GBW file was renamed to GES file
     => GES file is set as startup file
     => Guess is set to MORead
     ... now leaving AutoStart



           ************************************************************
           *        Program running with 4 parallel MPI-processes     *
           *              working on a common directory               *
           ************************************************************
------------------------------------------------------------------------------
                           ORCA GTO INTEGRAL CALCULATION
                           -- RI-GTO INTEGRALS CHOSEN --
------------------------------------------------------------------------------

                         BASIS SET STATISTICS AND STARTUP INFO

Gaussian basis set:
 # of primitive gaussian shells          ...  282
 # of primitive gaussian functions       ...  442
 # of contracted shells                  ...   82
 # of contracted basis functions         ...  170
 Highest angular momentum                ...    2
 Maximum contraction depth               ...   11
Auxiliary gaussian basis set:
 # of primitive gaussian shells          ...  324
 # of primitive gaussian functions       ... 1016
 # of contracted shells                  ...  324
 # of contracted aux-basis functions     ... 1016
 Highest angular momentum                ...    4
 Maximum contraction depth               ...    1
Ratio of auxiliary to basis functions    ...  5.98
Integral package used                  ... LIBINT
 One Electron integrals                  ... done
 Ordering auxiliary basis shells         ... done
 Integral threshhold             Thresh  ...  2.500e-11
 Primitive cut-off               TCut    ...  2.500e-12
 Pre-screening matrix                    ... done
 Shell pair data                         ... 
 Ordering of the shell pairs             ... done (   0.001 sec) 3350 of 3403 pairs
 Determination of significant pairs      ... done (   0.000 sec)
 Creation of shell pair data             ... done (   0.002 sec)
 Storage of shell pair data              ... done (   0.002 sec)
 Shell pair data done in (   0.004 sec)
 Computing two index integrals           ... done
 Cholesky decomposition of the V-matrix  ... done


Timings:
 Total evaluation time                   ...   0.626 sec (  0.010 min)
 One electron matrix time                ...   0.044 sec (  0.001 min) =  7.0%
 Schwartz matrix evaluation time         ...   0.314 sec (  0.005 min) = 50.2%
 Two index repulsion integral time       ...   0.114 sec (  0.002 min) = 18.2%
 Cholesky decomposition of V             ...   0.123 sec (  0.002 min) = 19.7%
 Three index repulsion integral time     ...   0.000 sec (  0.000 min) =  0.0%



           ************************************************************
           *        Program running with 4 parallel MPI-processes     *
           *              working on a common directory               *
           ************************************************************
-------------------------------------------------------------------------------
                                 ORCA SCF
-------------------------------------------------------------------------------

------------
SCF SETTINGS
------------
Hamiltonian:
 Ab initio Hamiltonian  Method          .... Hartree-Fock(GTOs)
 RI-approximation to the Coulomb term is turned on
   Number of auxiliary basis functions  .... 1016
   RI-JK (J+K treated both via RI)      .... on


General Settings:
 Integral files         IntName         .... trans1_2dichlorocycloh_eq_eq
 Hartree-Fock type      HFTyp           .... RHF
 Total Charge           Charge          ....    0
 Multiplicity           Mult            ....    1
 Number of Electrons    NEL             ....   80
 Basis Dimension        Dim             ....  170
 Nuclear Repulsion      ENuc            ....    541.5994759958 Eh

Convergence Acceleration:
 DIIS                   CNVDIIS         .... off
 Newton-Raphson         CNVNR           .... off
 SOSCF                  CNVSOSCF        .... on
   Start iteration      SOSCFMaxIt      ....   150
   Startup grad/error   SOSCFStart      ....  0.003300
 Level Shifting         CNVShift        .... on
   Level shift para.    LevelShift      ....    0.2000
   Turn off err/grad.   ShiftErr        ....    0.1000
 Zerner damping         CNVZerner       .... off
 Static damping         CNVDamp         .... off
 Fernandez-Rico         CNVRico         .... off

SCF Procedure:
 Maximum # iterations   MaxIter         ....   300
 SCF integral mode      SCFMode         .... Direct
   Integral package                     .... LIBINT
 Reset frequency        DirectResetFreq ....    20
 Integral Threshold     Thresh          ....  2.500e-11 Eh
 Primitive CutOff       TCut            ....  2.500e-12 Eh

Convergence Tolerance:
 Convergence Check Mode ConvCheckMode   .... Total+1el-Energy
 Convergence forced     ConvForced      .... 1
 Energy Change          TolE            ....  1.000e-08 Eh
 1-El. energy change                    ....  1.000e-05 Eh
 Orbital Gradient       TolG            ....  1.000e-05
 Orbital Rotation angle TolX            ....  1.000e-05


Diagonalization of the overlap matrix:
Smallest eigenvalue                        ... 3.390e-03
Time for diagonalization                   ...    0.007 sec
Threshold for overlap eigenvalues          ... 1.000e-08
Number of eigenvalues below threshold      ... 0
Time for construction of square roots      ...    0.006 sec
Total time needed                          ...    0.013 sec

---------------------
INITIAL GUESS: MOREAD
---------------------
Guess MOs are being read from file: trans1_2dichlorocycloh_eq_eq.ges
Input Geometry matches current geometry (good)
Atom 0: N(Shells)= 6 and 10 - projection required
Input basis set needs projection
NBasis(read)= 388
NBasis(calc)= 170
Basis set overlap was calculated
Using GuessMode=FMatrix for the initial guess
C*T matrix was formed
Effective Fockian was calculated
Effective Fockian was diagonalized
Initial density was built
                      ------------------
                      INITIAL GUESS DONE (   0.1 sec)
                      ------------------
--------------
SCF ITERATIONS
--------------
ITER       Energy         Delta-E        Max-DP      RMS-DP      [F,P]   Gradient Norm
                             ****Turning on KDIIS(Cayley)****
  0  -1152.0710434128   0.000000000000 0.00149015  0.00005714  0.0043985   0.004902392
  1  -1152.0712080412  -0.000164628358 0.00295247  0.00011120  0.0040034   0.004455714
                      *** Initiating the SOSCF procedure ***
                           *** Shutting down KDIIS ***
                      *** Re-Reading the Fockian *** 
                      *** Removing any level shift *** 
ITER      Energy       Delta-E        Grad      Rot      Max-DP    RMS-DP
  2  -1152.07148748  -0.0002794381  0.003209  0.003209  0.004662  0.000182
  3  -1152.07182705  -0.0003395687  0.001924  0.000952  0.006057  0.000248
  4  -1152.07201207  -0.0001850259  0.000472  0.000432  0.001024  0.000046
  5  -1152.07201998  -0.0000079035  0.000145  0.000128  0.000330  0.000014
  6  -1152.07202120  -0.0000012226  0.000036  0.000043  0.000125  0.000004
  7  -1152.07202126  -0.0000000614  0.000012  0.000011  0.000019  0.000001
                  ***Gradient check signals convergence***
              ***Rediagonalizing the Fockian in SOSCF/NRSCF***

               *****************************************************
               *                     SUCCESS                       *
               *           SCF CONVERGED AFTER   8 CYCLES          *
               *****************************************************


----------------
TOTAL SCF ENERGY
----------------

Total Energy       :        -1152.07202127 Eh          -31349.47348 eV

Components:
Nuclear Repulsion  :          541.59947600 Eh           14737.67099 eV
Electronic Energy  :        -1693.67149726 Eh          -46087.14447 eV
One Electron Energy:        -2662.03039656 Eh          -72437.52974 eV
Two Electron Energy:          968.35889930 Eh           26350.38528 eV

Virial components:
Potential Energy   :        -2303.92505224 Eh          -62692.98792 eV
Kinetic Energy     :         1151.85303097 Eh           31343.51445 eV
Virial Ratio       :            2.00019012


---------------
SCF CONVERGENCE
---------------

  Last Energy change         ...   -6.1980e-09  Tolerance :   1.0000e-08
  Last MAX-Density change    ...    9.7429e-06  Tolerance :   1.0000e-07
  Last RMS-Density change    ...    4.2705e-07  Tolerance :   5.0000e-09
  Last Orbital Gradient      ...    1.9976e-06  Tolerance :   1.0000e-05
  Last Orbital Rotation      ...    4.9611e-06  Tolerance :   1.0000e-05

             **** THE GBW FILE WAS UPDATED (trans1_2dichlorocycloh_eq_eq.gbw) ****
             **** DENSITY FILE WAS UPDATED (trans1_2dichlorocycloh_eq_eq.scfp.tmp) ****
             **** ENERGY FILE WAS UPDATED (trans1_2dichlorocycloh_eq_eq.en.tmp) ****
----------------
ORBITAL ENERGIES
----------------

  NO   OCC          E(Eh)            E(eV) 
   0   2.0000    -104.813951     -2852.1326 
   1   2.0000    -104.813947     -2852.1325 
   2   2.0000     -11.315273      -307.9042 
   3   2.0000     -11.314662      -307.8876 
   4   2.0000     -11.253143      -306.2136 
   5   2.0000     -11.253140      -306.2135 
   6   2.0000     -11.248211      -306.0794 
   7   2.0000     -11.247622      -306.0633 
   8   2.0000     -10.540591      -286.8241 
   9   2.0000     -10.540584      -286.8239 
  10   2.0000      -8.008013      -217.9091 
  11   2.0000      -8.008010      -217.9090 
  12   2.0000      -8.004807      -217.8219 
  13   2.0000      -8.004804      -217.8218 
  14   2.0000      -8.004756      -217.8205 
  15   2.0000      -8.004753      -217.8204 
  16   2.0000      -1.185055       -32.2470 
  17   2.0000      -1.106707       -30.1150 
  18   2.0000      -1.094298       -29.7774 
  19   2.0000      -1.011658       -27.5286 
  20   2.0000      -0.980581       -26.6830 
  21   2.0000      -0.856759       -23.3136 
  22   2.0000      -0.835602       -22.7379 
  23   2.0000      -0.787161       -21.4197 
  24   2.0000      -0.663095       -18.0437 
  25   2.0000      -0.639108       -17.3910 
  26   2.0000      -0.633183       -17.2298 
  27   2.0000      -0.616185       -16.7672 
  28   2.0000      -0.578663       -15.7462 
  29   2.0000      -0.552773       -15.0417 
  30   2.0000      -0.547385       -14.8951 
  31   2.0000      -0.526533       -14.3277 
  32   2.0000      -0.519080       -14.1249 
  33   2.0000      -0.484131       -13.1739 
  34   2.0000      -0.471431       -12.8283 
  35   2.0000      -0.470945       -12.8151 
  36   2.0000      -0.439753       -11.9663 
  37   2.0000      -0.436109       -11.8671 
  38   2.0000      -0.425604       -11.5813 
  39   2.0000      -0.418283       -11.3821 
  40   0.0000       0.144239         3.9249 
  41   0.0000       0.176185         4.7942 
  42   0.0000       0.202197         5.5021 
  43   0.0000       0.203200         5.5294 
  44   0.0000       0.211702         5.7607 
  45   0.0000       0.228913         6.2291 
  46   0.0000       0.247503         6.7349 
  47   0.0000       0.252144         6.8612 
  48   0.0000       0.256651         6.9838 
  49   0.0000       0.263347         7.1660 
  50   0.0000       0.267316         7.2740 
  51   0.0000       0.277707         7.5568 
  52   0.0000       0.357383         9.7249 
  53   0.0000       0.362015         9.8509 
  54   0.0000       0.363382         9.8881 
  55   0.0000       0.381375        10.3777 
  56   0.0000       0.397109        10.8059 
  57   0.0000       0.418281        11.3820 
  58   0.0000       0.567671        15.4471 
  59   0.0000       0.594929        16.1888 
  60   0.0000       0.601911        16.3788 
  61   0.0000       0.604934        16.4611 
  62   0.0000       0.610104        16.6018 
  63   0.0000       0.618618        16.8335 
  64   0.0000       0.623267        16.9600 
  65   0.0000       0.696669        18.9573 
  66   0.0000       0.718089        19.5402 
  67   0.0000       0.739653        20.1270 
  68   0.0000       0.764725        20.8092 
  69   0.0000       0.767376        20.8814 
  70   0.0000       0.778926        21.1956 
  71   0.0000       0.791938        21.5497 
  72   0.0000       0.801520        21.8105 
  73   0.0000       0.803930        21.8761 
  74   0.0000       0.810959        22.0673 
  75   0.0000       0.817895        22.2561 
  76   0.0000       0.830709        22.6047 
  77   0.0000       0.836808        22.7707 
  78   0.0000       0.843843        22.9621 
  79   0.0000       0.852044        23.1853 
  80   0.0000       0.865669        23.5561 
  81   0.0000       0.865704        23.5570 
  82   0.0000       0.873071        23.7575 
  83   0.0000       0.884250        24.0617 
  84   0.0000       0.885120        24.0853 
  85   0.0000       0.891239        24.2518 
  86   0.0000       0.905001        24.6263 
  87   0.0000       0.905999        24.6535 
  88   0.0000       0.924387        25.1539 
  89   0.0000       0.935128        25.4461 
  90   0.0000       0.988999        26.9120 
  91   0.0000       1.006339        27.3839 
  92   0.0000       1.019134        27.7320 
  93   0.0000       1.035893        28.1881 
  94   0.0000       1.036272        28.1984 
  95   0.0000       1.041513        28.3410 
  96   0.0000       1.043108        28.3844 
  97   0.0000       1.065407        28.9912 
  98   0.0000       1.148492        31.2521 
  99   0.0000       1.172443        31.9038 
 100   0.0000       1.205590        32.8058 
 101   0.0000       1.209672        32.9168 
 102   0.0000       1.257952        34.2306 
 103   0.0000       1.284260        34.9465 
 104   0.0000       1.340475        36.4762 
 105   0.0000       1.386848        37.7381 
 106   0.0000       1.397271        38.0217 
 107   0.0000       1.432879        38.9906 
 108   0.0000       1.442968        39.2652 
 109   0.0000       1.454512        39.5793 
 110   0.0000       1.489012        40.5181 
 111   0.0000       1.538286        41.8589 
 112   0.0000       1.559918        42.4475 
 113   0.0000       1.587962        43.2107 
 114   0.0000       1.608434        43.7677 
 115   0.0000       1.656829        45.0846 
 116   0.0000       1.680640        45.7325 
 117   0.0000       1.700490        46.2727 
 118   0.0000       1.763123        47.9770 
 119   0.0000       1.788376        48.6642 
 120   0.0000       1.845455        50.2174 
 121   0.0000       1.853778        50.4439 
 122   0.0000       1.870172        50.8900 
 123   0.0000       1.879624        51.1472 
 124   0.0000       1.885139        51.2972 
 125   0.0000       1.891579        51.4725 
 126   0.0000       1.913934        52.0808 
 127   0.0000       1.923839        52.3503 
 128   0.0000       1.933822        52.6220 
 129   0.0000       1.943566        52.8871 
 130   0.0000       1.959939        53.3326 
 131   0.0000       2.000810        54.4448 
 132   0.0000       2.004752        54.5521 
 133   0.0000       2.014212        54.8095 
 134   0.0000       2.022296        55.0295 
 135   0.0000       2.024333        55.0849 
 136   0.0000       2.049273        55.7636 
 137   0.0000       2.054879        55.9161 
 138   0.0000       2.069821        56.3227 
 139   0.0000       2.113144        57.5016 
 140   0.0000       2.138866        58.2015 
 141   0.0000       2.153712        58.6055 
 142   0.0000       2.186582        59.4999 
 143   0.0000       2.192879        59.6713 
 144   0.0000       2.241858        61.0041 
 145   0.0000       2.273214        61.8573 
 146   0.0000       2.278688        62.0063 
 147   0.0000       2.315565        63.0097 
 148   0.0000       2.384473        64.8848 
 149   0.0000       2.401531        65.3490 
 150   0.0000       2.421941        65.9044 
 151   0.0000       2.454395        66.7875 
 152   0.0000       2.470736        67.2322 
 153   0.0000       2.518469        68.5310 
 154   0.0000       2.519280        68.5531 
 155   0.0000       2.538615        69.0792 
 156   0.0000       2.567799        69.8734 
 157   0.0000       2.597118        70.6712 
 158   0.0000       2.641943        71.8909 
 159   0.0000       2.653539        72.2065 
 160   0.0000       2.727891        74.2297 
 161   0.0000       2.807459        76.3948 
 162   0.0000       2.839536        77.2677 
 163   0.0000       2.855630        77.7057 
 164   0.0000       2.880884        78.3928 
 165   0.0000       2.886049        78.5334 
 166   0.0000       2.986276        81.2607 
 167   0.0000       3.010023        81.9069 
 168   0.0000       3.029448        82.4355 
 169   0.0000       3.074771        83.6688 

                    ********************************
                    * MULLIKEN POPULATION ANALYSIS *
                    ********************************

-----------------------
MULLIKEN ATOMIC CHARGES
-----------------------
   0 C :   -0.049461
   1 C :   -0.049464
   2 C :    0.022380
   3 C :   -0.090333
   4 C :   -0.090337
   5 C :    0.022387
   6 Cl:   -0.140714
   7 Cl:   -0.140727
   8 H :    0.045525
   9 H :    0.053114
  10 H :    0.086071
  11 H :    0.086073
  12 H :    0.039182
  13 H :    0.034239
  14 H :    0.045527
  15 H :    0.053115
  16 H :    0.039181
  17 H :    0.034241
Sum of atomic charges:   -0.0000000

--------------------------------
MULLIKEN REDUCED ORBITAL CHARGES
--------------------------------
  0 C s       :     3.071997  s :     3.071997
      pz      :     0.986081  p :     2.894777
      px      :     0.964029
      py      :     0.944668
      dz2     :     0.023299  d :     0.082687
      dxz     :     0.007188
      dyz     :     0.013928
      dx2y2   :     0.015893
      dxy     :     0.022379
  1 C s       :     3.071997  s :     3.071997
      pz      :     0.986081  p :     2.894778
      px      :     0.964027
      py      :     0.944670
      dz2     :     0.023300  d :     0.082688
      dxz     :     0.007188
      dyz     :     0.013928
      dx2y2   :     0.015893
      dxy     :     0.022380
  2 C s       :     3.057958  s :     3.057958
      pz      :     1.001747  p :     2.839155
      px      :     0.858601
      py      :     0.978807
      dz2     :     0.020259  d :     0.080508
      dxz     :     0.010169
      dyz     :     0.012164
      dx2y2   :     0.016801
      dxy     :     0.021115
  3 C s       :     3.216359  s :     3.216359
      pz      :     1.048941  p :     2.762200
      px      :     0.840114
      py      :     0.873145
      dz2     :     0.026878  d :     0.111774
      dxz     :     0.013968
      dyz     :     0.017929
      dx2y2   :     0.024357
      dxy     :     0.028643
  4 C s       :     3.216364  s :     3.216364
      pz      :     1.048943  p :     2.762199
      px      :     0.840109
      py      :     0.873147
      dz2     :     0.026879  d :     0.111774
      dxz     :     0.013968
      dyz     :     0.017929
      dx2y2   :     0.024356
      dxy     :     0.028643
  5 C s       :     3.057954  s :     3.057954
      pz      :     1.001746  p :     2.839151
      px      :     0.858600
      py      :     0.978806
      dz2     :     0.020259  d :     0.080507
      dxz     :     0.010169
      dyz     :     0.012163
      dx2y2   :     0.016801
      dxy     :     0.021116
  6 Cls       :     5.932809  s :     5.932809
      pz      :     3.916645  p :    11.175489
      px      :     3.514495
      py      :     3.744349
      dz2     :     0.004805  d :     0.032416
      dxz     :     0.005249
      dyz     :     0.002757
      dx2y2   :     0.005278
      dxy     :     0.014328
  7 Cls       :     5.932811  s :     5.932811
      pz      :     3.916647  p :    11.175502
      px      :     3.514504
      py      :     3.744350
      dz2     :     0.004805  d :     0.032415
      dxz     :     0.005248
      dyz     :     0.002757
      dx2y2   :     0.005277
      dxy     :     0.014327
  8 H s       :     0.925386  s :     0.925386
      pz      :     0.020471  p :     0.029089
      px      :     0.003357
      py      :     0.005262
  9 H s       :     0.916987  s :     0.916987
      pz      :     0.008810  p :     0.029899
      px      :     0.003626
      py      :     0.017463
 10 H s       :     0.886120  s :     0.886120
      pz      :     0.022239  p :     0.027809
      px      :     0.002536
      py      :     0.003033
 11 H s       :     0.886119  s :     0.886119
      pz      :     0.022239  p :     0.027809
      px      :     0.002537
      py      :     0.003033
 12 H s       :     0.931129  s :     0.931129
      pz      :     0.005913  p :     0.029689
      px      :     0.015055
      py      :     0.008720
 13 H s       :     0.936831  s :     0.936831
      pz      :     0.020415  p :     0.028930
      px      :     0.004288
      py      :     0.004227
 14 H s       :     0.925384  s :     0.925384
      pz      :     0.020471  p :     0.029089
      px      :     0.003357
      py      :     0.005261
 15 H s       :     0.916986  s :     0.916986
      pz      :     0.008810  p :     0.029899
      px      :     0.003626
      py      :     0.017463
 16 H s       :     0.931129  s :     0.931129
      pz      :     0.005913  p :     0.029689
      px      :     0.015055
      py      :     0.008720
 17 H s       :     0.936829  s :     0.936829
      pz      :     0.020415  p :     0.028930
      px      :     0.004288
      py      :     0.004227


                     *******************************
                     * LOEWDIN POPULATION ANALYSIS *
                     *******************************

----------------------
LOEWDIN ATOMIC CHARGES
----------------------
   0 C :   -0.031499
   1 C :   -0.031502
   2 C :   -0.033657
   3 C :   -0.077152
   4 C :   -0.077143
   5 C :   -0.033654
   6 Cl:    0.010499
   7 Cl:    0.010484
   8 H :    0.025111
   9 H :    0.031135
  10 H :    0.027658
  11 H :    0.027658
  12 H :    0.027281
  13 H :    0.020626
  14 H :    0.025112
  15 H :    0.031134
  16 H :    0.027280
  17 H :    0.020626

-------------------------------
LOEWDIN REDUCED ORBITAL CHARGES
-------------------------------
  0 C s       :     2.791919  s :     2.791919
      pz      :     1.028446  p :     3.034965
      px      :     1.005343
      py      :     1.001176
      dz2     :     0.059677  d :     0.204614
      dxz     :     0.017066
      dyz     :     0.032066
      dx2y2   :     0.039054
      dxy     :     0.056751
  1 C s       :     2.791919  s :     2.791919
      pz      :     1.028444  p :     3.034966
      px      :     1.005344
      py      :     1.001177
      dz2     :     0.059678  d :     0.204617
      dxz     :     0.017065
      dyz     :     0.032066
      dx2y2   :     0.039055
      dxy     :     0.056753
  2 C s       :     2.794941  s :     2.794941
      pz      :     1.041430  p :     3.034363
      px      :     0.980360
      py      :     1.012573
      dz2     :     0.051581  d :     0.204353
      dxz     :     0.023497
      dyz     :     0.032395
      dx2y2   :     0.045623
      dxy     :     0.051258
  3 C s       :     2.855850  s :     2.855850
      pz      :     1.055578  p :     2.966568
      px      :     0.926375
      py      :     0.984615
      dz2     :     0.064599  d :     0.254734
      dxz     :     0.028938
      dyz     :     0.039538
      dx2y2   :     0.056469
      dxy     :     0.065190
  4 C s       :     2.855852  s :     2.855852
      pz      :     1.055577  p :     2.966559
      px      :     0.926368
      py      :     0.984613
      dz2     :     0.064599  d :     0.254732
      dxz     :     0.028938
      dyz     :     0.039537
      dx2y2   :     0.056468
      dxy     :     0.065190
  5 C s       :     2.794940  s :     2.794940
      pz      :     1.041431  p :     3.034363
      px      :     0.980359
      py      :     1.012573
      dz2     :     0.051582  d :     0.204351
      dxz     :     0.023496
      dyz     :     0.032394
      dx2y2   :     0.045622
      dxy     :     0.051258
  6 Cls       :     5.758062  s :     5.758062
      pz      :     3.903755  p :    11.193183
      px      :     3.541143
      py      :     3.748286
      dz2     :     0.005576  d :     0.038256
      dxz     :     0.005934
      dyz     :     0.003200
      dx2y2   :     0.006781
      dxy     :     0.016765
  7 Cls       :     5.758068  s :     5.758068
      pz      :     3.903758  p :    11.193194
      px      :     3.541149
      py      :     3.748287
      dz2     :     0.005576  d :     0.038254
      dxz     :     0.005934
      dyz     :     0.003200
      dx2y2   :     0.006780
      dxy     :     0.016765
  8 H s       :     0.895365  s :     0.895365
      pz      :     0.046915  p :     0.079524
      px      :     0.015081
      py      :     0.017527
  9 H s       :     0.888902  s :     0.888902
      pz      :     0.023306  p :     0.079963
      px      :     0.015271
      py      :     0.041387
 10 H s       :     0.888393  s :     0.888393
      pz      :     0.054146  p :     0.083948
      px      :     0.014247
      py      :     0.015556
 11 H s       :     0.888393  s :     0.888393
      pz      :     0.054146  p :     0.083949
      px      :     0.014247
      py      :     0.015556
 12 H s       :     0.893642  s :     0.893642
      pz      :     0.017671  p :     0.079077
      px      :     0.036415
      py      :     0.024990
 13 H s       :     0.900768  s :     0.900768
      pz      :     0.046465  p :     0.078606
      px      :     0.015866
      py      :     0.016274
 14 H s       :     0.895364  s :     0.895364
      pz      :     0.046916  p :     0.079525
      px      :     0.015082
      py      :     0.017527
 15 H s       :     0.888901  s :     0.888901
      pz      :     0.023306  p :     0.079965
      px      :     0.015271
      py      :     0.041388
 16 H s       :     0.893642  s :     0.893642
      pz      :     0.017672  p :     0.079077
      px      :     0.036415
      py      :     0.024990
 17 H s       :     0.900767  s :     0.900767
      pz      :     0.046465  p :     0.078607
      px      :     0.015867
      py      :     0.016275


                      *****************************
                      * MAYER POPULATION ANALYSIS *
                      *****************************

  NA   - Mulliken gross atomic population
  ZA   - Total nuclear charge
  QA   - Mulliken gross atomic charge
  VA   - Mayer's total valence
  BVA  - Mayer's bonded valence
  FA   - Mayer's free valence

  ATOM       NA         ZA         QA         VA         BVA        FA
  0 C      6.0495     6.0000    -0.0495     3.9916     3.9916    -0.0000
  1 C      6.0495     6.0000    -0.0495     3.9916     3.9916     0.0000
  2 C      5.9776     6.0000     0.0224     3.9124     3.9124    -0.0000
  3 C      6.0903     6.0000    -0.0903     3.8784     3.8784     0.0000
  4 C      6.0903     6.0000    -0.0903     3.8784     3.8784    -0.0000
  5 C      5.9776     6.0000     0.0224     3.9124     3.9124    -0.0000
  6 Cl    17.1407    17.0000    -0.1407     1.0000     1.0000    -0.0000
  7 Cl    17.1407    17.0000    -0.1407     0.9999     0.9999     0.0000
  8 H      0.9545     1.0000     0.0455     0.9739     0.9739    -0.0000
  9 H      0.9469     1.0000     0.0531     0.9758     0.9758    -0.0000
 10 H      0.9139     1.0000     0.0861     0.9657     0.9657     0.0000
 11 H      0.9139     1.0000     0.0861     0.9657     0.9657     0.0000
 12 H      0.9608     1.0000     0.0392     0.9728     0.9728     0.0000
 13 H      0.9658     1.0000     0.0342     0.9659     0.9659    -0.0000
 14 H      0.9545     1.0000     0.0455     0.9739     0.9739     0.0000
 15 H      0.9469     1.0000     0.0531     0.9758     0.9758    -0.0000
 16 H      0.9608     1.0000     0.0392     0.9728     0.9728    -0.0000
 17 H      0.9658     1.0000     0.0342     0.9659     0.9659     0.0000

  Mayer bond orders larger than 0.1
B(  0-C ,  1-C ) :   1.0390 B(  0-C ,  5-C ) :   1.0417 B(  0-C , 16-H ) :   0.9710 
B(  0-C , 17-H ) :   0.9640 B(  1-C ,  2-C ) :   1.0417 B(  1-C , 12-H ) :   0.9710 
B(  1-C , 13-H ) :   0.9640 B(  2-C ,  3-C ) :   0.9939 B(  2-C ,  8-H ) :   0.9602 
B(  2-C ,  9-H ) :   0.9679 B(  3-C ,  4-C ) :   0.9509 B(  3-C ,  6-Cl) :   1.0224 
B(  3-C , 10-H ) :   0.9553 B(  4-C ,  5-C ) :   0.9939 B(  4-C ,  7-Cl) :   1.0224 
B(  4-C , 11-H ) :   0.9553 B(  5-C , 14-H ) :   0.9602 B(  5-C , 15-H ) :   0.9679 


-------
TIMINGS
-------

Total SCF time: 0 days 0 hours 0 min 9 sec 

Total time                  ....       9.731 sec
Sum of individual times     ....       9.543 sec  ( 98.1%)

Fock matrix formation       ....       9.439 sec  ( 97.0%)
Diagonalization             ....       0.011 sec  (  0.1%)
Density matrix formation    ....       0.002 sec  (  0.0%)
Population analysis         ....       0.008 sec  (  0.1%)
Initial guess               ....       0.065 sec  (  0.7%)
Orbital Transformation      ....       0.000 sec  (  0.0%)
Orbital Orthonormalization  ....       0.000 sec  (  0.0%)
DIIS solution               ....       0.000 sec  (  0.0%)
SOSCF solution              ....       0.018 sec  (  0.2%)


           ************************************************************
           *        Program running with 4 parallel MPI-processes     *
           *              working on a common directory               *
           ************************************************************


------------------------------------------------------------------------------- 
                              ORCA-MATRIX DRIVEN CI                            
------------------------------------------------------------------------------- 


Wavefunction type
-----------------
Correlation treatment                      ...      CCSD     
Single excitations                         ... ON
Orbital optimization                       ... OFF
Calculation of Z vector                    ... OFF
Calculation of Brueckner orbitals          ... OFF
Perturbative triple excitations            ... ON
Calculation of F12 correction              ... OFF
Frozen core treatment                      ... chemical core (32 el)
Reference Wavefunction                     ... RHF
  Internal Orbitals:    16 ...   39 ( 24 MO's/ 48 electrons)
  Virtual  Orbitals:    40 ...  169 (130 MO's              )
Number of AO's                             ...    170
Number of electrons                        ...     80
Number of correlated electrons             ...     48

Algorithmic settings
--------------------
Integral transformation                    ... All integrals via the RI transformation
K(C) Formation                             ... RI-DLPNO
   PNO-Integral Storage                    ... ON DISK
   PNO occupation number cut-off           ... 1.000e-07
   Singles PNO occupation number cut-off   ... 3.000e-09
   PNO Mulliken prescreening cut-off       ... 1.000e-03
   Domain cut-off (Mulliken population)    ... 1.000e-03
   PNO Normalization                       ...    1
Maximum number of iterations               ...        50
Convergence tolerance (max. residuum)      ... 1.000e-05
Level shift for amplitude update           ... 2.000e-01
Maximum number of DIIS vectors             ...         7
DIIS turned on at iteration                ...         0
Damping before turning on DIIS             ...     0.500
Damping after turning on DIIS              ...     0.000
Pair specific amplitude update             ... OFF
Natural orbital iterations                 ... OFF
Perturbative natural orbital generation    ... OFF
Printlevel                                 ... 2

Singles Fock matrix elements calculated using PNOs.

Memory handling:
----------------
Maximum memory for working arrays          ...   8000 MB
Data storage in matrix containers          ... UNCOMPRESSED
Data type for integral storage             ... DOUBLE
In-Core Storage of quantities:
   Amplitudes+Sigma Vector      ... NO
   J+K operators                ... NO
   DIIS vectors                 ... NO
   3-external integrals         ... NO
   4-external integrals         ... NO

Localization treatment:
-----------------------
Localization option                        ...    6
Localization threshhold                    ... -1.0e+00
Using relative localization threshhold     ... 1.0e-08
Neglect threshold for strong pairs         ... 1.000e-05 Eh
Prescreening threshold for very weak pairs ... 1.000e-07 Eh

Initializing the integral package          ... done
Localizing the valence orbitals
------------------------------------------------------------------------------
                           ORCA ORBITAL LOCALIZATION
------------------------------------------------------------------------------

Input orbitals are from                  ... trans1_2dichlorocycloh_eq_eq.proc0.gbw
Output orbitals are to                   ... trans1_2dichlorocycloh_eq_eq.proc0.loc
Max. number of iterations                ... 128
Localizations seeded randomly            ... off
Convergence tolerance                    ... 1.000e-06
Using relative localization threshhold   ... 1.000e-08
Treshold for strong local MOs            ... 9.500e-01
Treshold for bond MOs                    ... 8.500e-01
Operator                                 ... 0
Orbital range for localization           ... 16 to 39
Localization criterion                   ... FOSTER-BOYS (AUGMENTED HESSIAN)
Doing the dipole integrals     ... o.k.
Initial value of the localization sum :   387.977968
ITERATION   0 : L=  412.4613070826 DL=  2.45e+01 (AVERGE_DL)=    0.2978384646 
ITERATION   1 : L=  415.1898436586 DL=  2.73e+00 (AVERGE_DL)=    0.0994283767 
ITERATION   2 : L=  415.2121633194 DL=  2.23e-02 (AVERGE_DL)=    0.0089926824 
ITERATION   3 : L=  415.2127080171 DL=  5.45e-04 (AVERGE_DL)=    0.0014048282 
ITERATION   4 : L=  415.2131770120 DL=  4.69e-04 (AVERGE_DL)=    0.0013035556 
ITERATION   5 : L=  415.2137142557 DL=  5.37e-04 (AVERGE_DL)=    0.0013951828 
ITERATION   6 : L=  415.2143141033 DL=  6.00e-04 (AVERGE_DL)=    0.0014742324 
ITERATION   7 : L=  415.2149774423 DL=  6.63e-04 (AVERGE_DL)=    0.0015502910 
ITERATION   8 : L=  415.2157093866 DL=  7.32e-04 (AVERGE_DL)=    0.0016284876 
ITERATION   9 : L=  415.2165146839 DL=  8.05e-04 (AVERGE_DL)=    0.0017081405 
ITERATION  10 : L=  415.2173978837 DL=  8.83e-04 (AVERGE_DL)=    0.0017888542 
ITERATION  11 : L=  415.2183631083 DL=  9.65e-04 (AVERGE_DL)=    0.0018700777 
ITERATION  12 : L=  415.2194139349 DL=  1.05e-03 (AVERGE_DL)=    0.0019512413 
ITERATION  13 : L=  415.2205531695 DL=  1.14e-03 (AVERGE_DL)=    0.0020316647 
ITERATION  14 : L=  415.2217826382 DL=  1.23e-03 (AVERGE_DL)=    0.0021105915 
ITERATION  15 : L=  415.2231029823 DL=  1.32e-03 (AVERGE_DL)=    0.0021872027 
ITERATION  16 : L=  415.2245134517 DL=  1.41e-03 (AVERGE_DL)=    0.0022606186 
ITERATION  17 : L=  415.2260117258 DL=  1.50e-03 (AVERGE_DL)=    0.0023299204 
ITERATION  18 : L=  415.2275937562 DL=  1.58e-03 (AVERGE_DL)=    0.0023941583 
ITERATION  19 : L=  415.2292536852 DL=  1.66e-03 (AVERGE_DL)=    0.0024523939 
ITERATION  20 : L=  415.2309838201 DL=  1.73e-03 (AVERGE_DL)=    0.0025037181 
ITERATION  21 : L=  415.2327747099 DL=  1.79e-03 (AVERGE_DL)=    0.0025472988 
ITERATION  22 : L=  415.2346152641 DL=  1.84e-03 (AVERGE_DL)=    0.0025823777 
ITERATION  23 : L=  415.2364930197 DL=  1.88e-03 (AVERGE_DL)=    0.0026083448 
ITERATION  24 : L=  415.2383944319 DL=  1.90e-03 (AVERGE_DL)=    0.0026247237 
ITERATION  25 : L=  415.2403052804 DL=  1.91e-03 (AVERGE_DL)=    0.0026312286 
ITERATION  26 : L=  415.2422110777 DL=  1.91e-03 (AVERGE_DL)=    0.0026277486 
ITERATION  27 : L=  415.2440974828 DL=  1.89e-03 (AVERGE_DL)=    0.0026143452 
DETECTED SLOW CONVERGENCE - QUITTING

------------------------------------------------------
AUGMENTED HESSIAN OPTIMIZATION OF FOSTER-BOYS ORBITALS
------------------------------------------------------

Spin operator:           0
Orbital window:          16 to 39
Number of iterations:    128
Gradient tolerance:      1.000e-06
Number of pairs:         276
Davidson threshold:      2000
Diagonalization method:  LAPACK
Iter:    0   L: 415.2440974828   Grad. norm: 8.423632e-02
Iter:    1   L: 415.2564145798   Grad. norm: 6.985156e-02
Iter:    2   L: 415.2657577181   Grad. norm: 4.733706e-02
Iter:    3   L: 415.2704649693   Grad. norm: 2.014718e-02
Iter:    4   L: 415.2708333346   Grad. norm: 1.555212e-03
   *** Likely close to a maximum now. ***
       Augmented Hessian eigenvalues:  2.80e-08 -1.40e-01 -1.40e-01 -5.93e+00 ... 
Iter:    5   L: 415.2708333486   Grad. norm: 8.378115e-09
LOCALIZATION HAS CONVERGED.

Eigenvalues of the Hessian:
  0 -1.398e-01
  1 -1.399e-01
  2 -5.932e+00
  3 -5.932e+00
  4 -6.005e+00
  5 -6.005e+00
  6 -1.136e+01
  7 -1.136e+01
  8 -1.147e+01
  9 -1.147e+01
    ...


------------------------------------------------------------------------------- 
                    LOCALIZED MOLECULAR ORBITAL COMPOSITIONS                   
------------------------------------------------------------------------------- 

The Mulliken populations for each LMO on each atom are computed
The LMO`s will be ordered according to atom index and type
  (A) Strongly localized MO`s have populations of >=0.950 on one atom
  (B) Two center bond orbitals have populations of >=0.850 on two atoms
  (C) Other MO`s are considered to be `delocalized`

FOUND  -   6 strongly local MO`s
       -  18 two center bond MO`s
       -   0 significantly delocalized MO`s

Rather strongly localized orbitals:
MO  21:   7Cl -   1.000013
MO  20:   7Cl -   0.998957
MO  19:   7Cl -   1.000990
MO  18:   6Cl -   1.000013
MO  17:   6Cl -   0.998957
MO  16:   6Cl -   1.000990
Bond-like localized orbitals:
MO  39:  17H  -   0.503435  and   0C  -   0.508615
MO  38:  16H  -   0.497357  and   0C  -   0.511422
MO  37:  15H  -   0.488486  and   5C  -   0.519221
MO  36:  14H  -   0.494229  and   5C  -   0.516040
MO  35:  13H  -   0.503436  and   1C  -   0.508614
MO  34:  12H  -   0.497357  and   1C  -   0.511423
MO  33:  11H  -   0.472484  and   4C  -   0.541198
MO  32:  10H  -   0.472484  and   3C  -   0.541196
MO  31:   9H  -   0.488487  and   2C  -   0.519221
MO  30:   8H  -   0.494230  and   2C  -   0.516040
MO  29:   7Cl -   0.598954  and   4C  -   0.445991
MO  28:   6Cl -   0.598947  and   3C  -   0.445997
MO  27:   5C  -   0.472757  and   4C  -   0.576359
MO  26:   5C  -   0.531223  and   0C  -   0.512803
MO  25:   4C  -   0.525675  and   3C  -   0.525671
MO  24:   3C  -   0.576357  and   2C  -   0.472759
MO  23:   2C  -   0.531225  and   1C  -   0.512800
MO  22:   1C  -   0.522927  and   0C  -   0.522923
Localized MO's were stored in: trans1_2dichlorocycloh_eq_eq.proc0.loc

Localizing the core orbitals
------------------------------------------------------------------------------
                           ORCA ORBITAL LOCALIZATION
------------------------------------------------------------------------------

Input orbitals are from                  ... trans1_2dichlorocycloh_eq_eq.proc0.loc
Output orbitals are to                   ... trans1_2dichlorocycloh_eq_eq.proc0.loc
Max. number of iterations                ... 128
Localizations seeded randomly            ... off
Convergence tolerance                    ... 1.000e-06
Using relative localization threshhold   ... 1.000e-08
Treshold for strong local MOs            ... 9.500e-01
Treshold for bond MOs                    ... 8.500e-01
Operator                                 ... 0
Orbital range for localization           ... 0 to 15
Localization criterion                   ... FOSTER-BOYS (AUGMENTED HESSIAN)
Doing the dipole integrals     ... o.k.
Initial value of the localization sum :   267.610317
ITERATION   0 : L=  267.9516396130 DL=  3.41e-01 (AVERGE_DL)=    0.0533324680 
ITERATION   1 : L=  267.9621705522 DL=  1.05e-02 (AVERGE_DL)=    0.0093679148 
ITERATION   2 : L=  267.9628423489 DL=  6.72e-04 (AVERGE_DL)=    0.0023660738 
ITERATION   3 : L=  267.9628837764 DL=  4.14e-05 (AVERGE_DL)=    0.0005875622 
ITERATION   4 : L=  267.9628863903 DL=  2.61e-06 (AVERGE_DL)=    0.0001475890 
ITERATION   5 : L=  267.9628865519 DL=  1.62e-07 (AVERGE_DL)=    0.0000366950 
LOCALIZATION SUM CONVERGED

------------------------------------------------------
AUGMENTED HESSIAN OPTIMIZATION OF FOSTER-BOYS ORBITALS
------------------------------------------------------

Spin operator:           0
Orbital window:          0 to 15
Number of iterations:    128
Gradient tolerance:      1.000e-06
Number of pairs:         120
Davidson threshold:      2000
Diagonalization method:  LAPACK
Iter:    0   L: 267.9628865519   Grad. norm: 5.132915e-04
   *** Detected a saddle point. ***
       Augmented Hessian eigenvalues:  1.38e-05  1.02e-05 -7.49e-08 -1.35e-06 ... 
Iter:    1   L: 267.9628881727   Grad. norm: 4.584162e-04
Iter:    2   L: 267.9628899582   Grad. norm: 3.804981e-04
Iter:    3   L: 267.9628916113   Grad. norm: 2.855778e-04
Iter:    4   L: 267.9628928898   Grad. norm: 1.854228e-04
Iter:    5   L: 267.9628936796   Grad. norm: 9.043988e-05
Iter:    6   L: 267.9628939641   Grad. norm: 5.340393e-06
   *** Likely close to a maximum now. ***
       Augmented Hessian eigenvalues:  3.02e-09 -8.31e-06 -8.31e-06 -1.56e-05 ... 
Iter:    7   L: 267.9628939656   Grad. norm: 1.387212e-08
LOCALIZATION HAS CONVERGED.

Eigenvalues of the Hessian:
  0 -8.301e-06
  1 -8.301e-06
  2 -1.565e-05
  3 -1.566e-05
  4 -1.877e-05
  5 -1.878e-05
  6 -1.174e-01
  7 -1.174e-01
  8 -1.174e-01
  9 -1.174e-01
    ...


------------------------------------------------------------------------------- 
                    LOCALIZED MOLECULAR ORBITAL COMPOSITIONS                   
------------------------------------------------------------------------------- 

The Mulliken populations for each LMO on each atom are computed
The LMO`s will be ordered according to atom index and type
  (A) Strongly localized MO`s have populations of >=0.950 on one atom
  (B) Two center bond orbitals have populations of >=0.850 on two atoms
  (C) Other MO`s are considered to be `delocalized`

FOUND  -  16 strongly local MO`s
       -   0 two center bond MO`s
       -   0 significantly delocalized MO`s

Rather strongly localized orbitals:
MO  15:   7Cl -   0.999875
MO  14:   7Cl -   0.999871
MO  13:   7Cl -   0.999903
MO  12:   7Cl -   0.999998
MO  11:   7Cl -   0.999704
MO  10:   6Cl -   0.999875
MO   9:   6Cl -   0.999871
MO   8:   6Cl -   0.999903
MO   7:   6Cl -   0.999998
MO   6:   6Cl -   0.999704
MO   5:   5C  -   0.999191
MO   4:   4C  -   0.998921
MO   3:   3C  -   0.998921
MO   2:   2C  -   0.999191
MO   1:   1C  -   0.999211
MO   0:   0C  -   0.999211
Localized MO's were stored in: trans1_2dichlorocycloh_eq_eq.proc0.loc

Warning: internal orbitals are localized - no re-canonicalization of internal orbitals

--------------------------
CLOSED-SHELL FOCK OPERATOR
--------------------------

RI-JK section for the Fock operator:
  RHF full Fock operator         ... done
  RHF frozen core Fock operator  ... done
Time needed for Fock operator              ...            2.080 sec
Reference energy                           ...  -1152.072021268

--------------
DLPNO SETTINGS (2015 fully linear scaling implementation)
--------------

TCutMKN:           1.000e-03
TCutPAO:           1.000e-03
TCutPNO:           1.000e-07
TCutPNOSingles:    3.000e-09
TCutEN:            9.700e-01
TCutPAOExt:        1.000e-01
TCutPairs:         1.000e-05
TCutPre:           1.000e-07
TCutOSV:           1.000e-06
TCutDOij:          1.000e-05
TCutDO:            5.000e-03
TCutC:             1.000e-04
TCutCPAO:          1.000e-03
TCutCMO:           1.000e-03
TScaleDOMP2PreScr: 2.000e+00
TScaleMKNMP2PreScr:1.000e+01
TScalePNOMP2PreScr:1.000e+00
PAO overlap thresh 1.000e-08
Using PNOs for Singles Fock computation
Use new domains
Use fully linear algorithm
TCutTNO:           1.000e-09
TCutMP2Pairs:      1.000e-06
TCutDOStrong:      2.000e-03
TCutMKNStrong:     1.000e-02
TCutMKNWeak:       1.000e-01
TCutDOWeak:        4.000e-03
NTCutTNO:          1

--------------------------
Calculating differential overlap integrals ... ok
--------------------------
ELECTRON PAIR PRESCREENING
--------------------------

Dipole-based pair screening          .... used

   TCutDOij = 1.000000e-05
   TCutPre  = 1.000000e-07
   .... Finished loop over pairs
Total time spent in the prescreening                  ...     0.000 sec
sum of pair energies estimated for screened out pairs ...       0.000000000000 Eh
Thresholds for map construction and integral transformation for crude MP2:
   TCutMKN                    ...     1.0e-02
   TCutDO                     ...     1.0e-02
   TCutPairs                  ...     1.0e-05
   TCutPNO_CrudeMP2           ...     1.0e-07
   TCutPNOSingles_CrudeMP2    ...     3.0e-09
--------------------------------
LOCAL RI TRANSFORMATION (IAVPAO)
--------------------------------

Orbital window:      16 to 39
Number of PAOs:     170
Basis functions:    170 (82 shells)
Aux. functions:     628 (216 shells)

Processing maps (0.0 sec)
Average map sizes:
   Aux shells -> MOs              24.0
   Aux shells -> PAOs            170.0
   MOs        -> AO shells        81.2
   PAOs       -> AO shells        82.0

Calculating integrals (0.6 sec, 19.556 MB)
Sorting integrals (0.0 sec, 19.549 MB)
Total time for the integral transformation: 0.7 sec
--------------------------------
INITIAL GUESS AND PNO GENERATION
--------------------------------

PNO truncation parameters                   .... 
    PAOOverlapThresh   =        1.000e-08

    TCutPairs          =        1.000e-05
    TCutPNO            =        1.000e-07
    TCutPNOSingles     =        3.000e-09
    TCutMP2Pairs       =        1.000e-06
    TCutMKN            =        1.000e-02
    TCutDO             =        1.000e-02

Pair selection                          .... not used
Type of local MP2 treatment                 .... semi-local MP2
Strategy for PNO selection                  .... occupation number selection
Pair density normalization                  .... MP2 norm
Spin component scaling                      .... not used

   .... Finished loop over pairs
Making pair pair interaction lists          ... done

                       ===========================
                        300 OF  300 PAIRS ARE KEPT CCSD PAIRS
                          0 OF  300 PAIRS ARE KEPT MP2 PAIRS FOR (T)
                          0 OF  300 PAIRS ARE SKIPPED
                       ===========================

Total time spent in the initial guess                 ...     0.937 sec
SL-MP2 correlation energy (all non-screened pairs)    ...      -1.073365546885 Eh

Initial PNO correlation energy                        ...      -1.072784955412 Eh
sum of pair energies prescreened and skipped MP2 pairs...       0.000000000000 Eh
sum of pair energies of crude MP2 skipped pairs only  ...       0.000000000000 Eh
sum of MP2 pair energies for pairs that were not kept ...       0.000000000000 Eh
sum of PNO error estimates for the kept pairs         ...      -0.000580591472 Eh
                                                          --------------------
sum of all corrections                                         -0.000580591472
Initial total correlation energy                               -1.073365546885
Thresholds for map construction and integral transformation for fine MP2 and CCSD(T) calculation:
   TCutMKN   ...     1.0e-03
   TCutDO    ...     5.0e-03
   TCutPairs ...     1.0e-05
   TCutCMO   ...     1.0e-03
   TCutCPAO  ...     1.0e-03

Thresholds for map construction and integral transformation for strong Triples:
   TCutMKN   ...     1.0e-02
   TCutDO    ...     1.0e-02
   TCutCMO   ...     1.0e-03
   TCutCPAO  ...     1.0e-03

Thresholds for map construction and integral transformation for weak Triples:
   TCutMKN   ...     1.0e-01
   TCutDO    ...     2.0e-02
   TCutCMO   ...     1.0e-03
   TCutCPAO  ...     1.0e-03

--------------------------------
LOCAL RI TRANSFORMATION (IAVPAO)
--------------------------------

Orbital window:      16 to 39
Number of PAOs:     170
Basis functions:    170 (82 shells)
Aux. functions:     628 (216 shells)

Processing maps (0.0 sec)
Average map sizes:
   Aux shells -> MOs              24.0
   Aux shells -> PAOs            170.0
   MOs        -> AO shells        81.2
   PAOs       -> AO shells        82.0

Calculating integrals (0.6 sec, 19.556 MB)
Sorting integrals (0.0 sec, 19.549 MB)
Total time for the integral transformation: 0.7 sec
--------------------------------
INITIAL GUESS AND PNO GENERATION
--------------------------------

PNO truncation parameters                   .... 
    ScaleTCutPNO       =        1.000e-02
    PAOOverlapThresh   =        1.000e-08

    TCutPairs          =        1.000e-05
    TCutPNO            =        1.000e-07
    TCutPNOSingles     =        3.000e-09
    TCutMP2Pairs       =        1.000e-06
    TCutMKN            =        1.000e-03
    TCutDO             =        5.000e-03

Pair selection                          .... not used
Type of local MP2 treatment                 .... full local PMP2
Strategy for PNO selection                  .... occupation number selection
Pair density normalization                  .... MP2 norm
Spin component scaling                      .... not used

PASS-1: Formation of initial guess LMP2 amplitudes
Initial amplitudes guess done. Entering LMP2 iteration loop:
   Max. no of iterations          ...  50
   Energy convergence tolerance   ...    1.0e-07
   Residual convergence tolerance ...    5.0e-07
   Fock matrix cutoff             ...    1.0e-05 Eh
   DIIS convergence acceleration parameters:
        Max # vectors in DIIS     ... 7
        Start iteration of DIIS   ... 0
        Levelshift                ... 2.000e-01
        Damping factor 1          ... 5.000e-01
        Damping factor 2          ... 1.000e+00
   L-MP2 PNO cut-off              ...   1.0e-09
   L-MP2 PNO cut-off (core)       ...   1.0e-11
                           *** Turning on DIIS ***
LMP2-Iter=   0:  ELMP2= -1.101412953446  DE=   2.8e-02 RMAX=   7.2e-03
LMP2-Iter=   1:  ELMP2= -1.114813965655  DE=   1.3e-02 RMAX=   4.5e-03
LMP2-Iter=   2:  ELMP2= -1.117051592490  DE=   2.2e-03 RMAX=   8.1e-04
LMP2-Iter=   3:  ELMP2= -1.117247123824  DE=   2.0e-04 RMAX=   3.4e-04
LMP2-Iter=   4:  ELMP2= -1.117257239692  DE=   1.0e-05 RMAX=   3.7e-05
LMP2-Iter=   5:  ELMP2= -1.117255144811  DE=   2.1e-06 RMAX=   1.5e-05
LMP2-Iter=   6:  ELMP2= -1.117254814506  DE=   3.3e-07 RMAX=   9.0e-07
LMP2-Iter=   7:  ELMP2= -1.117254786152  DE=   2.8e-08 RMAX=   2.4e-07
LMP2-Iter=   8:  ELMP2= -1.117254793302  DE=   7.2e-09 RMAX=   3.2e-08 => CONVERGED
PASS-2: Formation of Pair natural orbitals
   .... Finished loop over pairs

 PNO Occupation Number Statistics: 
  | Av. % of trace(Dij) retained        ...  99.514939486064
  | sigma^2 in % of trace(Dij) retained ...   4.31e-01
  | Av. % of trace(Di) retained         ...  99.999849127618
  | sigma^2 in % of trace(Di) retained  ...   6.47e-10
 Distributions of % trace(Dij) recovered:
  |       >= 99.9  ...   125 ( 41.7 % of all pairs)
  |   [90.0, 99.0) ...    58 ( 19.3 % of all pairs)
  |   [99.0, 99.9) ...   117 ( 39.0 % of all pairs)
 Distributions of % trace(Di) recovered :
  |       >= 99.9  ...    24 (100.0 % of all I-pairs )

Making pair pair interaction lists          ... done

                       ===========================
                        300 OF  300 PAIRS ARE KEPT
                       ===========================

Total time spent in the initial guess                 ...     7.671 sec
L-MP2 correlation energy (all non-screened pairs)     ...      -1.117254793302 Eh
L-MP2 PNO error correction                            ...      -0.000010335925 Eh
                                                          --------------------
Initial total L-MP2 energy (non-screened pairs)       ...      -1.117265129227 Eh

Initial PNO correlation energy                        ...      -1.116745476898 Eh
sum of pair energies estimated for screened out pairs ...       0.000000000000 Eh
sum of MP2 pair energies for pairs that were not kept ...       0.000000000000 Eh
sum of PNO error estimates for the kept pairs         ...      -0.000519652329 Eh
                                                          --------------------
sum of all corrections                                         -0.000519652329
Initial total correlation energy                               -1.117265129227
Thresholds for map construction and integral transformation for fine MP2 and CCSD(T) calculation:
   TCutMKN   ...     1.0e-03
   TCutDO    ...     5.0e-03
   TCutPairs ...     1.0e-05
   TCutCMO   ...     1.0e-03
   TCutCPAO  ...     1.0e-03

Time for aux screen maps:            0.004
Time for maps after fine MP2:            0.014
-----------------------------
LOCAL RI TRANSFORMATION (IJV)
-----------------------------

Orbital window:      16 to 39
Basis functions:    170 (82 shells)
Aux. functions:     628 (216 shells)

Processing maps (0.0 sec)
Average map sizes:
   Aux shells -> MOs(i)           24.0
   Aux shells -> MOs(j)           24.0
   MOs        -> AO shells        81.2

Calculating integrals (0.6 sec, 2.767 MB)
Sorting integrals (0.0 sec, 2.760 MB)
Total time for the integral transformation: 0.6 sec
--------------------------------
LOCAL RI TRANSFORMATION (VABPAO)
--------------------------------

Number of PAOs:     170
Basis functions:    170 (82 shells)
Aux. functions:     628 (216 shells)

Processing maps (0.0 sec)
Average map sizes:
   Aux shells -> PAOs            170.0
   PAOs       -> AO shells        82.0

Calculating integrals (0.9 sec, 246.520 MB)
Finished


-------------------------------------
Pair Pair Term precalculation with     
RI-(ij|mn) and (im|jn) transformation  
ON THE FLY                             
-------------------------------------

   IBatch   1 (of   2)              ... done (   35.856 sec)
   IBatch   2 (of   2)              ... done (    2.689 sec)
Total EXT                           ...          38.545 sec

---------------------
RI-PNO TRANSFORMATION
---------------------

Total Number of PNOs                   ...  7771
Average number of PNOs per pair        ...    25
Maximal number of PNOs per pair        ...    44
   #pairs with  1 -  5 PNOs   :    0
   #pairs with  6 - 10 PNOs   :   20
   #pairs with 11 - 15 PNOs   :   36
   #pairs with 16 - 20 PNOs   :   22
   #pairs with 21 - 25 PNOs   :   71
   #pairs with 26 - 30 PNOs   :   44
   #pairs with 31 - 35 PNOs   :   57
   #pairs with 36 - 40 PNOs   :   42
   #pairs with 41 - 45 PNOs   :    8
   #pairs with 46 - 50 PNOs   :    0

Generation of (ij|ab)[P] integrals            ... on
Generation of (ia|bc)[P],(ja|bc)[P] integrals ... on
Storage of 3 and 4 external integrals         ... on
Generation of ALL (ka|bc)[P] integrals        ... on
Keep RI integrals in memory                   ... off

Ibatch:  1 (of  1)
Starting 2-4 index PNO integral generation ... done

Timings:
Total PNO integral transformation time     ...          9.643 sec
Size of the 3-external file                ...        57 MB
Size of the 4-external file                ...       247 MB
Size of the IKJL file                      ...         0 MB
Size of the all 3-external file            ...       686 MB
Size of the 1-external file                ...         4 MB

Making pair/pair overlap matrices          ... done (    2.198 sec)
Size of the pair overlap file              ... 297 MB
Redoing the guess amplitudes               ... done (    0.002 sec)

-------------------------
FINAL STARTUP INFORMATION
-------------------------

E(0)                                       ...  -1152.072021268
E(L-MP2)                                   ...     -1.117265129
E(L-MP2) including corrections             ...     -1.117265129
Initial E(tot)                             ...  -1153.189286397
<T|T>                                      ...      0.359868124
Number of pairs included                   ... 300
Total number of pairs                      ... 300

------------------------------------------------
                  RHF COUPLED CLUSTER ITERATIONS
------------------------------------------------

Number of PNO amplitudes to be optimized   ...       228337
Number of non-PNO amplitudes               ...      5070000
Untruncated number of regular amplitudes   ...      5070000

Iter       E(tot)           E(Corr)          Delta-E          Residual     Time
  0  -1153.145543807     -1.073002886      0.044262243      0.017703543    4.98
                           *** Turning on DIIS ***
  1  -1153.230417752     -1.157876831     -0.084873945      0.010796288    5.00
  2  -1153.269118766     -1.196577846     -0.038701015      0.003548060    5.00
  3  -1153.274042651     -1.201501731     -0.004923885      0.001838209    5.11
  4  -1153.275086846     -1.202545926     -0.001044195      0.000586774    5.10
  5  -1153.275304109     -1.202763189     -0.000217263      0.000198380   19.33
  6  -1153.275348829     -1.202807909     -0.000044720      0.000070333    5.44
  7  -1153.275355802     -1.202814881     -0.000006972      0.000030292    5.14
  8  -1153.275355896     -1.202814975     -0.000000094      0.000011472    5.09
  9  -1153.275355659     -1.202814739      0.000000237      0.000004547    5.05
               --- The Coupled-Cluster iterations have converged ---

----------------------
COUPLED CLUSTER ENERGY
----------------------

E(0)                                       ...  -1152.072021268
E(CORR)(strong-pairs)                      ...     -1.202814739
E(CORR)(weak-pairs)                        ...     -0.000519652
E(CORR)(corrected)                         ...     -1.203334391
E(TOT)                                     ...  -1153.275355659
Singles Norm <S|S>**1/2                    ...      0.057101320  
T1 diagnostic                              ...      0.008241866  

------------------
LARGEST AMPLITUDES
------------------
  29-> 40  29-> 40       0.064232
  28-> 40  28-> 40       0.064230
  38-> 49  38-> 49       0.038805
  34-> 49  34-> 49       0.038804
  35-> 40  35-> 40       0.036972
  39-> 40  39-> 40       0.036971
  30-> 40  30-> 40       0.036783
  36-> 40  36-> 40       0.036783
  34-> 40  34-> 40       0.036344
  38-> 40  38-> 40       0.036344
  31-> 40  31-> 40       0.035675
  37-> 40  37-> 40       0.035674
  37-> 49  37-> 49       0.035341
  31-> 49  31-> 49       0.035341
  30-> 48  30-> 48       0.034156
  36-> 48  36-> 48       0.034155


-------------------------------------------
DLPNO BASED TRIPLES CORRECTION
-------------------------------------------

Singles multiplier          ...  1.000000
TCutTNO                     ... 1.000e-09
TCutMP2Pairs                ... 1.000e-06
TCutDOStrong                ... 1.000e-02
TCutMKNStrong               ... 1.000e-02
TCutDOWeak                  ... 2.000e-02
TCutMKNWeak                 ... 1.000e-01

Fragment selection                          .... not used
Number of Triples that are to be computed   ...      2576

 . . . . . . . . .
10% done  
20% done  
30% done  
40% done  
50% done  
60% done  
70% done  
80% done  
90% done               (     85.927 sec)
Triples timings:
Total time for T0               ...    92.125 sec
Total time for Iterative (T)    ...     0.000 sec
Total time of overall (T)       ...    92.127 sec

Triples List generation         ...     0.000 sec
TNO generation                  ...     6.193 sec
Pair density generation         ...     0.003 sec
Look up tables                  ...     0.000 sec
Generating 3-index integrals    ...    48.301 sec
  Make 4-ind.int. from 3-ind.int...    13.614 sec
  Projecting amplitudes (D + S) ...    10.532 sec
  Downprojecting integrals      ...     0.003 sec
  Energy contr. (sum over a,b,c)...     3.978 sec
Fitting ET(->0)                 ...     0.000 sec

Everything after 3-index        ...    37.626 sec

Timing details:
 TNO integrals                  ...    60.103 sec
   Reading 3-index integrals    ...     0.049 sec
   Sorting integrals            ...     9.918 sec
       Sorting integrals 1      ...     0.003 sec
       Sorting integrals 2      ...     4.283 sec
       Sorting integrals 3      ...     0.455 sec
       Sorting integrals 4      ...     0.072 sec
       Sorting integrals 5      ...     0.166 sec
       Sorting integrals 6      ...     4.939 sec
   Calculating local VM**-1/2   ...     0.584 sec
   Orthogonal. integrals        ...     0.978 sec
   Multipl. 3-index integrals   ...    48.573 sec
   All concerning IRIab (w/TNO) ...     6.520 sec

 Calculate W0/W1                ...     9.482 sec
 W 3-ext contribution           ...     5.101 sec
 W 3-int contribution           ...     2.013 sec
 Sorting W                      ...     2.161 sec

 V exchange contribution        ...     1.615 sec

 Timings for Triples without generation
     of 3-index integrals       ...    37.619 sec
       0 weak pairs             ...    37.619 sec
       1 weak pair              ...     0.000 sec
       2 weak pairs             ...     0.000 sec
       3 weak pairs             ...     0.000 sec
  Extra time for extrapolation  ...     0.000 sec

Number of Triples   (0, 1, 2, 3 weak pairs; overall):   2576       0       0       0  (  2576)
Number of Atoms     (0, 1, 2, 3 weak pairs; overall):   17.1     0.0     0.0     0.0  (    18)
Number of PAOs      (0, 1, 2, 3 weak pairs; overall):  165.1     0.0     0.0     0.0  (   170)
Number of AuxFcns   (0, 1, 2, 3 weak pairs; overall):  275.6     0.0     0.0     0.0  (   628)
Number of TNOs      (0, 1, 2, 3 weak pairs         ):   61.4     0.0     0.0     0.0
Aver. Number of NTNO, Atoms, PAOs, AuxFcns / Triples:   2576    61.4    17.1   165.1   275.6

Triples Correction (T)                     ...     -0.036629507
Final correlation energy                   ...     -1.239963898
E(CCSD)                                    ...  -1153.275355659
E(CCSD(T))                                 ...  -1153.311985167


Maximum memory used throughout the entire calculation: 8013.5 MB


------------------------------------------------------------------------------- 
                                     TIMINGS                                   
------------------------------------------------------------------------------- 


Total execution time                   ...      222.924 sec

Localization of occupied MO's          ...        0.560 sec (  0.3%)
Fock Matrix Formation                  ...        2.080 sec (  0.9%)
Global overlap, Fock, MKN matrices     ...        0.135 sec (  0.1%)
Differential overlap integrals         ...        0.152 sec (  0.1%)
Organizing maps                        ...        0.043 sec (  0.0%)
RI 3-index integral generations        ...        2.859 sec (  1.3%)
RI-PNO integral transformation         ...       50.648 sec ( 22.7%)
Initial Guess                          ...        8.630 sec (  3.9%)
DIIS Solver                            ...        1.198 sec (  0.5%)
State Vector Update                    ...        0.019 sec (  0.0%)
Sigma-vector construction              ...       64.638 sec ( 29.0%)
  <D|H|D>(0-ext)                       ...        4.669 sec (  7.2% of sigma)
  <D|H|D>(2-ext Fock)                  ...        0.017 sec (  0.0% of sigma)
  <D|H|D>(2-ext)                       ...       10.216 sec ( 15.8% of sigma)
  <D|H|D>(4-ext)                       ...        2.846 sec (  4.4% of sigma)
  <D|H|D>(4-ext-corr)                  ...       15.110 sec ( 23.4% of sigma)
  CCSD doubles correction              ...        0.344 sec (  0.5% of sigma)
  <S|H|S>                              ...        0.149 sec (  0.2% of sigma)
  <S|H|D>(1-ext)                       ...        0.530 sec (  0.8% of sigma)
  <D|H|S>(1-ext)                       ...        0.018 sec (  0.0% of sigma)
  <S|H|D>(3-ext)                       ...        0.223 sec (  0.3% of sigma)
  Fock-dressing                        ...       24.048 sec ( 37.2% of sigma)
  Singles amplitudes                   ...        0.361 sec (  0.6% of sigma)
  (ik|jl)-dressing                     ...        3.300 sec (  5.1% of sigma)
  (ij|ab),(ia|jb)-dressing             ...        2.616 sec (  4.0% of sigma)
  Pair energies                        ...        0.007 sec (  0.0% of sigma)
Total Time for computing (T)           ...       92.241 sec ( 41.4% of ALL)


-------------------------   --------------------
FINAL SINGLE POINT ENERGY     -1153.311985166633
-------------------------   --------------------


                            ***************************************
                            *     ORCA property calculations      *
                            ***************************************

                                    ---------------------
                                    Active property flags
                                    ---------------------
   (+) Dipole Moment


------------------------------------------------------------------------------
                       ORCA ELECTRIC PROPERTIES CALCULATION
------------------------------------------------------------------------------

Dipole Moment Calculation                       ... on
Quadrupole Moment Calculation                   ... off
Polarizability Calculation                      ... off
GBWName                                         ... trans1_2dichlorocycloh_eq_eq.gbw
Electron density file                           ... trans1_2dichlorocycloh_eq_eq.scfp.tmp
The origin for moment calculation is the CENTER OF MASS  = (-0.243880,  0.000002 -0.000000)

-------------
DIPOLE MOMENT
-------------
                                X             Y             Z
Electronic contribution:    -17.88136      -0.00002       0.00004
Nuclear contribution   :     19.51021       0.00000      -0.00004
                        -----------------------------------------
Total Dipole Moment    :      1.62885      -0.00002       0.00000
                        -----------------------------------------
Magnitude (a.u.)       :      1.62885
Magnitude (Debye)      :      4.14022



--------------------
Rotational spectrum 
--------------------
 
Rotational constants in cm-1:     0.053783     0.041485     0.024678 
Rotational constants in MHz :  1612.368439  1243.675030   739.826439 

 Dipole components along the rotational axes: 
x,y,z [a.u.] :     1.628854    -0.000023     0.000004 
x,y,z [Debye]:     4.140219    -0.000059     0.000010 

 

Timings for individual modules:

Sum of individual times         ...      233.678 sec (=   3.895 min)
GTO integral calculation        ...        0.725 sec (=   0.012 min)   0.3 %
SCF iterations                  ...        9.837 sec (=   0.164 min)   4.2 %
MDCI module                     ...      223.117 sec (=   3.719 min)  95.5 %
                             ****ORCA TERMINATED NORMALLY****
TOTAL RUN TIME: 0 days 0 hours 3 minutes 53 seconds 939 msec
trans1_2dichlorocycloh_eq_eq.gbw -> /home1/pantazis/klk/VDZ/Cyclohexanes/trans1_2dichlorocycloh_eq_eq.gbw
trans1_2dichlorocycloh_eq_eq.ges -> /home1/pantazis/klk/VDZ/Cyclohexanes/trans1_2dichlorocycloh_eq_eq.ges
trans1_2dichlorocycloh_eq_eq.job -> /home1/pantazis/klk/VDZ/Cyclohexanes/trans1_2dichlorocycloh_eq_eq.job
trans1_2dichlorocycloh_eq_eq.loc -> /home1/pantazis/klk/VDZ/Cyclohexanes/trans1_2dichlorocycloh_eq_eq.loc
trans1_2dichlorocycloh_eq_eq.nodes -> /home1/pantazis/klk/VDZ/Cyclohexanes/trans1_2dichlorocycloh_eq_eq.nodes
trans1_2dichlorocycloh_eq_eq.prop -> /home1/pantazis/klk/VDZ/Cyclohexanes/trans1_2dichlorocycloh_eq_eq.prop
trans1_2dichlorocycloh_eq_eq_property.txt -> /home1/pantazis/klk/VDZ/Cyclohexanes/trans1_2dichlorocycloh_eq_eq_property.txt
trans1_2dichlorocycloh_eq_eq.xyz -> /home1/pantazis/klk/VDZ/Cyclohexanes/trans1_2dichlorocycloh_eq_eq.xyz
cp: cannot stat trans1_2dichlorocycloh_eq_eq.asa.inp: No such file or directory
