! Job execution by suborca V 6.07 on ZEUS !
Job started from zeus1, running /scratch/pantazis/trans1_2dimethylcycloh_ax_ax__ogETXb/orca/orca copied from /opt/orca on zeussn119 in /scratch/pantazis/trans1_2dimethylcycloh_ax_ax__ogETXb
Job execution start: Sat Jun 29 10:27:43 CEST 2019
Shared library path: /scratch/pantazis/trans1_2dimethylcycloh_ax_ax__ogETXb/orca:/opt/openmpi_1.10.2/lib:/opt/intel/mkl/lib/intel64:/opt/intel/lib/intel64:
PBS Job ID is: 158709.icqc
izeussn119
izeussn119
izeussn119
izeussn119

                                 *****************
                                 * O   R   C   A *
                                 *****************

           --- An Ab Initio, DFT and Semiempirical electronic structure package ---

                  #######################################################
                  #                        -***-                        #
                  #          Department of theory and spectroscopy      #
                  #               Directorship: Frank Neese             #
                  #        Max Planck Institute fuer Kohlenforschung    #
                  #                Kaiser Wilhelm Platz 1               #
                  #                 D-45470 Muelheim/Ruhr               #
                  #                      Germany                        #
                  #                                                     #
                  #                  All rights reserved                #
                  #                        -***-                        #
                  #######################################################


                         Program Version 4.1.x  -  STABLE  -
                                (SVN: $Rev: 14094$)
                ($Date: 2019-06-14 15:01:15 +0200 (Fri, 14 Jun 2019) $)

                         (BUILD: $Sun Jun 23 06:18:31 CEST 2019$)


 With contributions from (in alphabetic order):
   Daniel Aravena         : Magnetic Properties
   Michael Atanasov       : Ab Initio Ligand Field Theory
   Alexander A. Auer      : GIAO ZORA
   Ute Becker             : Parallelization
   Giovanni Bistoni       : ED, Open-shell LED
   Martin Brehm           : Molecular dynamics
   Dmytro Bykov           : SCF Hessian
   Vijay G. Chilkuri      : MRCI spin determinant printing
   Dipayan Datta          : RHF DLPNO-CCSD density
   Achintya Kumar Dutta   : EOM-CC, STEOM-CC
   Dmitry Ganyushin       : Spin-Orbit,Spin-Spin,Magnetic field MRCI
   Miquel Garcia          : C-PCM Hessian
   Yang Guo               : DLPNO-NEVPT2, CIM, IAO-localization
   Andreas Hansen         : Spin unrestricted coupled pair/coupled cluster methods
   Benjamin Helmich-Paris : CASSCF linear response (MC-RPA)
   Lee Huntington         : MR-EOM, pCC
   Robert Izsak           : Overlap fitted RIJCOSX, COSX-SCS-MP3, EOM
   Christian Kollmar      : KDIIS, OOCD, Brueckner-CCSD(T), CCSD density
   Simone Kossmann        : Meta GGA functionals, TD-DFT gradient, OOMP2, MP2 Hessian
   Martin Krupicka        : AUTO-CI
   Lucas Lang             : DCDCAS
   Dagmar Lenk            : GEPOL surface, SMD
   Dimitrios Liakos       : Extrapolation schemes; parallel MDCI
   Dimitrios Manganas     : ROCIS; embedding schemes
   Dimitrios Pantazis     : SARC Basis sets
   Taras Petrenko         : DFT Hessian,TD-DFT gradient, ASA, ECA, R-Raman, ABS, FL, XAS/XES, NRVS
   Peter Pinski           : DLPNO-MP2, DLPNO-MP2 Gradient
   Christoph Reimann      : Effective Core Potentials
   Marius Retegan         : Local ZFS, SOC
   Christoph Riplinger    : Optimizer, TS searches, QM/MM, DLPNO-CCSD(T), (RO)-DLPNO pert. Triples
   Tobias Risthaus        : Range-separated hybrids, TD-DFT gradient, RPA, STAB
   Michael Roemelt        : Restricted open shell CIS
   Masaaki Saitow         : Open-shell DLPNO
   Barbara Sandhoefer     : DKH picture change effects
   Avijit Sen             : IP-ROCIS
   Kantharuban Sivalingam : CASSCF convergence, NEVPT2, FIC-MRCI
   Bernardo de Souza      : ESD, SOC TD-DFT
   Georgi Stoychev        : AutoAux, RI-MP2 NMR
   Willem Van den Heuvel  : Paramagnetic NMR
   Boris Wezisla          : Elementary symmetry handling
   Frank Wennmohs         : Technical directorship


 We gratefully acknowledge several colleagues who have allowed us to
 interface, adapt or use parts of their codes:
   Stefan Grimme, W. Hujo, H. Kruse,             : VdW corrections, initial TS optimization,
                  C. Bannwarth                     DFT functionals, gCP, sTDA/sTD-DF
   Ed Valeev                                     : LibInt (2-el integral package), F12 methods
   Garnet Chan, S. Sharma, J. Yang, R. Olivares  : DMRG
   Ulf Ekstrom                                   : XCFun DFT Library
   Mihaly Kallay                                 : mrcc  (arbitrary order and MRCC methods)
   Andreas Klamt, Michael Diedenhofen            : otool_cosmo (COSMO solvation model)
   Jiri Pittner, Ondrej Demel                    : Mk-CCSD
   Frank Weinhold                                : gennbo (NPA and NBO analysis)
   Christopher J. Cramer and Donald G. Truhlar   : smd solvation model
   Lars Goerigk                                  : TD-DFT with DH, B97 family of functionals
   V. Asgeirsson, H. Jonsson                     : NEB implementation
   FAccTs GmbH                                   : IRC, NEB, NEB-TS, Multilevel


 Your calculation uses the libint2 library for the computation of 2-el integrals
 For citations please refer to: http://libint.valeyev.net

 This ORCA versions uses:
   CBLAS   interface :  Fast vector & matrix operations
   LAPACKE interface :  Fast linear algebra routines
   SCALAPACK package :  Parallel linear algebra routines




***************************************
The coordinates will be read from file: trans1_2dimethylcycloh_ax_ax.xyz
***************************************


----- Orbital basis set information -----
Your calculation utilizes the basis: cc-pVDZ 
       H, B-Ne : Obtained from the ccRepo (grant-hill.group.shef.ac.uk/ccrepo) Feb. 2017
                 T. H. Dunning, Jr., J. Chem. Phys. 90, 1007 (1989)
            He : Obtained from the ccRepo (grant-hill.group.shef.ac.uk/ccrepo) Feb. 2017
                 D. E. Woon, T. H. Dunning, Jr., J. Chem. Phys. 100, 2975 (1994)
  Li-Be, Na-Mg : Obtained from the ccRepo (grant-hill.group.shef.ac.uk/ccrepo) Feb. 2017
                 B. P. Prascher, D. E. Woon, K. A. Peterson, T. H. Dunning, Jr., A. K. Wilson, Theor. Chem. Acc. 128, 69 (2011)
         Al-Ar : Obtained from the ccRepo (grant-hill.group.shef.ac.uk/ccrepo) Feb. 2017
                 D. E. Woon, T. H. Dunning, Jr., J. Chem. Phys. 98, 1358 (1993)
            Ca : Obtained from the Peterson Research Group Website (tyr0.chem.wsu.edu/~kipeters) Feb. 2017
                 J. Koput, K. A. Peterson, J. Phys. Chem. 106, 9595 (2002)
         Sc-Zn : Obtained from the ccRepo (grant-hill.group.shef.ac.uk/ccrepo) Feb. 2017
                 N. B. Balabanov, K. A. Peterson, J. Chem. Phys. 123, 064107 (2005)
                 N. B. Balabanov, K. A. Peterson, J. Chem. Phys. 125, 074110 (2006)
         Ga-Kr : Obtained from the ccRepo (grant-hill.group.shef.ac.uk/ccrepo) Feb. 2017
                 A. K. Wilson, D. E. Woon, K. A. Peterson, T. H. Dunning, Jr., J. Chem. Phys. 110, 7667 (1999)

----- AuxC basis set information -----
Your calculation utilizes the auxiliary basis: cc-pVDZ/C 
  H-He, B, Ne, Al-Ar, Ga-Br : Obtained from the EMSL Basis Set Exchange (bse.pnl.gov) Feb. 2017
                              F. Weigend, A. Kohn, C. Hattig, J. Chem. Phys. 116, 3175 (2002)
               Li-Be, Na-Mg : Obtained from the EMSL Basis Set Exchange (bse.pnl.gov) Feb. 2017
                              C. Haettig, Phys. Chem. Chem. Phys. 7, 59 (2005)
                        C-F : Obtained from the EMSL Basis Set Exchange (bse.pnl.gov) Feb. 2017
                              C. Haettig, Phys. Chem. Chem. Phys. 7, 59 (2005)
                              F. Weigend, A. Kohn, C. Hattig, J. Chem. Phys. 116, 3175 (2002)
                         Kr : Obtained from the TURBOMOLE 7.0 basis set library
                              F. Weigend, A. Kohn, C. Hattig, J. Chem. Phys. 116, 3175 (2002)
                              S function revised in Sep. 2009

----- AuxJK basis set information -----
Your calculation utilizes the auxiliary basis: cc-pVTZ/JK 
  H, B-F, Al-Cl, Ga-Br : Obtained from the TURBOMOLE 7.0 basis set library

================================================================================
                                        WARNINGS
                       Please study these warnings very carefully!
================================================================================


WARNING: MDCI localization with Augmented Hessian Foster-Boys
  ===> : Switching off randomization!

WARNING: Post HF methods need fully converged wavefunctions
  ===> : Setting SCFConvForced true
         You can overwrite this default with %scf ConvForced false 


INFO   : the flag for use of LIBINT has been found!

================================================================================
                                       INPUT FILE
================================================================================
NAME = trans1_2dimethylcycloh_ax_ax.inp
|  1> ! RHF DLPNO-CCSD(T) cc-pVDZ RIJK cc-pVTZ/JK cc-pVDZ/C
|  2> ! KDIIS SOSCF TightSCF TightPNO
|  3> 
|  4> %pal nprocs 4 end
|  5> 
|  6> %maxcore 8000
|  7> 
|  8> %scf maxiter 300
|  9>      shift shift 0.2 erroff 0.1 end
| 10> end
| 11> 
| 12> * xyzfile 0 1 trans1_2dimethylcycloh_ax_ax.xyz 
| 13> 
| 14> 
| 15>                          ****END OF INPUT****
================================================================================

                       ****************************
                       * Single Point Calculation *
                       ****************************

---------------------------------
CARTESIAN COORDINATES (ANGSTROEM)
---------------------------------
  C     -0.710500    1.683320   -0.290520
  C      0.712150    1.682610    0.290570
  C      0.978910    0.407880    1.108840
  C      0.711450   -0.891690    0.313350
  C     -0.712300   -0.891000   -0.313370
  C     -0.978550    0.408860   -1.108790
  C      1.804580   -1.157000   -0.737670
  C     -1.805690   -1.155440    0.737610
  H      0.339340    0.423070    2.001840
  H      2.013290    0.403300    1.476710
  H      0.752300   -1.727250    1.027330
  H     -0.753910   -1.726470   -1.027420
  H      0.866430    2.567460    0.920760
  H      1.438860    1.760390   -0.529850
  H     -0.338980    0.423460   -2.001810
  H     -2.012940    0.405290   -1.476640
  H     -0.863900    2.568330   -0.920700
  H     -1.437130    1.761830    0.529910
  H      1.634540   -2.114430   -1.243720
  H      1.841780   -0.380520   -1.508800
  H      2.793980   -1.200080   -0.267460
  H     -1.636530   -2.113070    1.243570
  H     -1.842230   -0.379000    1.508820
  H     -2.795130   -1.197580    0.267370

----------------------------
CARTESIAN COORDINATES (A.U.)
----------------------------
  NO LB      ZA    FRAG     MASS         X           Y           Z
   0 C     6.0000    0    12.011   -1.342650    3.181014   -0.549003
   1 C     6.0000    0    12.011    1.345768    3.179672    0.549098
   2 C     6.0000    0    12.011    1.849872    0.770781    2.095404
   3 C     6.0000    0    12.011    1.344446   -1.685050    0.592146
   4 C     6.0000    0    12.011   -1.346052   -1.683746   -0.592183
   5 C     6.0000    0    12.011   -1.849192    0.772633   -2.095309
   6 C     6.0000    0    12.011    3.410162   -2.186413   -1.393994
   7 C     6.0000    0    12.011   -3.412260   -2.183465    1.393881
   8 H     1.0000    0     1.008    0.641260    0.799486    3.782929
   9 H     1.0000    0     1.008    3.804567    0.762127    2.790577
  10 H     1.0000    0     1.008    1.421641   -3.264029    1.941372
  11 H     1.0000    0     1.008   -1.424683   -3.262555   -1.941542
  12 H     1.0000    0     1.008    1.637315    4.851796    1.739984
  13 H     1.0000    0     1.008    2.719051    3.326655   -1.001271
  14 H     1.0000    0     1.008   -0.640579    0.800223   -3.782873
  15 H     1.0000    0     1.008   -3.803905    0.765887   -2.790445
  16 H     1.0000    0     1.008   -1.632534    4.853440   -1.739871
  17 H     1.0000    0     1.008   -2.715782    3.329376    1.001385
  18 H     1.0000    0     1.008    3.088833   -3.995694   -2.350290
  19 H     1.0000    0     1.008    3.480460   -0.719079   -2.851219
  20 H     1.0000    0     1.008    5.279857   -2.267823   -0.505426
  21 H     1.0000    0     1.008   -3.092594   -3.993124    2.350007
  22 H     1.0000    0     1.008   -3.481310   -0.716206    2.851257
  23 H     1.0000    0     1.008   -5.282030   -2.263098    0.505256

--------------------------------
INTERNAL COORDINATES (ANGSTROEM)
--------------------------------
 C      0   0   0     0.000000000000     0.00000000     0.00000000
 C      1   0   0     1.536749528941     0.00000000     0.00000000
 C      2   1   0     1.538071280338   111.22997839     0.00000000
 C      3   2   1     1.547004000189   113.12093815    54.62470929
 C      4   3   2     1.555584294405   111.40958365   307.12583630
 C      1   2   3     1.538071808142   111.23062852   305.50409128
 C      4   3   2     1.539469270041   111.90522674    73.40344107
 C      5   4   3     1.539476913143   112.01957892   284.82362638
 H      3   2   1     1.098512412766   108.66547847   293.17201500
 H      3   2   1     1.097857594454   110.18993862   177.39553974
 H      4   3   2     1.099816655857   107.33595273   190.04016042
 H      5   4   3     1.099822219952   107.20905477   168.20320660
 H      2   1   3     1.097224351261   110.30241414   237.93838557
 H      2   1   3     1.098747527369   109.26359868   121.56868176
 H      6   1   2     1.098520671312   108.66344191   293.16971404
 H      6   1   2     1.097856565996   110.19111612   177.39391453
 H      1   2   3     1.097224267185   110.30237438   183.44160873
 H      1   2   3     1.098754004270   109.26316947    67.07281339
 H      7   4   3     1.096208196010   110.82679114   176.18767151
 H      7   4   3     1.094964157998   112.50198743   296.48272904
 H      7   4   3     1.096296351586   110.78013950    56.72515244
 H      8   5   4     1.096205201639   110.82758036   302.13428518
 H      8   5   4     1.094969912509   112.50275229    62.43045900
 H      8   5   4     1.096308784422   110.77986507   182.67159616

---------------------------
INTERNAL COORDINATES (A.U.)
---------------------------
 C      0   0   0     0.000000000000     0.00000000     0.00000000
 C      1   0   0     2.904035746131     0.00000000     0.00000000
 C      2   1   0     2.906533494288   111.22997839     0.00000000
 C      3   2   1     2.923413888437   113.12093815    54.62470929
 C      4   3   2     2.939628294655   111.40958365   307.12583630
 C      1   2   3     2.906534491693   111.23062852   305.50409128
 C      4   3   2     2.909175311965   111.90522674    73.40344107
 C      5   4   3     2.909189755335   112.01957892   284.82362638
 H      3   2   1     2.075887614840   108.66547847   293.17201500
 H      3   2   1     2.074650187563   110.18993862   177.39553974
 H      4   3   2     2.078352277094   107.33595273   190.04016042
 H      5   4   3     2.078362791710   107.20905477   168.20320660
 H      2   1   3     2.073453531353   110.30241414   237.93838557
 H      2   1   3     2.076331917051   109.26359868   121.56868176
 H      6   1   2     2.075903221231   108.66344191   293.16971404
 H      6   1   2     2.074648244059   110.19111612   177.39391453
 H      1   2   3     2.073453372472   110.30237438   183.44160873
 H      1   2   3     2.076344156620   109.26316947    67.07281339
 H      7   4   3     2.071533276219   110.82679114   176.18767151
 H      7   4   3     2.069182385076   112.50198743   296.48272904
 H      7   4   3     2.071699866114   110.78013950    56.72515244
 H      8   5   4     2.071527617677   110.82758036   302.13428518
 H      8   5   4     2.069193259526   112.50275229    62.43045900
 H      8   5   4     2.071723360769   110.77986507   182.67159616

---------------------
BASIS SET INFORMATION
---------------------
There are 2 groups of distinct atoms

 Group   1 Type C   : 17s4p1d contracted to 3s2p1d pattern {881/31/1}
 Group   2 Type H   : 4s1p contracted to 2s1p pattern {31/1}

Atom   0C    basis set group =>   1
Atom   1C    basis set group =>   1
Atom   2C    basis set group =>   1
Atom   3C    basis set group =>   1
Atom   4C    basis set group =>   1
Atom   5C    basis set group =>   1
Atom   6C    basis set group =>   1
Atom   7C    basis set group =>   1
Atom   8H    basis set group =>   2
Atom   9H    basis set group =>   2
Atom  10H    basis set group =>   2
Atom  11H    basis set group =>   2
Atom  12H    basis set group =>   2
Atom  13H    basis set group =>   2
Atom  14H    basis set group =>   2
Atom  15H    basis set group =>   2
Atom  16H    basis set group =>   2
Atom  17H    basis set group =>   2
Atom  18H    basis set group =>   2
Atom  19H    basis set group =>   2
Atom  20H    basis set group =>   2
Atom  21H    basis set group =>   2
Atom  22H    basis set group =>   2
Atom  23H    basis set group =>   2
-------------------------------
AUXILIARY BASIS SET INFORMATION
-------------------------------
There are 2 groups of distinct atoms

 Group   1 Type C   : 7s5p4d2f contracted to 7s5p4d2f pattern {1111111/11111/1111/11}
 Group   2 Type H   : 3s2p1d contracted to 3s2p1d pattern {111/11/1}

Atom   0C    basis set group =>   1
Atom   1C    basis set group =>   1
Atom   2C    basis set group =>   1
Atom   3C    basis set group =>   1
Atom   4C    basis set group =>   1
Atom   5C    basis set group =>   1
Atom   6C    basis set group =>   1
Atom   7C    basis set group =>   1
Atom   8H    basis set group =>   2
Atom   9H    basis set group =>   2
Atom  10H    basis set group =>   2
Atom  11H    basis set group =>   2
Atom  12H    basis set group =>   2
Atom  13H    basis set group =>   2
Atom  14H    basis set group =>   2
Atom  15H    basis set group =>   2
Atom  16H    basis set group =>   2
Atom  17H    basis set group =>   2
Atom  18H    basis set group =>   2
Atom  19H    basis set group =>   2
Atom  20H    basis set group =>   2
Atom  21H    basis set group =>   2
Atom  22H    basis set group =>   2
Atom  23H    basis set group =>   2
-------------------------------
AUXILIARY BASIS SET INFORMATION
-------------------------------
There are 2 groups of distinct atoms

 Group   1 Type C   : 10s7p5d2f1g contracted to 10s7p5d2f1g pattern {1111111111/1111111/11111/11/1}
 Group   2 Type H   : 4s3p2d1f contracted to 4s3p2d1f pattern {1111/111/11/1}

Atom   0C    basis set group =>   1
Atom   1C    basis set group =>   1
Atom   2C    basis set group =>   1
Atom   3C    basis set group =>   1
Atom   4C    basis set group =>   1
Atom   5C    basis set group =>   1
Atom   6C    basis set group =>   1
Atom   7C    basis set group =>   1
Atom   8H    basis set group =>   2
Atom   9H    basis set group =>   2
Atom  10H    basis set group =>   2
Atom  11H    basis set group =>   2
Atom  12H    basis set group =>   2
Atom  13H    basis set group =>   2
Atom  14H    basis set group =>   2
Atom  15H    basis set group =>   2
Atom  16H    basis set group =>   2
Atom  17H    basis set group =>   2
Atom  18H    basis set group =>   2
Atom  19H    basis set group =>   2
Atom  20H    basis set group =>   2
Atom  21H    basis set group =>   2
Atom  22H    basis set group =>   2
Atom  23H    basis set group =>   2

Checking for AutoStart:
The File: trans1_2dimethylcycloh_ax_ax.gbw exists
Trying to determine its content:
     ... Fine, the file contains calculation information
     ... Fine, the calculation information was read
     ... Fine, the file contains a basis set
     ... Fine, the basis set was read
     ... Fine, the file contains a geometry
     ... Fine, the geometry was read
     ... Fine, the file contains a set of orbitals
     ... Fine, the orbitals can be read
     => possible old guess file was deleted
     => GBW file was renamed to GES file
     => GES file is set as startup file
     => Guess is set to MORead
     ... now leaving AutoStart



           ************************************************************
           *        Program running with 4 parallel MPI-processes     *
           *              working on a common directory               *
           ************************************************************
------------------------------------------------------------------------------
                           ORCA GTO INTEGRAL CALCULATION
                           -- RI-GTO INTEGRALS CHOSEN --
------------------------------------------------------------------------------

                         BASIS SET STATISTICS AND STARTUP INFO

Gaussian basis set:
 # of primitive gaussian shells          ...  256
 # of primitive gaussian functions       ...  384
 # of contracted shells                  ...   96
 # of contracted basis functions         ...  192
 Highest angular momentum                ...    2
 Maximum contraction depth               ...    8
Auxiliary gaussian basis set:
 # of primitive gaussian shells          ...  360
 # of primitive gaussian functions       ... 1112
 # of contracted shells                  ...  360
 # of contracted aux-basis functions     ... 1112
 Highest angular momentum                ...    4
 Maximum contraction depth               ...    1
Ratio of auxiliary to basis functions    ...  5.79
Integral package used                  ... LIBINT
 One Electron integrals                  ... done
 Ordering auxiliary basis shells         ... done
 Integral threshhold             Thresh  ...  2.500e-11
 Primitive cut-off               TCut    ...  2.500e-12
 Pre-screening matrix                    ... done
 Shell pair data                         ... 
 Ordering of the shell pairs             ... done (   0.001 sec) 4636 of 4656 pairs
 Determination of significant pairs      ... done (   0.000 sec)
 Creation of shell pair data             ... done (   0.002 sec)
 Storage of shell pair data              ... done (   0.002 sec)
 Shell pair data done in (   0.004 sec)
 Computing two index integrals           ... done
 Cholesky decomposition of the V-matrix  ... done


Timings:
 Total evaluation time                   ...   0.482 sec (  0.008 min)
 One electron matrix time                ...   0.050 sec (  0.001 min) = 10.4%
 Schwartz matrix evaluation time         ...   0.193 sec (  0.003 min) = 40.1%
 Two index repulsion integral time       ...   0.100 sec (  0.002 min) = 20.8%
 Cholesky decomposition of V             ...   0.108 sec (  0.002 min) = 22.4%
 Three index repulsion integral time     ...   0.000 sec (  0.000 min) =  0.0%



           ************************************************************
           *        Program running with 4 parallel MPI-processes     *
           *              working on a common directory               *
           ************************************************************
-------------------------------------------------------------------------------
                                 ORCA SCF
-------------------------------------------------------------------------------

------------
SCF SETTINGS
------------
Hamiltonian:
 Ab initio Hamiltonian  Method          .... Hartree-Fock(GTOs)
 RI-approximation to the Coulomb term is turned on
   Number of auxiliary basis functions  .... 1112
   RI-JK (J+K treated both via RI)      .... on


General Settings:
 Integral files         IntName         .... trans1_2dimethylcycloh_ax_ax
 Hartree-Fock type      HFTyp           .... RHF
 Total Charge           Charge          ....    0
 Multiplicity           Mult            ....    1
 Number of Electrons    NEL             ....   64
 Basis Dimension        Dim             ....  192
 Nuclear Repulsion      ENuc            ....    415.2443064665 Eh

Convergence Acceleration:
 DIIS                   CNVDIIS         .... off
 Newton-Raphson         CNVNR           .... off
 SOSCF                  CNVSOSCF        .... on
   Start iteration      SOSCFMaxIt      ....   150
   Startup grad/error   SOSCFStart      ....  0.003300
 Level Shifting         CNVShift        .... on
   Level shift para.    LevelShift      ....    0.2000
   Turn off err/grad.   ShiftErr        ....    0.1000
 Zerner damping         CNVZerner       .... off
 Static damping         CNVDamp         .... off
 Fernandez-Rico         CNVRico         .... off

SCF Procedure:
 Maximum # iterations   MaxIter         ....   300
 SCF integral mode      SCFMode         .... Direct
   Integral package                     .... LIBINT
 Reset frequency        DirectResetFreq ....    20
 Integral Threshold     Thresh          ....  2.500e-11 Eh
 Primitive CutOff       TCut            ....  2.500e-12 Eh

Convergence Tolerance:
 Convergence Check Mode ConvCheckMode   .... Total+1el-Energy
 Convergence forced     ConvForced      .... 1
 Energy Change          TolE            ....  1.000e-08 Eh
 1-El. energy change                    ....  1.000e-05 Eh
 Orbital Gradient       TolG            ....  1.000e-05
 Orbital Rotation angle TolX            ....  1.000e-05


Diagonalization of the overlap matrix:
Smallest eigenvalue                        ... 3.245e-03
Time for diagonalization                   ...    0.008 sec
Threshold for overlap eigenvalues          ... 1.000e-08
Number of eigenvalues below threshold      ... 0
Time for construction of square roots      ...    0.006 sec
Total time needed                          ...    0.014 sec

---------------------
INITIAL GUESS: MOREAD
---------------------
Guess MOs are being read from file: trans1_2dimethylcycloh_ax_ax.ges
Input Geometry matches current geometry (good)
Atom 0: N(Shells)= 6 and 10 - projection required
Input basis set needs projection
NBasis(read)= 464
NBasis(calc)= 192
Basis set overlap was calculated
Using GuessMode=FMatrix for the initial guess
C*T matrix was formed
Effective Fockian was calculated
Effective Fockian was diagonalized
Initial density was built
                      ------------------
                      INITIAL GUESS DONE (   0.1 sec)
                      ------------------
--------------
SCF ITERATIONS
--------------
ITER       Energy         Delta-E        Max-DP      RMS-DP      [F,P]   Gradient Norm
                             ****Turning on KDIIS(Cayley)****
  0   -312.2916902759   0.000000000000 0.00253883  0.00005447  0.0057171   0.005670499
  1   -312.2918344105  -0.000144134563 0.00481566  0.00010501  0.0051927   0.005151300
  2   -312.2920778495  -0.000243439038 0.00744096  0.00016816  0.0041664   0.004146968
                      *** Initiating the SOSCF procedure ***
                           *** Shutting down KDIIS ***
                      *** Re-Reading the Fockian *** 
                      *** Removing any level shift *** 
ITER      Energy       Delta-E        Grad      Rot      Max-DP    RMS-DP
  3   -312.29236585  -0.0002880035  0.002501  0.002501  0.010638  0.000250
  4   -312.29252940  -0.0001635479  0.000006  0.000006  0.000018  0.000001
                  ***Gradient check signals convergence***
              ***Rediagonalizing the Fockian in SOSCF/NRSCF***

               *****************************************************
               *                     SUCCESS                       *
               *           SCF CONVERGED AFTER   5 CYCLES          *
               *****************************************************


----------------
TOTAL SCF ENERGY
----------------

Total Energy       :         -312.29252940 Eh           -8497.91175 eV

Components:
Nuclear Repulsion  :          415.24430647 Eh           11299.37203 eV
Electronic Energy  :         -727.53683587 Eh          -19797.28378 eV
One Electron Energy:        -1244.32198416 Eh          -33859.72258 eV
Two Electron Energy:          516.78514829 Eh           14062.43881 eV

Virial components:
Potential Energy   :         -624.12399390 Eh          -16983.27729 eV
Kinetic Energy     :          311.83146449 Eh            8485.36554 eV
Virial Ratio       :            2.00147857


---------------
SCF CONVERGENCE
---------------

  Last Energy change         ...   -3.5245e-09  Tolerance :   1.0000e-08
  Last MAX-Density change    ...    5.5021e-06  Tolerance :   1.0000e-07
  Last RMS-Density change    ...    2.6943e-07  Tolerance :   5.0000e-09
  Last Orbital Gradient      ...    1.6413e-06  Tolerance :   1.0000e-05
  Last Orbital Rotation      ...    2.6848e-06  Tolerance :   1.0000e-05

             **** THE GBW FILE WAS UPDATED (trans1_2dimethylcycloh_ax_ax.gbw) ****
             **** DENSITY FILE WAS UPDATED (trans1_2dimethylcycloh_ax_ax.scfp.tmp) ****
             **** ENERGY FILE WAS UPDATED (trans1_2dimethylcycloh_ax_ax.en.tmp) ****
----------------
ORBITAL ENERGIES
----------------

  NO   OCC          E(Eh)            E(eV) 
   0   2.0000     -11.224025      -305.4212 
   1   2.0000     -11.223478      -305.4064 
   2   2.0000     -11.218647      -305.2749 
   3   2.0000     -11.218156      -305.2615 
   4   2.0000     -11.217563      -305.2454 
   5   2.0000     -11.217474      -305.2430 
   6   2.0000     -11.215517      -305.1897 
   7   2.0000     -11.215513      -305.1896 
   8   2.0000      -1.119839       -30.4724 
   9   2.0000      -1.025568       -27.9071 
  10   2.0000      -1.016333       -27.6558 
  11   2.0000      -0.946256       -25.7489 
  12   2.0000      -0.885066       -24.0839 
  13   2.0000      -0.810538       -22.0559 
  14   2.0000      -0.809852       -22.0372 
  15   2.0000      -0.706590       -19.2273 
  16   2.0000      -0.651615       -17.7313 
  17   2.0000      -0.617922       -16.8145 
  18   2.0000      -0.606074       -16.4921 
  19   2.0000      -0.575845       -15.6695 
  20   2.0000      -0.560541       -15.2531 
  21   2.0000      -0.548867       -14.9354 
  22   2.0000      -0.544742       -14.8232 
  23   2.0000      -0.535107       -14.5610 
  24   2.0000      -0.500763       -13.6264 
  25   2.0000      -0.492825       -13.4104 
  26   2.0000      -0.476984       -12.9794 
  27   2.0000      -0.467811       -12.7298 
  28   2.0000      -0.465681       -12.6718 
  29   2.0000      -0.430067       -11.7027 
  30   2.0000      -0.417171       -11.3518 
  31   2.0000      -0.413381       -11.2487 
  32   0.0000       0.172431         4.6921 
  33   0.0000       0.196390         5.3440 
  34   0.0000       0.211820         5.7639 
  35   0.0000       0.213446         5.8082 
  36   0.0000       0.238641         6.4937 
  37   0.0000       0.245317         6.6754 
  38   0.0000       0.247517         6.7353 
  39   0.0000       0.251769         6.8510 
  40   0.0000       0.265253         7.2179 
  41   0.0000       0.273866         7.4523 
  42   0.0000       0.278305         7.5731 
  43   0.0000       0.299866         8.1598 
  44   0.0000       0.314826         8.5669 
  45   0.0000       0.317073         8.6280 
  46   0.0000       0.337757         9.1908 
  47   0.0000       0.338656         9.2153 
  48   0.0000       0.371910        10.1202 
  49   0.0000       0.377911        10.2835 
  50   0.0000       0.402124        10.9424 
  51   0.0000       0.415423        11.3042 
  52   0.0000       0.425609        11.5814 
  53   0.0000       0.430737        11.7209 
  54   0.0000       0.450180        12.2500 
  55   0.0000       0.470062        12.7910 
  56   0.0000       0.577894        15.7253 
  57   0.0000       0.601580        16.3698 
  58   0.0000       0.608581        16.5603 
  59   0.0000       0.611261        16.6333 
  60   0.0000       0.627254        17.0685 
  61   0.0000       0.629722        17.1356 
  62   0.0000       0.649486        17.6734 
  63   0.0000       0.695240        18.9184 
  64   0.0000       0.697033        18.9672 
  65   0.0000       0.785729        21.3808 
  66   0.0000       0.799326        21.7508 
  67   0.0000       0.813413        22.1341 
  68   0.0000       0.822147        22.3718 
  69   0.0000       0.827034        22.5047 
  70   0.0000       0.855890        23.2899 
  71   0.0000       0.857071        23.3221 
  72   0.0000       0.870283        23.6816 
  73   0.0000       0.875044        23.8112 
  74   0.0000       0.882827        24.0230 
  75   0.0000       0.888051        24.1651 
  76   0.0000       0.892838        24.2954 
  77   0.0000       0.894000        24.3270 
  78   0.0000       0.894488        24.3403 
  79   0.0000       0.903021        24.5724 
  80   0.0000       0.911269        24.7969 
  81   0.0000       0.921634        25.0789 
  82   0.0000       0.924127        25.1468 
  83   0.0000       0.938964        25.5505 
  84   0.0000       0.943271        25.6677 
  85   0.0000       0.948466        25.8091 
  86   0.0000       0.954178        25.9645 
  87   0.0000       0.954251        25.9665 
  88   0.0000       0.960406        26.1340 
  89   0.0000       0.990541        26.9540 
  90   0.0000       1.000600        27.2277 
  91   0.0000       1.003999        27.3202 
  92   0.0000       1.023380        27.8476 
  93   0.0000       1.043800        28.4032 
  94   0.0000       1.125158        30.6171 
  95   0.0000       1.129234        30.7280 
  96   0.0000       1.134318        30.8664 
  97   0.0000       1.225544        33.3487 
  98   0.0000       1.235597        33.6223 
  99   0.0000       1.269799        34.5530 
 100   0.0000       1.328796        36.1584 
 101   0.0000       1.347892        36.6780 
 102   0.0000       1.409266        38.3481 
 103   0.0000       1.427057        38.8322 
 104   0.0000       1.452457        39.5234 
 105   0.0000       1.455746        39.6129 
 106   0.0000       1.500313        40.8256 
 107   0.0000       1.545563        42.0569 
 108   0.0000       1.576571        42.9007 
 109   0.0000       1.611820        43.8598 
 110   0.0000       1.628405        44.3112 
 111   0.0000       1.663580        45.2683 
 112   0.0000       1.675788        45.6005 
 113   0.0000       1.686640        45.8958 
 114   0.0000       1.700846        46.2824 
 115   0.0000       1.719034        46.7773 
 116   0.0000       1.719134        46.7800 
 117   0.0000       1.782310        48.4991 
 118   0.0000       1.799319        48.9619 
 119   0.0000       1.817194        49.4483 
 120   0.0000       1.823627        49.6234 
 121   0.0000       1.855942        50.5027 
 122   0.0000       1.864792        50.7436 
 123   0.0000       1.885936        51.3189 
 124   0.0000       1.894982        51.5651 
 125   0.0000       1.903061        51.7849 
 126   0.0000       1.904628        51.8276 
 127   0.0000       1.908539        51.9340 
 128   0.0000       1.926107        52.4120 
 129   0.0000       1.946064        52.9551 
 130   0.0000       1.947449        52.9928 
 131   0.0000       1.962207        53.3944 
 132   0.0000       1.969802        53.6010 
 133   0.0000       1.981835        53.9285 
 134   0.0000       1.982644        53.9505 
 135   0.0000       1.996146        54.3179 
 136   0.0000       2.015033        54.8318 
 137   0.0000       2.016277        54.8657 
 138   0.0000       2.031392        55.2770 
 139   0.0000       2.034323        55.3567 
 140   0.0000       2.044123        55.6234 
 141   0.0000       2.056654        55.9644 
 142   0.0000       2.068747        56.2935 
 143   0.0000       2.077150        56.5221 
 144   0.0000       2.110542        57.4308 
 145   0.0000       2.123289        57.7776 
 146   0.0000       2.137453        58.1631 
 147   0.0000       2.151173        58.5364 
 148   0.0000       2.161290        58.8117 
 149   0.0000       2.182578        59.3910 
 150   0.0000       2.231665        60.7267 
 151   0.0000       2.233722        60.7827 
 152   0.0000       2.248116        61.1743 
 153   0.0000       2.266775        61.6821 
 154   0.0000       2.270549        61.7848 
 155   0.0000       2.331092        63.4322 
 156   0.0000       2.355333        64.0919 
 157   0.0000       2.379127        64.7393 
 158   0.0000       2.386617        64.9431 
 159   0.0000       2.391208        65.0681 
 160   0.0000       2.401185        65.3396 
 161   0.0000       2.411852        65.6298 
 162   0.0000       2.420392        65.8622 
 163   0.0000       2.443009        66.4777 
 164   0.0000       2.499138        68.0050 
 165   0.0000       2.499571        68.0168 
 166   0.0000       2.560492        69.6745 
 167   0.0000       2.562683        69.7341 
 168   0.0000       2.589479        70.4633 
 169   0.0000       2.597969        70.6943 
 170   0.0000       2.620754        71.3143 
 171   0.0000       2.645831        71.9967 
 172   0.0000       2.654420        72.2304 
 173   0.0000       2.675144        72.7944 
 174   0.0000       2.724069        74.1257 
 175   0.0000       2.763092        75.1876 
 176   0.0000       2.787255        75.8451 
 177   0.0000       2.787398        75.8490 
 178   0.0000       2.790937        75.9453 
 179   0.0000       2.828234        76.9602 
 180   0.0000       2.848717        77.5175 
 181   0.0000       2.870322        78.1054 
 182   0.0000       2.881526        78.4103 
 183   0.0000       2.908692        79.1495 
 184   0.0000       2.970926        80.8430 
 185   0.0000       2.984145        81.2027 
 186   0.0000       2.986266        81.2604 
 187   0.0000       3.000082        81.6364 
 188   0.0000       3.013880        82.0119 
 189   0.0000       3.083304        83.9010 
 190   0.0000       3.132948        85.2518 
 191   0.0000       3.175112        86.3992 

                    ********************************
                    * MULLIKEN POPULATION ANALYSIS *
                    ********************************

-----------------------
MULLIKEN ATOMIC CHARGES
-----------------------
   0 C :   -0.038753
   1 C :   -0.038756
   2 C :    0.006080
   3 C :   -0.169382
   4 C :   -0.169391
   5 C :    0.006077
   6 C :    0.026876
   7 C :    0.026873
   8 H :    0.021399
   9 H :    0.019712
  10 H :    0.008150
  11 H :    0.008153
  12 H :    0.021929
  13 H :    0.022630
  14 H :    0.021400
  15 H :    0.019715
  16 H :    0.021929
  17 H :    0.022629
  18 H :    0.026730
  19 H :    0.027054
  20 H :    0.027580
  21 H :    0.026732
  22 H :    0.027052
  23 H :    0.027581
Sum of atomic charges:    0.0000000

--------------------------------
MULLIKEN REDUCED ORBITAL CHARGES
--------------------------------
  0 C s       :     3.065634  s :     3.065634
      pz      :     0.966870  p :     2.890172
      px      :     0.962243
      py      :     0.961059
      dz2     :     0.008078  d :     0.082947
      dxz     :     0.022430
      dyz     :     0.020162
      dx2y2   :     0.022616
      dxy     :     0.009660
  1 C s       :     3.065632  s :     3.065632
      pz      :     0.966871  p :     2.890177
      px      :     0.962267
      py      :     0.961039
      dz2     :     0.008078  d :     0.082947
      dxz     :     0.022431
      dyz     :     0.020162
      dx2y2   :     0.022616
      dxy     :     0.009660
  2 C s       :     3.045376  s :     3.045376
      pz      :     0.970728  p :     2.867603
      px      :     0.963838
      py      :     0.933036
      dz2     :     0.010933  d :     0.080942
      dxz     :     0.016841
      dyz     :     0.020929
      dx2y2   :     0.024185
      dxy     :     0.008054
  3 C s       :     3.146287  s :     3.146287
      pz      :     0.998710  p :     2.921281
      px      :     0.950196
      py      :     0.972375
      dz2     :     0.011059  d :     0.101814
      dxz     :     0.025342
      dyz     :     0.027235
      dx2y2   :     0.026291
      dxy     :     0.011887
  4 C s       :     3.146286  s :     3.146286
      pz      :     0.998714  p :     2.921292
      px      :     0.950189
      py      :     0.972389
      dz2     :     0.011059  d :     0.101813
      dxz     :     0.025342
      dyz     :     0.027234
      dx2y2   :     0.026299
      dxy     :     0.011881
  5 C s       :     3.045379  s :     3.045379
      pz      :     0.970732  p :     2.867603
      px      :     0.963835
      py      :     0.933035
      dz2     :     0.010934  d :     0.080942
      dxz     :     0.016840
      dyz     :     0.020928
      dx2y2   :     0.024187
      dxy     :     0.008053
  6 C s       :     3.005048  s :     3.005048
      pz      :     0.969933  p :     2.907305
      px      :     0.954276
      py      :     0.983095
      dz2     :     0.006315  d :     0.060771
      dxz     :     0.015571
      dyz     :     0.018696
      dx2y2   :     0.016808
      dxy     :     0.003381
  7 C s       :     3.005055  s :     3.005055
      pz      :     0.969936  p :     2.907302
      px      :     0.954251
      py      :     0.983115
      dz2     :     0.006316  d :     0.060770
      dxz     :     0.015571
      dyz     :     0.018695
      dx2y2   :     0.016819
      dxy     :     0.003370
  8 H s       :     0.949715  s :     0.949715
      pz      :     0.014890  p :     0.028886
      px      :     0.010230
      py      :     0.003767
  9 H s       :     0.951188  s :     0.951188
      pz      :     0.006286  p :     0.029100
      px      :     0.018968
      py      :     0.003846
 10 H s       :     0.964491  s :     0.964491
      pz      :     0.010710  p :     0.027359
      px      :     0.003346
      py      :     0.013303
 11 H s       :     0.964488  s :     0.964488
      pz      :     0.010711  p :     0.027359
      px      :     0.003346
      py      :     0.013301
 12 H s       :     0.948839  s :     0.948839
      pz      :     0.009858  p :     0.029232
      px      :     0.004624
      py      :     0.014750
 13 H s       :     0.948538  s :     0.948538
      pz      :     0.013289  p :     0.028832
      px      :     0.011045
      py      :     0.004498
 14 H s       :     0.949714  s :     0.949714
      pz      :     0.014890  p :     0.028886
      px      :     0.010230
      py      :     0.003766
 15 H s       :     0.951186  s :     0.951186
      pz      :     0.006286  p :     0.029100
      px      :     0.018968
      py      :     0.003846
 16 H s       :     0.948840  s :     0.948840
      pz      :     0.009858  p :     0.029232
      px      :     0.004620
      py      :     0.014754
 17 H s       :     0.948540  s :     0.948540
      pz      :     0.013289  p :     0.028831
      px      :     0.011043
      py      :     0.004499
 18 H s       :     0.943054  s :     0.943054
      pz      :     0.008261  p :     0.030216
      px      :     0.004940
      py      :     0.017014
 19 H s       :     0.942446  s :     0.942446
      pz      :     0.012644  p :     0.030500
      px      :     0.004881
      py      :     0.012976
 20 H s       :     0.942170  s :     0.942170
      pz      :     0.007372  p :     0.030250
      px      :     0.017598
      py      :     0.005280
 21 H s       :     0.943052  s :     0.943052
      pz      :     0.008260  p :     0.030216
      px      :     0.004937
      py      :     0.017019
 22 H s       :     0.942448  s :     0.942448
      pz      :     0.012645  p :     0.030500
      px      :     0.004879
      py      :     0.012975
 23 H s       :     0.942169  s :     0.942169
      pz      :     0.007372  p :     0.030250
      px      :     0.017598
      py      :     0.005279


                     *******************************
                     * LOEWDIN POPULATION ANALYSIS *
                     *******************************

----------------------
LOEWDIN ATOMIC CHARGES
----------------------
   0 C :   -0.033097
   1 C :   -0.033096
   2 C :   -0.027044
   3 C :   -0.035035
   4 C :   -0.035037
   5 C :   -0.027045
   6 C :   -0.045424
   7 C :   -0.045427
   8 H :    0.016069
   9 H :    0.017622
  10 H :    0.016853
  11 H :    0.016854
  12 H :    0.019056
  13 H :    0.014759
  14 H :    0.016071
  15 H :    0.017623
  16 H :    0.019056
  17 H :    0.014759
  18 H :    0.020182
  19 H :    0.015668
  20 H :    0.020390
  21 H :    0.020182
  22 H :    0.015668
  23 H :    0.020392

-------------------------------
LOEWDIN REDUCED ORBITAL CHARGES
-------------------------------
  0 C s       :     2.791839  s :     2.791839
      pz      :     1.021991  p :     3.036106
      px      :     1.005960
      py      :     1.008156
      dz2     :     0.019064  d :     0.205151
      dxz     :     0.055846
      dyz     :     0.050863
      dx2y2   :     0.056269
      dxy     :     0.023109
  1 C s       :     2.791837  s :     2.791837
      pz      :     1.021991  p :     3.036107
      px      :     1.005962
      py      :     1.008154
      dz2     :     0.019064  d :     0.205151
      dxz     :     0.055852
      dyz     :     0.050858
      dx2y2   :     0.056267
      dxy     :     0.023111
  2 C s       :     2.792523  s :     2.792523
      pz      :     1.011780  p :     3.030943
      px      :     1.026391
      py      :     0.992772
      dz2     :     0.027919  d :     0.203578
      dxz     :     0.045775
      dyz     :     0.049683
      dx2y2   :     0.059773
      dxy     :     0.020428
  3 C s       :     2.794835  s :     2.794835
      pz      :     1.007039  p :     3.000666
      px      :     0.989571
      py      :     1.004057
      dz2     :     0.025572  d :     0.239533
      dxz     :     0.057551
      dyz     :     0.066319
      dx2y2   :     0.062784
      dxy     :     0.027307
  4 C s       :     2.794838  s :     2.794838
      pz      :     1.007040  p :     3.000667
      px      :     0.989565
      py      :     1.004061
      dz2     :     0.025572  d :     0.239532
      dxz     :     0.057553
      dyz     :     0.066315
      dx2y2   :     0.062800
      dxy     :     0.027292
  5 C s       :     2.792524  s :     2.792524
      pz      :     1.011781  p :     3.030943
      px      :     1.026390
      py      :     0.992773
      dz2     :     0.027920  d :     0.203578
      dxz     :     0.045773
      dyz     :     0.049680
      dx2y2   :     0.059777
      dxy     :     0.020428
  6 C s       :     2.796277  s :     2.796277
      pz      :     1.027703  p :     3.086870
      px      :     1.019053
      py      :     1.040114
      dz2     :     0.016375  d :     0.162277
      dxz     :     0.039322
      dyz     :     0.050993
      dx2y2   :     0.046925
      dxy     :     0.008662
  7 C s       :     2.796283  s :     2.796283
      pz      :     1.027705  p :     3.086869
      px      :     1.019036
      py      :     1.040128
      dz2     :     0.016377  d :     0.162275
      dxz     :     0.039322
      dyz     :     0.050988
      dx2y2   :     0.046956
      dxy     :     0.008632
  8 H s       :     0.905167  s :     0.905167
      pz      :     0.036310  p :     0.078764
      px      :     0.026112
      py      :     0.016342
  9 H s       :     0.903871  s :     0.903871
      pz      :     0.019346  p :     0.078507
      px      :     0.042886
      py      :     0.016274
 10 H s       :     0.904260  s :     0.904260
      pz      :     0.029116  p :     0.078887
      px      :     0.016073
      py      :     0.033698
 11 H s       :     0.904260  s :     0.904260
      pz      :     0.029118  p :     0.078886
      px      :     0.016074
      py      :     0.033693
 12 H s       :     0.902593  s :     0.902593
      pz      :     0.025876  p :     0.078351
      px      :     0.016589
      py      :     0.035886
 13 H s       :     0.906696  s :     0.906696
      pz      :     0.032819  p :     0.078545
      px      :     0.029505
      py      :     0.016222
 14 H s       :     0.905167  s :     0.905167
      pz      :     0.036310  p :     0.078762
      px      :     0.026111
      py      :     0.016341
 15 H s       :     0.903870  s :     0.903870
      pz      :     0.019346  p :     0.078507
      px      :     0.042887
      py      :     0.016274
 16 H s       :     0.902593  s :     0.902593
      pz      :     0.025875  p :     0.078351
      px      :     0.016582
      py      :     0.035893
 17 H s       :     0.906698  s :     0.906698
      pz      :     0.032819  p :     0.078544
      px      :     0.029501
      py      :     0.016224
 18 H s       :     0.901770  s :     0.901770
      pz      :     0.022690  p :     0.078048
      px      :     0.016089
      py      :     0.039268
 19 H s       :     0.904743  s :     0.904743
      pz      :     0.031659  p :     0.079589
      px      :     0.016160
      py      :     0.031770
 20 H s       :     0.901569  s :     0.901569
      pz      :     0.021119  p :     0.078041
      px      :     0.041393
      py      :     0.015529
 21 H s       :     0.901769  s :     0.901769
      pz      :     0.022688  p :     0.078049
      px      :     0.016082
      py      :     0.039279
 22 H s       :     0.904744  s :     0.904744
      pz      :     0.031661  p :     0.079587
      px      :     0.016159
      py      :     0.031767
 23 H s       :     0.901570  s :     0.901570
      pz      :     0.021119  p :     0.078039
      px      :     0.041393
      py      :     0.015526


                      *****************************
                      * MAYER POPULATION ANALYSIS *
                      *****************************

  NA   - Mulliken gross atomic population
  ZA   - Total nuclear charge
  QA   - Mulliken gross atomic charge
  VA   - Mayer's total valence
  BVA  - Mayer's bonded valence
  FA   - Mayer's free valence

  ATOM       NA         ZA         QA         VA         BVA        FA
  0 C      6.0388     6.0000    -0.0388     3.9907     3.9907    -0.0000
  1 C      6.0388     6.0000    -0.0388     3.9907     3.9907    -0.0000
  2 C      5.9939     6.0000     0.0061     3.9534     3.9534     0.0000
  3 C      6.1694     6.0000    -0.1694     4.0224     4.0224     0.0000
  4 C      6.1694     6.0000    -0.1694     4.0224     4.0224    -0.0000
  5 C      5.9939     6.0000     0.0061     3.9534     3.9534    -0.0000
  6 C      5.9731     6.0000     0.0269     3.9350     3.9350    -0.0000
  7 C      5.9731     6.0000     0.0269     3.9350     3.9350     0.0000
  8 H      0.9786     1.0000     0.0214     0.9686     0.9686    -0.0000
  9 H      0.9803     1.0000     0.0197     0.9731     0.9731     0.0000
 10 H      0.9918     1.0000     0.0082     0.9677     0.9677     0.0000
 11 H      0.9918     1.0000     0.0082     0.9677     0.9677    -0.0000
 12 H      0.9781     1.0000     0.0219     0.9699     0.9699    -0.0000
 13 H      0.9774     1.0000     0.0226     0.9660     0.9660    -0.0000
 14 H      0.9786     1.0000     0.0214     0.9686     0.9686     0.0000
 15 H      0.9803     1.0000     0.0197     0.9731     0.9731     0.0000
 16 H      0.9781     1.0000     0.0219     0.9699     0.9699     0.0000
 17 H      0.9774     1.0000     0.0226     0.9660     0.9660     0.0000
 18 H      0.9733     1.0000     0.0267     0.9771     0.9771    -0.0000
 19 H      0.9729     1.0000     0.0271     0.9804     0.9804     0.0000
 20 H      0.9724     1.0000     0.0276     0.9763     0.9763    -0.0000
 21 H      0.9733     1.0000     0.0267     0.9771     0.9771    -0.0000
 22 H      0.9729     1.0000     0.0271     0.9804     0.9804     0.0000
 23 H      0.9724     1.0000     0.0276     0.9763     0.9763     0.0000

  Mayer bond orders larger than 0.1
B(  0-C ,  1-C ) :   1.0434 B(  0-C ,  5-C ) :   1.0383 B(  0-C , 16-H ) :   0.9728 
B(  0-C , 17-H ) :   0.9655 B(  1-C ,  2-C ) :   1.0383 B(  1-C , 12-H ) :   0.9728 
B(  1-C , 13-H ) :   0.9655 B(  2-C ,  3-C ) :   1.0326 B(  2-C ,  8-H ) :   0.9658 
B(  2-C ,  9-H ) :   0.9699 B(  3-C ,  4-C ) :   1.0094 B(  3-C ,  6-C ) :   1.0470 
B(  3-C , 10-H ) :   0.9595 B(  4-C ,  5-C ) :   1.0326 B(  4-C ,  7-C ) :   1.0470 
B(  4-C , 11-H ) :   0.9595 B(  5-C , 14-H ) :   0.9658 B(  5-C , 15-H ) :   0.9699 
B(  6-C , 18-H ) :   0.9795 B(  6-C , 19-H ) :   0.9763 B(  6-C , 20-H ) :   0.9805 
B(  7-C , 21-H ) :   0.9795 B(  7-C , 22-H ) :   0.9763 B(  7-C , 23-H ) :   0.9805 


-------
TIMINGS
-------

Total SCF time: 0 days 0 hours 0 min 7 sec 

Total time                  ....       7.059 sec
Sum of individual times     ....       6.882 sec  ( 97.5%)

Fock matrix formation       ....       6.777 sec  ( 96.0%)
Diagonalization             ....       0.017 sec  (  0.2%)
Density matrix formation    ....       0.002 sec  (  0.0%)
Population analysis         ....       0.009 sec  (  0.1%)
Initial guess               ....       0.071 sec  (  1.0%)
Orbital Transformation      ....       0.000 sec  (  0.0%)
Orbital Orthonormalization  ....       0.000 sec  (  0.0%)
DIIS solution               ....       0.000 sec  (  0.0%)
SOSCF solution              ....       0.006 sec  (  0.1%)


           ************************************************************
           *        Program running with 4 parallel MPI-processes     *
           *              working on a common directory               *
           ************************************************************


------------------------------------------------------------------------------- 
                              ORCA-MATRIX DRIVEN CI                            
------------------------------------------------------------------------------- 


Wavefunction type
-----------------
Correlation treatment                      ...      CCSD     
Single excitations                         ... ON
Orbital optimization                       ... OFF
Calculation of Z vector                    ... OFF
Calculation of Brueckner orbitals          ... OFF
Perturbative triple excitations            ... ON
Calculation of F12 correction              ... OFF
Frozen core treatment                      ... chemical core (16 el)
Reference Wavefunction                     ... RHF
  Internal Orbitals:     8 ...   31 ( 24 MO's/ 48 electrons)
  Virtual  Orbitals:    32 ...  191 (160 MO's              )
Number of AO's                             ...    192
Number of electrons                        ...     64
Number of correlated electrons             ...     48

Algorithmic settings
--------------------
Integral transformation                    ... All integrals via the RI transformation
K(C) Formation                             ... RI-DLPNO
   PNO-Integral Storage                    ... ON DISK
   PNO occupation number cut-off           ... 1.000e-07
   Singles PNO occupation number cut-off   ... 3.000e-09
   PNO Mulliken prescreening cut-off       ... 1.000e-03
   Domain cut-off (Mulliken population)    ... 1.000e-03
   PNO Normalization                       ...    1
Maximum number of iterations               ...        50
Convergence tolerance (max. residuum)      ... 1.000e-05
Level shift for amplitude update           ... 2.000e-01
Maximum number of DIIS vectors             ...         7
DIIS turned on at iteration                ...         0
Damping before turning on DIIS             ...     0.500
Damping after turning on DIIS              ...     0.000
Pair specific amplitude update             ... OFF
Natural orbital iterations                 ... OFF
Perturbative natural orbital generation    ... OFF
Printlevel                                 ... 2

Singles Fock matrix elements calculated using PNOs.

Memory handling:
----------------
Maximum memory for working arrays          ...   8000 MB
Data storage in matrix containers          ... UNCOMPRESSED
Data type for integral storage             ... DOUBLE
In-Core Storage of quantities:
   Amplitudes+Sigma Vector      ... NO
   J+K operators                ... NO
   DIIS vectors                 ... NO
   3-external integrals         ... NO
   4-external integrals         ... NO

Localization treatment:
-----------------------
Localization option                        ...    6
Localization threshhold                    ... -1.0e+00
Using relative localization threshhold     ... 1.0e-08
Neglect threshold for strong pairs         ... 1.000e-05 Eh
Prescreening threshold for very weak pairs ... 1.000e-07 Eh

Initializing the integral package          ... done
Localizing the valence orbitals
------------------------------------------------------------------------------
                           ORCA ORBITAL LOCALIZATION
------------------------------------------------------------------------------

Input orbitals are from                  ... trans1_2dimethylcycloh_ax_ax.proc0.gbw
Output orbitals are to                   ... trans1_2dimethylcycloh_ax_ax.proc0.loc
Max. number of iterations                ... 128
Localizations seeded randomly            ... off
Convergence tolerance                    ... 1.000e-06
Using relative localization threshhold   ... 1.000e-08
Treshold for strong local MOs            ... 9.500e-01
Treshold for bond MOs                    ... 8.500e-01
Operator                                 ... 0
Orbital range for localization           ... 8 to 31
Localization criterion                   ... FOSTER-BOYS (AUGMENTED HESSIAN)
Doing the dipole integrals     ... o.k.
Initial value of the localization sum :   346.120366
ITERATION   0 : L=  361.5717272177 DL=  1.55e+01 (AVERGE_DL)=    0.2366076803 
ITERATION   1 : L=  363.5743711188 DL=  2.00e+00 (AVERGE_DL)=    0.0851819004 
ITERATION   2 : L=  363.6105328058 DL=  3.62e-02 (AVERGE_DL)=    0.0114464232 
ITERATION   3 : L=  363.6107387131 DL=  2.06e-04 (AVERGE_DL)=    0.0008637367 
ITERATION   4 : L=  363.6107392032 DL=  4.90e-07 (AVERGE_DL)=    0.0000421395 
LOCALIZATION SUM CONVERGED

------------------------------------------------------
AUGMENTED HESSIAN OPTIMIZATION OF FOSTER-BOYS ORBITALS
------------------------------------------------------

Spin operator:           0
Orbital window:          8 to 31
Number of iterations:    128
Gradient tolerance:      1.000e-06
Number of pairs:         276
Davidson threshold:      2000
Diagonalization method:  LAPACK
Iter:    0   L: 363.6107392032   Grad. norm: 1.344414e-03
   *** Likely close to a maximum now. ***
       Augmented Hessian eigenvalues:  1.17e-08 -1.74e+01 -1.74e+01 -1.79e+01 ... 
Iter:    1   L: 363.6107392091   Grad. norm: 4.559609e-10
LOCALIZATION HAS CONVERGED.

Eigenvalues of the Hessian:
  0 -1.738e+01
  1 -1.738e+01
  2 -1.792e+01
  3 -1.793e+01
  4 -1.798e+01
  5 -1.806e+01
  6 -1.817e+01
  7 -1.818e+01
  8 -1.832e+01
  9 -1.834e+01
    ...


------------------------------------------------------------------------------- 
                    LOCALIZED MOLECULAR ORBITAL COMPOSITIONS                   
------------------------------------------------------------------------------- 

The Mulliken populations for each LMO on each atom are computed
The LMO`s will be ordered according to atom index and type
  (A) Strongly localized MO`s have populations of >=0.950 on one atom
  (B) Two center bond orbitals have populations of >=0.850 on two atoms
  (C) Other MO`s are considered to be `delocalized`

FOUND  -   0 strongly local MO`s
       -  24 two center bond MO`s
       -   0 significantly delocalized MO`s

Bond-like localized orbitals:
MO  31:  23H  -   0.503567  and   7C  -   0.507414
MO  30:  22H  -   0.502784  and   7C  -   0.508790
MO  29:  21H  -   0.503715  and   7C  -   0.506730
MO  28:  20H  -   0.503567  and   6C  -   0.507413
MO  27:  19H  -   0.502783  and   6C  -   0.508791
MO  26:  18H  -   0.503716  and   6C  -   0.506730
MO  25:  17H  -   0.509948  and   0C  -   0.503261
MO  24:  16H  -   0.508076  and   0C  -   0.503184
MO  23:  15H  -   0.508349  and   5C  -   0.502111
MO  22:  14H  -   0.509604  and   5C  -   0.501920
MO  21:  13H  -   0.509947  and   1C  -   0.503262
MO  20:  12H  -   0.508076  and   1C  -   0.503185
MO  19:  11H  -   0.515501  and   4C  -   0.495964
MO  18:  10H  -   0.515500  and   3C  -   0.495964
MO  17:   9H  -   0.508351  and   2C  -   0.502110
MO  16:   8H  -   0.509604  and   2C  -   0.501920
MO  15:   7C  -   0.497700  and   4C  -   0.550825
MO  14:   6C  -   0.497700  and   3C  -   0.550825
MO  13:   5C  -   0.514675  and   4C  -   0.537392
MO  12:   5C  -   0.523077  and   0C  -   0.521643
MO  11:   4C  -   0.529555  and   3C  -   0.529554
MO  10:   3C  -   0.537392  and   2C  -   0.514677
MO   9:   2C  -   0.523077  and   1C  -   0.521644
MO   8:   1C  -   0.523353  and   0C  -   0.523353
Localized MO's were stored in: trans1_2dimethylcycloh_ax_ax.proc0.loc

Localizing the core orbitals
------------------------------------------------------------------------------
                           ORCA ORBITAL LOCALIZATION
------------------------------------------------------------------------------

Input orbitals are from                  ... trans1_2dimethylcycloh_ax_ax.proc0.loc
Output orbitals are to                   ... trans1_2dimethylcycloh_ax_ax.proc0.loc
Max. number of iterations                ... 128
Localizations seeded randomly            ... off
Convergence tolerance                    ... 1.000e-06
Using relative localization threshhold   ... 1.000e-08
Treshold for strong local MOs            ... 9.500e-01
Treshold for bond MOs                    ... 8.500e-01
Operator                                 ... 0
Orbital range for localization           ... 0 to 7
Localization criterion                   ... FOSTER-BOYS (AUGMENTED HESSIAN)
Doing the dipole integrals     ... o.k.
Initial value of the localization sum :    87.962182
ITERATION   0 : L=   87.9622036731 DL=  2.18e-05 (AVERGE_DL)=    0.0008822003 
ITERATION   1 : L=   87.9622036731 DL=  0.00e+00 (AVERGE_DL)=    0.0000000000 
LOCALIZATION SUM CONVERGED

------------------------------------------------------
AUGMENTED HESSIAN OPTIMIZATION OF FOSTER-BOYS ORBITALS
------------------------------------------------------

Spin operator:           0
Orbital window:          0 to 7
Number of iterations:    128
Gradient tolerance:      1.000e-06
Number of pairs:         28
Davidson threshold:      2000
Diagonalization method:  LAPACK
Iter:    0   L: 87.9622036731   Grad. norm: 7.320473e-06
   *** Likely close to a maximum now. ***
       Augmented Hessian eigenvalues:  5.74e-13 -3.37e+01 -3.38e+01 -3.38e+01 ... 
Iter:    1   L: 87.9622036731   Grad. norm: 1.061505e-14
LOCALIZATION HAS CONVERGED.

Eigenvalues of the Hessian:
  0 -3.373e+01
  1 -3.379e+01
  2 -3.379e+01
  3 -3.385e+01
  4 -3.385e+01
  5 -3.419e+01
  6 -3.419e+01
  7 -3.457e+01
  8 -9.198e+01
  9 -9.198e+01
    ...


------------------------------------------------------------------------------- 
                    LOCALIZED MOLECULAR ORBITAL COMPOSITIONS                   
------------------------------------------------------------------------------- 

The Mulliken populations for each LMO on each atom are computed
The LMO`s will be ordered according to atom index and type
  (A) Strongly localized MO`s have populations of >=0.950 on one atom
  (B) Two center bond orbitals have populations of >=0.850 on two atoms
  (C) Other MO`s are considered to be `delocalized`

FOUND  -   8 strongly local MO`s
       -   0 two center bond MO`s
       -   0 significantly delocalized MO`s

Rather strongly localized orbitals:
MO   7:   7C  -   0.999592
MO   6:   6C  -   0.999592
MO   5:   5C  -   0.999256
MO   4:   4C  -   0.998959
MO   3:   3C  -   0.998959
MO   2:   2C  -   0.999256
MO   1:   1C  -   0.999225
MO   0:   0C  -   0.999225
Localized MO's were stored in: trans1_2dimethylcycloh_ax_ax.proc0.loc

Warning: internal orbitals are localized - no re-canonicalization of internal orbitals

--------------------------
CLOSED-SHELL FOCK OPERATOR
--------------------------

RI-JK section for the Fock operator:
  RHF full Fock operator         ... done
  RHF frozen core Fock operator  ... done
Time needed for Fock operator              ...            2.207 sec
Reference energy                           ...   -312.292529405

--------------
DLPNO SETTINGS (2015 fully linear scaling implementation)
--------------

TCutMKN:           1.000e-03
TCutPAO:           1.000e-03
TCutPNO:           1.000e-07
TCutPNOSingles:    3.000e-09
TCutEN:            9.700e-01
TCutPAOExt:        1.000e-01
TCutPairs:         1.000e-05
TCutPre:           1.000e-07
TCutOSV:           1.000e-06
TCutDOij:          1.000e-05
TCutDO:            5.000e-03
TCutC:             1.000e-04
TCutCPAO:          1.000e-03
TCutCMO:           1.000e-03
TScaleDOMP2PreScr: 2.000e+00
TScaleMKNMP2PreScr:1.000e+01
TScalePNOMP2PreScr:1.000e+00
PAO overlap thresh 1.000e-08
Using PNOs for Singles Fock computation
Use new domains
Use fully linear algorithm
TCutTNO:           1.000e-09
TCutMP2Pairs:      1.000e-06
TCutDOStrong:      2.000e-03
TCutMKNStrong:     1.000e-02
TCutMKNWeak:       1.000e-01
TCutDOWeak:        4.000e-03
NTCutTNO:          1

--------------------------
Calculating differential overlap integrals ... ok
--------------------------
ELECTRON PAIR PRESCREENING
--------------------------

Dipole-based pair screening          .... used

   TCutDOij = 1.000000e-05
   TCutPre  = 1.000000e-07
   .... Finished loop over pairs
Total time spent in the prescreening                  ...     0.000 sec
sum of pair energies estimated for screened out pairs ...       0.000000000000 Eh
Thresholds for map construction and integral transformation for crude MP2:
   TCutMKN                    ...     1.0e-02
   TCutDO                     ...     1.0e-02
   TCutPairs                  ...     1.0e-05
   TCutPNO_CrudeMP2           ...     1.0e-07
   TCutPNOSingles_CrudeMP2    ...     3.0e-09
--------------------------------
LOCAL RI TRANSFORMATION (IAVPAO)
--------------------------------

Orbital window:       8 to 31
Number of PAOs:     192
Basis functions:    192 (96 shells)
Aux. functions:     672 (240 shells)

Processing maps (0.0 sec)
Average map sizes:
   Aux shells -> MOs              24.0
   Aux shells -> PAOs            192.0
   MOs        -> AO shells        92.2
   PAOs       -> AO shells        95.7

Calculating integrals (0.5 sec, 23.633 MB)
Sorting integrals (0.0 sec, 23.625 MB)
Total time for the integral transformation: 0.6 sec
--------------------------------
INITIAL GUESS AND PNO GENERATION
--------------------------------

PNO truncation parameters                   .... 
    PAOOverlapThresh   =        1.000e-08

    TCutPairs          =        1.000e-05
    TCutPNO            =        1.000e-07
    TCutPNOSingles     =        3.000e-09
    TCutMP2Pairs       =        1.000e-06
    TCutMKN            =        1.000e-02
    TCutDO             =        1.000e-02

Pair selection                          .... not used
Type of local MP2 treatment                 .... semi-local MP2
Strategy for PNO selection                  .... occupation number selection
Pair density normalization                  .... MP2 norm
Spin component scaling                      .... not used

   .... Finished loop over pairs
Making pair pair interaction lists          ... done

                       ===========================
                        300 OF  300 PAIRS ARE KEPT CCSD PAIRS
                          0 OF  300 PAIRS ARE KEPT MP2 PAIRS FOR (T)
                          0 OF  300 PAIRS ARE SKIPPED
                       ===========================

Total time spent in the initial guess                 ...     1.307 sec
SL-MP2 correlation energy (all non-screened pairs)    ...      -1.115826185431 Eh

Initial PNO correlation energy                        ...      -1.115157026335 Eh
sum of pair energies prescreened and skipped MP2 pairs...       0.000000000000 Eh
sum of pair energies of crude MP2 skipped pairs only  ...       0.000000000000 Eh
sum of MP2 pair energies for pairs that were not kept ...       0.000000000000 Eh
sum of PNO error estimates for the kept pairs         ...      -0.000669159095 Eh
                                                          --------------------
sum of all corrections                                         -0.000669159095
Initial total correlation energy                               -1.115826185431
Thresholds for map construction and integral transformation for fine MP2 and CCSD(T) calculation:
   TCutMKN   ...     1.0e-03
   TCutDO    ...     5.0e-03
   TCutPairs ...     1.0e-05
   TCutCMO   ...     1.0e-03
   TCutCPAO  ...     1.0e-03

Thresholds for map construction and integral transformation for strong Triples:
   TCutMKN   ...     1.0e-02
   TCutDO    ...     1.0e-02
   TCutCMO   ...     1.0e-03
   TCutCPAO  ...     1.0e-03

Thresholds for map construction and integral transformation for weak Triples:
   TCutMKN   ...     1.0e-01
   TCutDO    ...     2.0e-02
   TCutCMO   ...     1.0e-03
   TCutCPAO  ...     1.0e-03

--------------------------------
LOCAL RI TRANSFORMATION (IAVPAO)
--------------------------------

Orbital window:       8 to 31
Number of PAOs:     192
Basis functions:    192 (96 shells)
Aux. functions:     672 (240 shells)

Processing maps (0.0 sec)
Average map sizes:
   Aux shells -> MOs              24.0
   Aux shells -> PAOs            192.0
   MOs        -> AO shells        92.2
   PAOs       -> AO shells        95.7

Calculating integrals (0.6 sec, 23.633 MB)
Sorting integrals (0.0 sec, 23.625 MB)
Total time for the integral transformation: 0.6 sec
--------------------------------
INITIAL GUESS AND PNO GENERATION
--------------------------------

PNO truncation parameters                   .... 
    ScaleTCutPNO       =        1.000e-02
    PAOOverlapThresh   =        1.000e-08

    TCutPairs          =        1.000e-05
    TCutPNO            =        1.000e-07
    TCutPNOSingles     =        3.000e-09
    TCutMP2Pairs       =        1.000e-06
    TCutMKN            =        1.000e-03
    TCutDO             =        5.000e-03

Pair selection                          .... not used
Type of local MP2 treatment                 .... full local PMP2
Strategy for PNO selection                  .... occupation number selection
Pair density normalization                  .... MP2 norm
Spin component scaling                      .... not used

PASS-1: Formation of initial guess LMP2 amplitudes
Initial amplitudes guess done. Entering LMP2 iteration loop:
   Max. no of iterations          ...  50
   Energy convergence tolerance   ...    1.0e-07
   Residual convergence tolerance ...    5.0e-07
   Fock matrix cutoff             ...    1.0e-05 Eh
   DIIS convergence acceleration parameters:
        Max # vectors in DIIS     ... 7
        Start iteration of DIIS   ... 0
        Levelshift                ... 2.000e-01
        Damping factor 1          ... 5.000e-01
        Damping factor 2          ... 1.000e+00
   L-MP2 PNO cut-off              ...   1.0e-09
   L-MP2 PNO cut-off (core)       ...   1.0e-11
                           *** Turning on DIIS ***
LMP2-Iter=   0:  ELMP2= -1.138555238089  DE=   2.2e-02 RMAX=   3.3e-03
LMP2-Iter=   1:  ELMP2= -1.149647756287  DE=   1.1e-02 RMAX=   1.5e-03
LMP2-Iter=   2:  ELMP2= -1.151265236672  DE=   1.6e-03 RMAX=   1.6e-04
LMP2-Iter=   3:  ELMP2= -1.151379904034  DE=   1.1e-04 RMAX=   5.1e-05
LMP2-Iter=   4:  ELMP2= -1.151381679476  DE=   1.8e-06 RMAX=   6.4e-06
LMP2-Iter=   5:  ELMP2= -1.151380592041  DE=   1.1e-06 RMAX=   1.8e-06
LMP2-Iter=   6:  ELMP2= -1.151380512555  DE=   7.9e-08 RMAX=   2.0e-07
LMP2-Iter=   7:  ELMP2= -1.151380509026  DE=   3.5e-09 RMAX=   6.0e-08 => CONVERGED
PASS-2: Formation of Pair natural orbitals
   .... Finished loop over pairs

 PNO Occupation Number Statistics: 
  | Av. % of trace(Dij) retained        ...  99.542358004458
  | sigma^2 in % of trace(Dij) retained ...   3.13e-01
  | Av. % of trace(Di) retained         ...  99.999849482342
  | sigma^2 in % of trace(Di) retained  ...   2.03e-09
 Distributions of % trace(Dij) recovered:
  |       >= 99.9  ...   116 ( 38.7 % of all pairs)
  |   [90.0, 99.0) ...    48 ( 16.0 % of all pairs)
  |   [99.0, 99.9) ...   136 ( 45.3 % of all pairs)
 Distributions of % trace(Di) recovered :
  |       >= 99.9  ...    24 (100.0 % of all I-pairs )

Making pair pair interaction lists          ... done

                       ===========================
                        300 OF  300 PAIRS ARE KEPT
                       ===========================

Total time spent in the initial guess                 ...     9.983 sec
L-MP2 correlation energy (all non-screened pairs)     ...      -1.151380509026 Eh
L-MP2 PNO error correction                            ...      -0.000012360074 Eh
                                                          --------------------
Initial total L-MP2 energy (non-screened pairs)       ...      -1.151392869100 Eh

Initial PNO correlation energy                        ...      -1.150798460289 Eh
sum of pair energies estimated for screened out pairs ...       0.000000000000 Eh
sum of MP2 pair energies for pairs that were not kept ...       0.000000000000 Eh
sum of PNO error estimates for the kept pairs         ...      -0.000594408811 Eh
                                                          --------------------
sum of all corrections                                         -0.000594408811
Initial total correlation energy                               -1.151392869100
Thresholds for map construction and integral transformation for fine MP2 and CCSD(T) calculation:
   TCutMKN   ...     1.0e-03
   TCutDO    ...     5.0e-03
   TCutPairs ...     1.0e-05
   TCutCMO   ...     1.0e-03
   TCutCPAO  ...     1.0e-03

Time for aux screen maps:            0.006
Time for maps after fine MP2:            0.017
-----------------------------
LOCAL RI TRANSFORMATION (IJV)
-----------------------------

Orbital window:       8 to 31
Basis functions:    192 (96 shells)
Aux. functions:     672 (240 shells)

Processing maps (0.0 sec)
Average map sizes:
   Aux shells -> MOs(i)           24.0
   Aux shells -> MOs(j)           24.0
   MOs        -> AO shells        92.2

Calculating integrals (0.5 sec, 2.961 MB)
Sorting integrals (0.0 sec, 2.953 MB)
Total time for the integral transformation: 0.5 sec
--------------------------------
LOCAL RI TRANSFORMATION (VABPAO)
--------------------------------

Number of PAOs:     192
Basis functions:    192 (96 shells)
Aux. functions:     672 (240 shells)

Processing maps (0.0 sec)
Average map sizes:
   Aux shells -> PAOs            192.0
   PAOs       -> AO shells        95.7

Calculating integrals (0.9 sec, 336.389 MB)
Finished


-------------------------------------
Pair Pair Term precalculation with     
RI-(ij|mn) and (im|jn) transformation  
ON THE FLY                             
-------------------------------------

   IBatch   1 (of   2)              ... done (   34.579 sec)
   IBatch   2 (of   2)              ... done (    6.333 sec)
Total EXT                           ...          40.913 sec

---------------------
RI-PNO TRANSFORMATION
---------------------

Total Number of PNOs                   ...  8151
Average number of PNOs per pair        ...    27
Maximal number of PNOs per pair        ...    45
   #pairs with  1 -  5 PNOs   :    0
   #pairs with  6 - 10 PNOs   :   12
   #pairs with 11 - 15 PNOs   :   41
   #pairs with 16 - 20 PNOs   :   28
   #pairs with 21 - 25 PNOs   :   58
   #pairs with 26 - 30 PNOs   :   31
   #pairs with 31 - 35 PNOs   :   57
   #pairs with 36 - 40 PNOs   :   62
   #pairs with 41 - 45 PNOs   :   11
   #pairs with 46 - 50 PNOs   :    0

Generation of (ij|ab)[P] integrals            ... on
Generation of (ia|bc)[P],(ja|bc)[P] integrals ... on
Storage of 3 and 4 external integrals         ... on
Generation of ALL (ka|bc)[P] integrals        ... on
Keep RI integrals in memory                   ... off

Ibatch:  1 (of  1)
Starting 2-4 index PNO integral generation ... done

Timings:
Total PNO integral transformation time     ...         12.118 sec
Size of the 3-external file                ...        66 MB
Size of the 4-external file                ...       300 MB
Size of the IKJL file                      ...         0 MB
Size of the all 3-external file            ...       796 MB
Size of the 1-external file                ...         4 MB

Making pair/pair overlap matrices          ... done (    2.643 sec)
Size of the pair overlap file              ... 331 MB
Redoing the guess amplitudes               ... done (    0.002 sec)

-------------------------
FINAL STARTUP INFORMATION
-------------------------

E(0)                                       ...   -312.292529405
E(L-MP2)                                   ...     -1.151392869
E(L-MP2) including corrections             ...     -1.151392869
Initial E(tot)                             ...   -313.443922274
<T|T>                                      ...      0.366562212
Number of pairs included                   ... 300
Total number of pairs                      ... 300

------------------------------------------------
                  RHF COUPLED CLUSTER ITERATIONS
------------------------------------------------

Number of PNO amplitudes to be optimized   ...       252221
Number of non-PNO amplitudes               ...      7680000
Untruncated number of regular amplitudes   ...      7680000

Iter       E(tot)           E(Corr)          Delta-E          Residual     Time
  0   -313.408561248     -1.115437434      0.035955435      0.020117818    5.90
                           *** Turning on DIIS ***
  1   -313.498559398     -1.205435584     -0.089998150      0.007581089    5.92
  2   -313.538616336     -1.245492523     -0.040056939      0.001610720    5.91
  3   -313.543687278     -1.250563464     -0.005070941      0.000545779    8.61
  4   -313.544640840     -1.251517026     -0.000953562      0.000103761    6.02
  5   -313.544784322     -1.251660508     -0.000143482      0.000023106    6.02
  6   -313.544809107     -1.251685294     -0.000024785      0.000005591    6.01
               --- The Coupled-Cluster iterations have converged ---

----------------------
COUPLED CLUSTER ENERGY
----------------------

E(0)                                       ...   -312.292529405
E(CORR)(strong-pairs)                      ...     -1.251685294
E(CORR)(weak-pairs)                        ...     -0.000594409
E(CORR)(corrected)                         ...     -1.252279702
E(TOT)                                     ...   -313.544809107
Singles Norm <S|S>**1/2                    ...      0.048658935  
T1 diagnostic                              ...      0.007023312  

------------------
LARGEST AMPLITUDES
------------------
  31-> 41  31-> 41       0.042991
  28-> 41  28-> 41       0.042991
  29-> 41  29-> 41       0.042268
  26-> 41  26-> 41       0.042268
  19-> 41  19-> 41       0.041793
  18-> 41  18-> 41       0.041791
  16-> 41  16-> 41       0.040599
  22-> 41  22-> 41       0.040599
  24-> 41  24-> 41       0.040329
  20-> 41  20-> 41       0.040329
  23-> 41  23-> 41       0.040011
  17-> 41  17-> 41       0.040011
  30-> 41  30-> 41       0.038703
  27-> 41  27-> 41       0.038700
  22-> 32  22-> 32       0.038143
  16-> 32  16-> 32       0.038142


-------------------------------------------
DLPNO BASED TRIPLES CORRECTION
-------------------------------------------

Singles multiplier          ...  1.000000
TCutTNO                     ... 1.000e-09
TCutMP2Pairs                ... 1.000e-06
TCutDOStrong                ... 1.000e-02
TCutMKNStrong               ... 1.000e-02
TCutDOWeak                  ... 2.000e-02
TCutMKNWeak                 ... 1.000e-01

Fragment selection                          .... not used
Number of Triples that are to be computed   ...      2576

 . . . . . . . . .
10% done  
20% done  
30% done  
40% done  
50% done  
60% done  
70% done  
80% done  
90% done               (    114.927 sec)
Triples timings:
Total time for T0               ...   123.573 sec
Total time for Iterative (T)    ...     0.000 sec
Total time of overall (T)       ...   123.575 sec

Triples List generation         ...     0.000 sec
TNO generation                  ...     8.641 sec
Pair density generation         ...     0.003 sec
Look up tables                  ...     0.000 sec
Generating 3-index integrals    ...    67.002 sec
  Make 4-ind.int. from 3-ind.int...    16.813 sec
  Projecting amplitudes (D + S) ...    13.433 sec
  Downprojecting integrals      ...     0.004 sec
  Energy contr. (sum over a,b,c)...     5.103 sec
Fitting ET(->0)                 ...     0.000 sec

Everything after 3-index        ...    47.924 sec

Timing details:
 TNO integrals                  ...    81.748 sec
   Reading 3-index integrals    ...     0.065 sec
   Sorting integrals            ...    12.448 sec
       Sorting integrals 1      ...     0.003 sec
       Sorting integrals 2      ...     5.402 sec
       Sorting integrals 3      ...     0.530 sec
       Sorting integrals 4      ...     0.073 sec
       Sorting integrals 5      ...     0.193 sec
       Sorting integrals 6      ...     6.247 sec
   Calculating local VM**-1/2   ...     0.694 sec
   Orthogonal. integrals        ...     1.101 sec
   Multipl. 3-index integrals   ...    67.439 sec
   All concerning IRIab (w/TNO) ...     8.112 sec

 Calculate W0/W1                ...    12.553 sec
 W 3-ext contribution           ...     6.713 sec
 W 3-int contribution           ...     2.520 sec
 Sorting W                      ...     3.068 sec

 V exchange contribution        ...     1.966 sec

 Timings for Triples without generation
     of 3-index integrals       ...    47.917 sec
       0 weak pairs             ...    47.917 sec
       1 weak pair              ...     0.000 sec
       2 weak pairs             ...     0.000 sec
       3 weak pairs             ...     0.000 sec
  Extra time for extrapolation  ...     0.000 sec

Number of Triples   (0, 1, 2, 3 weak pairs; overall):   2576       0       0       0  (  2576)
Number of Atoms     (0, 1, 2, 3 weak pairs; overall):   22.2     0.0     0.0     0.0  (    24)
Number of PAOs      (0, 1, 2, 3 weak pairs; overall):  181.3     0.0     0.0     0.0  (   192)
Number of AuxFcns   (0, 1, 2, 3 weak pairs; overall):  286.3     0.0     0.0     0.0  (   672)
Number of TNOs      (0, 1, 2, 3 weak pairs         ):   65.9     0.0     0.0     0.0
Aver. Number of NTNO, Atoms, PAOs, AuxFcns / Triples:   2576    65.9    22.2   181.3   286.3

Triples Correction (T)                     ...     -0.038784619
Final correlation energy                   ...     -1.291064322
E(CCSD)                                    ...   -313.544809107
E(CCSD(T))                                 ...   -313.583593727


Maximum memory used throughout the entire calculation: 7980.4 MB


------------------------------------------------------------------------------- 
                                     TIMINGS                                   
------------------------------------------------------------------------------- 


Total execution time                   ...      245.535 sec

Localization of occupied MO's          ...        0.461 sec (  0.2%)
Fock Matrix Formation                  ...        2.207 sec (  0.9%)
Global overlap, Fock, MKN matrices     ...        0.148 sec (  0.1%)
Differential overlap integrals         ...        0.192 sec (  0.1%)
Organizing maps                        ...        0.050 sec (  0.0%)
RI 3-index integral generations        ...        2.586 sec (  1.1%)
RI-PNO integral transformation         ...       60.132 sec ( 24.5%)
Initial Guess                          ...       11.311 sec (  4.6%)
DIIS Solver                            ...        0.704 sec (  0.3%)
State Vector Update                    ...        0.013 sec (  0.0%)
Sigma-vector construction              ...       44.273 sec ( 18.0%)
  <D|H|D>(0-ext)                       ...        3.337 sec (  7.5% of sigma)
  <D|H|D>(2-ext Fock)                  ...        0.013 sec (  0.0% of sigma)
  <D|H|D>(2-ext)                       ...        8.280 sec ( 18.7% of sigma)
  <D|H|D>(4-ext)                       ...        2.503 sec (  5.7% of sigma)
  <D|H|D>(4-ext-corr)                  ...       13.975 sec ( 31.6% of sigma)
  CCSD doubles correction              ...        0.243 sec (  0.5% of sigma)
  <S|H|S>                              ...        0.381 sec (  0.9% of sigma)
  <S|H|D>(1-ext)                       ...        0.371 sec (  0.8% of sigma)
  <D|H|S>(1-ext)                       ...        0.014 sec (  0.0% of sigma)
  <S|H|D>(3-ext)                       ...        0.183 sec (  0.4% of sigma)
  Fock-dressing                        ...       10.241 sec ( 23.1% of sigma)
  Singles amplitudes                   ...        0.285 sec (  0.6% of sigma)
  (ik|jl)-dressing                     ...        2.411 sec (  5.4% of sigma)
  (ij|ab),(ia|jb)-dressing             ...        1.959 sec (  4.4% of sigma)
  Pair energies                        ...        0.005 sec (  0.0% of sigma)
Total Time for computing (T)           ...      123.693 sec ( 50.4% of ALL)


-------------------------   --------------------
FINAL SINGLE POINT ENERGY      -313.583593726692
-------------------------   --------------------


                            ***************************************
                            *     ORCA property calculations      *
                            ***************************************

                                    ---------------------
                                    Active property flags
                                    ---------------------
   (+) Dipole Moment


------------------------------------------------------------------------------
                       ORCA ELECTRIC PROPERTIES CALCULATION
------------------------------------------------------------------------------

Dipole Moment Calculation                       ... on
Quadrupole Moment Calculation                   ... off
Polarizability Calculation                      ... off
GBWName                                         ... trans1_2dimethylcycloh_ax_ax.gbw
Electron density file                           ... trans1_2dimethylcycloh_ax_ax.scfp.tmp
The origin for moment calculation is the CENTER OF MASS  = ( 0.000006,  0.008790  0.000003)

-------------
DIPOLE MOMENT
-------------
                                X             Y             Z
Electronic contribution:      0.00027       0.55109       0.00010
Nuclear contribution   :     -0.00027      -0.56262      -0.00010
                        -----------------------------------------
Total Dipole Moment    :      0.00000      -0.01153      -0.00000
                        -----------------------------------------
Magnitude (a.u.)       :      0.01153
Magnitude (Debye)      :      0.02932



--------------------
Rotational spectrum 
--------------------
 
Rotational constants in cm-1:     0.072239     0.070084     0.050999 
Rotational constants in MHz :  2165.682481  2101.050863  1528.900332 

 Dipole components along the rotational axes: 
x,y,z [a.u.] :    -0.000002    -0.011533    -0.000004 
x,y,z [Debye]:    -0.000005    -0.029316    -0.000010 

 

Timings for individual modules:

Sum of individual times         ...      253.457 sec (=   4.224 min)
GTO integral calculation        ...        0.580 sec (=   0.010 min)   0.2 %
SCF iterations                  ...        7.146 sec (=   0.119 min)   2.8 %
MDCI module                     ...      245.731 sec (=   4.096 min)  97.0 %
                             ****ORCA TERMINATED NORMALLY****
TOTAL RUN TIME: 0 days 0 hours 4 minutes 13 seconds 708 msec
trans1_2dimethylcycloh_ax_ax.gbw -> /home1/pantazis/klk/VDZ/Cyclohexanes/trans1_2dimethylcycloh_ax_ax.gbw
trans1_2dimethylcycloh_ax_ax.ges -> /home1/pantazis/klk/VDZ/Cyclohexanes/trans1_2dimethylcycloh_ax_ax.ges
trans1_2dimethylcycloh_ax_ax.job -> /home1/pantazis/klk/VDZ/Cyclohexanes/trans1_2dimethylcycloh_ax_ax.job
trans1_2dimethylcycloh_ax_ax.loc -> /home1/pantazis/klk/VDZ/Cyclohexanes/trans1_2dimethylcycloh_ax_ax.loc
trans1_2dimethylcycloh_ax_ax.nodes -> /home1/pantazis/klk/VDZ/Cyclohexanes/trans1_2dimethylcycloh_ax_ax.nodes
trans1_2dimethylcycloh_ax_ax.prop -> /home1/pantazis/klk/VDZ/Cyclohexanes/trans1_2dimethylcycloh_ax_ax.prop
trans1_2dimethylcycloh_ax_ax_property.txt -> /home1/pantazis/klk/VDZ/Cyclohexanes/trans1_2dimethylcycloh_ax_ax_property.txt
trans1_2dimethylcycloh_ax_ax.xyz -> /home1/pantazis/klk/VDZ/Cyclohexanes/trans1_2dimethylcycloh_ax_ax.xyz
cp: cannot stat trans1_2dimethylcycloh_ax_ax.asa.inp: No such file or directory
