 Entering Link 1 = C:\G03W\l1.exe PID=      2872.
  
 Copyright (c) 1988,1990,1992,1993,1995,1998,2003,2004, Gaussian, Inc.
                  All Rights Reserved.
  
 This is the Gaussian(R) 03 program.  It is based on the
 the Gaussian(R) 98 system (copyright 1998, Gaussian, Inc.),
 the Gaussian(R) 94 system (copyright 1995, Gaussian, Inc.),
 the Gaussian 92(TM) system (copyright 1992, Gaussian, Inc.),
 the Gaussian 90(TM) system (copyright 1990, Gaussian, Inc.),
 the Gaussian 88(TM) system (copyright 1988, Gaussian, Inc.),
 the Gaussian 86(TM) system (copyright 1986, Carnegie Mellon
 University), and the Gaussian 82(TM) system (copyright 1983,
 Carnegie Mellon University). Gaussian is a federally registered
 trademark of Gaussian, Inc.
  
 This software contains proprietary and confidential information,
 including trade secrets, belonging to Gaussian, Inc.
  
 This software is provided under written license and may be
 used, copied, transmitted, or stored only in accord with that
 written license.
  
 The following legend is applicable only to US Government
 contracts under FAR:
  
                    RESTRICTED RIGHTS LEGEND
  
 Use, reproduction and disclosure by the US Government is
 subject to restrictions as set forth in subparagraphs (a)
 and (c) of the Commercial Computer Software - Restricted
 Rights clause in FAR 52.227-19.
  
 Gaussian, Inc.
 340 Quinnipiac St., Bldg. 40, Wallingford CT 06492
  
  
 ---------------------------------------------------------------
 Warning -- This program may not be used in any manner that
 competes with the business of Gaussian, Inc. or will provide
 assistance to any competitor of Gaussian, Inc.  The licensee
 of this program is prohibited from giving any competitor of
 Gaussian, Inc. access to this program.  By using this program,
 the user acknowledges that Gaussian, Inc. is engaged in the
 business of creating and licensing software in the field of
 computational chemistry and represents and warrants to the
 licensee that it is not a competitor of Gaussian, Inc. and that
 it will not use this program in any manner prohibited above.
 ---------------------------------------------------------------
  

 Cite this work as:
 Gaussian 03, Revision D.01,
 M. J. Frisch, G. W. Trucks, H. B. Schlegel, G. E. Scuseria, 
 M. A. Robb, J. R. Cheeseman, J. A. Montgomery, Jr., T. Vreven, 
 K. N. Kudin, J. C. Burant, J. M. Millam, S. S. Iyengar, J. Tomasi, 
 V. Barone, B. Mennucci, M. Cossi, G. Scalmani, N. Rega, 
 G. A. Petersson, H. Nakatsuji, M. Hada, M. Ehara, K. Toyota, 
 R. Fukuda, J. Hasegawa, M. Ishida, T. Nakajima, Y. Honda, O. Kitao, 
 H. Nakai, M. Klene, X. Li, J. E. Knox, H. P. Hratchian, J. B. Cross, 
 V. Bakken, C. Adamo, J. Jaramillo, R. Gomperts, R. E. Stratmann, 
 O. Yazyev, A. J. Austin, R. Cammi, C. Pomelli, J. W. Ochterski, 
 P. Y. Ayala, K. Morokuma, G. A. Voth, P. Salvador, J. J. Dannenberg, 
 V. G. Zakrzewski, S. Dapprich, A. D. Daniels, M. C. Strain, 
 O. Farkas, D. K. Malick, A. D. Rabuck, K. Raghavachari, 
 J. B. Foresman, J. V. Ortiz, Q. Cui, A. G. Baboul, S. Clifford, 
 J. Cioslowski, B. B. Stefanov, G. Liu, A. Liashenko, P. Piskorz, 
 I. Komaromi, R. L. Martin, D. J. Fox, T. Keith, M. A. Al-Laham, 
 C. Y. Peng, A. Nanayakkara, M. Challacombe, P. M. W. Gill, 
 B. Johnson, W. Chen, M. W. Wong, C. Gonzalez, and J. A. Pople, 
 Gaussian, Inc., Wallingford CT, 2004.
 
 ******************************************
 Gaussian 03:  IA32W-G03RevD.01 13-Oct-2005
                13-Dec-2007 
 ******************************************
 --------------
 # opt dreiding
 --------------
 1/6=10,10=10,14=-1,18=4000020,38=1,56=1,64=1/1,3;
 2/9=110,17=6,18=5,40=1/2;
 3/5=30,11=9,16=1,25=1,30=1/1;
 4/20=9,22=1001,24=3/2;
 7/44=-1/16;
 1/6=10,10=10,14=-1,18=4000020,64=1/3(2);
 2/9=110/2;
 99//99;
 2/9=110/2;
 3/5=30,11=9,16=1,25=1,30=1/1;
 4/16=2,20=9,22=1001,24=3/2;
 7/44=-1/16;
 1/6=10,10=10,14=-1,18=4000020,64=1/3(-4);
 2/9=110/2;
 99//99;
 -----------------------
 2-(1-Ad)-N-Me-pip-trans
 -----------------------
 Symbolic Z-matrix:
 Charge =  0 Multiplicity = 1
 C                    -2.46378   0.63751  -1.25095 
 C                    -2.22278   2.14951  -1.34595 
 C                    -0.70978   2.38751  -1.43095 
 C                    -1.76678   0.09051   0.00505 
 C                    -0.01378   1.79051  -0.19495 
 C                    -0.22378   0.25351  -0.05995 
 C                    -1.90178  -0.06549  -2.49795 
 C                     0.32622  -0.36149  -1.36795 
 C                    -0.39278   0.20651  -2.60495 
 C                    -0.15078   1.72051  -2.69795 
 C                     0.48522  -0.34649   1.21705 
 C                     1.80822   0.40351   1.52205 
 C                     2.53422  -0.08349   2.77905 
 C                     2.77522  -1.58249   2.64205 
 N                     0.73522  -1.80349   1.20505 
 C                     1.42522  -2.26549   2.41105 
 H                    -3.56478   0.44951  -1.18395 
 H                    -2.64678   2.66851  -0.45395 
 H                    -2.73578   2.57251  -2.24195 
 H                    -0.51578   3.48851  -1.47895 
 H                    -2.08778  -0.96449   0.10905 
 H                    -2.16578   0.60851   0.90905 
 H                    -0.38078   2.31051   0.72205 
 H                     1.06522   2.04051  -0.31295 
 H                    -2.42378   0.30251  -3.41195 
 H                    -2.09178  -1.16449  -2.43795 
 H                     0.21322  -1.46649  -1.38495 
 H                     1.42122  -0.16849  -1.44895 
 H                     0.00822  -0.28549  -3.52595 
 H                    -0.64578   2.13851  -3.60695 
 H                     0.94022   1.93151  -2.79995 
 H                    -0.18178  -0.12349   2.08405 
 H                     1.62722   1.48851   1.70405 
 H                     2.49622   0.30651   0.64905 
 H                     1.91522   0.12351   3.68505 
 H                     3.50522   0.45351   2.90805 
 H                     3.26422  -1.98049   3.56405 
 H                     3.45922  -1.78849   1.78405 
 H                     1.63422  -3.35949   2.33605 
 H                     0.77322  -2.11549   3.30605 
 C                    -0.45778  -2.63049   1.05505 
 H                    -0.87278  -2.58649   0.02805 
 H                    -0.22078  -3.71249   1.17705 
 H                    -1.23778  -2.36749   1.80805 
 
 Include all MM classes
 MMInit generated parameter data with length LenPar=  5726.

 GradGradGradGradGradGradGradGradGradGradGradGradGradGradGradGradGradGrad
 Berny optimization.
 Initialization pass.
 No Z-matrix variables, so optimization will use Cartesian coordinates.
 Trust Radius=1.00D-01 FncErr=1.00D-07 GrdErr=1.00D-07
 Number of steps in this run=   2 maximum allowed number of steps=   2.
 GradGradGradGradGradGradGradGradGradGradGradGradGradGradGradGradGradGrad

                          Input orientation:                          
 ---------------------------------------------------------------------
 Center     Atomic     Atomic              Coordinates (Angstroms)
 Number     Number      Type              X           Y           Z
 ---------------------------------------------------------------------
    1          6      10061003       -2.463785    0.637508   -1.250946
    2          6      10061003       -2.222785    2.149508   -1.345946
    3          6      10061003       -0.709785    2.387508   -1.430946
    4          6      10061003       -1.766785    0.090508    0.005054
    5          6      10061003       -0.013785    1.790508   -0.194946
    6          6      10061003       -0.223785    0.253508   -0.059946
    7          6      10061003       -1.901785   -0.065492   -2.497946
    8          6      10061003        0.326215   -0.361492   -1.367946
    9          6      10061003       -0.392785    0.206508   -2.604946
   10          6      10061003       -0.150785    1.720508   -2.697946
   11          6      10061003        0.485215   -0.346492    1.217054
   12          6      10061003        1.808215    0.403508    1.522054
   13          6      10061003        2.534215   -0.083492    2.779054
   14          6      10061003        2.775215   -1.582492    2.642054
   15          7      10071003        0.735215   -1.803492    1.205054
   16          6      10061003        1.425215   -2.265492    2.411054
   17          1      10011000       -3.564785    0.449508   -1.183946
   18          1      10011000       -2.646785    2.668508   -0.453946
   19          1      10011000       -2.735785    2.572508   -2.241946
   20          1      10011000       -0.515785    3.488508   -1.478946
   21          1      10011000       -2.087785   -0.964492    0.109054
   22          1      10011000       -2.165785    0.608508    0.909054
   23          1      10011000       -0.380785    2.310508    0.722054
   24          1      10011000        1.065215    2.040508   -0.312946
   25          1      10011000       -2.423785    0.302508   -3.411946
   26          1      10011000       -2.091785   -1.164492   -2.437946
   27          1      10011000        0.213215   -1.466492   -1.384946
   28          1      10011000        1.421215   -0.168492   -1.448946
   29          1      10011000        0.008215   -0.285492   -3.525946
   30          1      10011000       -0.645785    2.138508   -3.606946
   31          1      10011000        0.940215    1.931508   -2.799946
   32          1      10011000       -0.181785   -0.123492    2.084054
   33          1      10011000        1.627215    1.488508    1.704054
   34          1      10011000        2.496215    0.306508    0.649054
   35          1      10011000        1.915215    0.123508    3.685054
   36          1      10011000        3.505215    0.453508    2.908054
   37          1      10011000        3.264215   -1.980492    3.564054
   38          1      10011000        3.459215   -1.788492    1.784054
   39          1      10011000        1.634215   -3.359492    2.336054
   40          1      10011000        0.773215   -2.115492    3.306054
   41          6      10061003       -0.457785   -2.630492    1.055054
   42          1      10011000       -0.872785   -2.586492    0.028054
   43          1      10011000       -0.220785   -3.712492    1.177054
   44          1      10011000       -1.237785   -2.367492    1.808054
 ---------------------------------------------------------------------
                    Distance matrix (angstroms):
                    1          2          3          4          5
     1  C    0.000000
     2  C    1.534031   0.000000
     3  C    2.484233   1.533962   0.000000
     4  C    1.537060   2.504520   2.907844   0.000000
     5  C    2.906380   2.516617   1.539000   2.450104   0.000000
     6  C    2.565840   3.040496   2.582594   1.552947   1.557143
     7  C    1.537876   2.517215   2.928577   2.511488   3.509001
     8  C    2.965770   3.578129   2.938412   2.543636   2.474395
     9  C    2.511597   2.951140   2.497104   2.951852   2.908745
    10  C    2.935416   2.511002   1.537094   3.546063   2.507724
    11  C    3.969368   4.486897   3.989321   2.594497   2.609505
    12  C    5.098458   5.246227   4.358531   3.896137   2.862087
    13  C    6.460708   6.680641   5.861184   5.120933   4.341527
    14  C    6.894271   7.403511   6.670491   5.512029   5.215766
    15  N    4.714236   5.557299   5.157616   3.359649   3.929101
    16  C    6.079636   6.849466   6.400750   4.639875   5.031212
    17  H    1.118943   2.171913   3.459462   2.185270   3.922500
    18  H    2.189443   1.115707   2.187569   2.762456   2.787589
    19  H    2.190956   1.115757   2.190119   3.485440   3.494427
    20  H    3.460475   2.173582   1.118991   3.913267   2.187205
    21  H    2.134802   3.439803   3.937815   1.107647   3.461779
    22  H    2.180652   2.731841   3.280301   1.115680   2.692033
    23  H    3.321227   2.774078   2.179353   2.713574   1.116234
    24  H    3.911789   3.448175   2.126254   3.453093   1.113851
    25  H    2.187178   2.778519   3.348042   3.486041   4.286179
    26  H    2.189648   3.491736   3.942167   2.765664   4.252194
    27  H    3.407507   4.360169   3.963251   2.876934   3.475008
    28  H    3.972665   4.320008   3.327855   3.513480   2.733024
    29  H    3.484012   3.957144   3.471236   3.969882   3.925025
    30  H    3.332996   2.756659   2.191135   4.300871   3.487445
    31  H    3.957405   3.488009   2.191939   4.311050   2.777773
    32  H    4.112040   4.593159   4.351911   2.623025   2.980849
    33  H    5.117862   4.955998   4.012231   4.044779   2.527902
    34  H    5.321763   5.444781   4.351482   4.316777   3.035571
    35  H    6.618454   6.821926   6.179788   5.205825   4.642664
    36  H    7.277369   7.333684   6.350866   6.029358   4.878477
    37  H    7.927681   8.442285   7.734476   6.501268   6.252664
    38  H    7.083688   7.588799   6.719804   5.831514   5.365390
    39  H    6.755456   7.666985   7.260347   5.376138   5.970290
    40  H    6.230845   6.986225   6.701900   4.713241   5.304074
    41  C    4.474539   5.632799   5.605714   3.196846   4.615721
    42  H    3.815927   5.112736   5.186128   2.822427   4.466065
    43  H    5.463399   6.688541   6.652126   4.269252   5.675231
    44  H    4.459886   5.596537   5.777537   3.093932   4.774845
                    6          7          8          9         10
     6  C    0.000000
     7  C    2.976792   0.000000
     8  C    1.546476   2.515651   0.000000
     9  C    2.551038   1.537047   1.539401   0.000000
    10  C    3.019348   2.509143   2.516178   1.536037   0.000000
    11  C    1.579054   4.424698   2.589929   3.960351   4.472607
    12  C    2.579583   5.490397   3.336712   4.681382   4.835346
    13  C    3.972412   6.893849   4.706395   6.135054   6.360910
    14  C    4.434603   7.113032   4.854744   6.384963   6.927257
    15  N    2.598298   4.866890   2.977746   4.452930   5.332634
    16  C    3.894920   6.325125   4.371940   5.880150   6.668872
    17  H    3.530449   2.181144   3.978876   3.484232   3.945001
    18  H    3.443601   3.493954   4.342237   3.970990   3.487729
    19  H    4.055740   2.778513   4.329905   3.349533   2.759722
    20  H    3.544580   3.948452   3.942561   3.471963   2.178304
    21  H    2.233065   2.763919   2.893533   3.407354   4.340558
    22  H    2.199170   3.483048   3.512221   3.956429   4.278693
    23  H    2.206223   4.281030   3.465189   3.936482   3.478132
    24  H    2.217859   4.244119   2.725573   3.277588   2.696160
    25  H    4.009776   1.115035   3.490176   2.187562   2.772553
    26  H    3.339915   1.116916   2.763410   2.189550   3.486876
    27  H    2.214722   2.770342   1.110893   2.157444   3.466040
    28  H    2.193953   3.486164   1.114825   2.183474   2.756720
    29  H    3.515324   2.180203   2.182628   1.118528   2.175983
    30  H    4.038876   2.768580   3.493981   2.191036   1.116257
    31  H    3.417335   3.486571   2.772268   2.188730   1.115888
    32  H    2.177299   4.894537   3.497286   4.705331   5.125312
    33  H    2.839564   5.703119   3.814746   4.928631   4.753179
    34  H    2.811386   5.420738   3.037007   4.352567   4.495377
    35  H    4.314771   7.268748   5.319112   6.700586   6.896481
    36  H    4.770164   7.663540   5.390217   6.756373   6.811671
    37  H    5.503660   8.191619   5.964699   7.497545   8.035687
    38  H    4.597237   7.074219   4.667668   6.171001   6.740438
    39  H    4.716646   6.835297   4.941506   6.421726   7.371145
    40  H    4.235106   6.711523   5.012245   6.456869   7.184475
    41  C    3.100877   4.613910   3.410857   4.631241   5.754169
    42  H    2.914540   3.714156   2.887394   3.868325   5.148068
    43  H    4.154435   5.443528   4.243281   5.449006   6.673681
    44  H    3.374502   4.927650   4.069043   5.178230   6.180400
                   11         12         13         14         15
    11  C    0.000000
    12  C    1.551082   0.000000
    13  C    2.589868   1.531109   0.000000
    14  C    2.966887   2.476628   1.524418   0.000000
    15  N    1.478341   2.474402   2.944873   2.505077   0.000000
    16  C    2.447815   2.839114   2.475162   1.530474   1.464234
    17  H    4.775031   6.016118   7.292960   7.678730   5.410483
    18  H    4.657455   5.374181   6.698399   7.553430   5.847135
    19  H    5.555185   6.286509   7.748398   8.455093   6.563461
    20  H    4.793500   4.891237   6.339736   7.316308   6.064167
    21  H    2.868783   4.364265   5.409986   5.517860   3.142366
    22  H    2.834553   4.026223   5.105464   5.676024   3.784331
    23  H    2.838068   3.011373   4.296476   5.366767   4.289958
    24  H    2.893971   2.568860   4.028623   4.978178   4.146029
    25  H    5.505554   6.501106   7.940985   8.199618   5.977559
    26  H    4.546326   5.774965   7.055886   7.047610   4.655287
    27  H    2.845837   3.806780   4.963731   4.774309   2.663485
    28  H    2.831137   3.050212   4.372868   4.535305   3.191792
    29  H    4.767316   5.403427   6.795182   6.883511   5.021475
    30  H    5.543046   5.944660   7.471993   8.037355   6.371960
    31  H    4.640323   4.665607   6.142174   6.732814   5.480171
    32  H    1.116381   2.133934   2.803798   3.344233   2.106165
    33  H    2.215527   1.114948   2.109374   3.410101   3.447017
    34  H    2.189327   1.115743   2.165743   2.760111   2.803989
    35  H    2.890817   2.183671   1.116623   2.176668   3.355015
    36  H    3.552447   2.191644   1.117073   2.179209   3.958176
    37  H    3.987632   3.460225   2.178930   1.116964   3.462954
    38  H    3.353435   2.756684   2.180063   1.116448   2.784895
    39  H    3.413287   3.853964   3.426138   2.133834   2.123322
    40  H    2.752495   3.255648   2.740050   2.175543   2.124380
    41  C    2.476318   3.815495   4.290856   3.750888   1.459342
    42  H    2.876714   4.284845   5.043873   4.598795   2.141047
    43  H    3.439476   4.601882   4.829707   3.957163   2.135182
    44  H    2.720745   4.127754   4.515250   4.173242   2.138793
                   16         17         18         19         20
    16  C    0.000000
    17  H    6.722749   0.000000
    18  H    7.009548   2.509897   0.000000
    19  H    7.897504   2.512714   1.792786   0.000000
    20  H    7.211664   4.314968   2.502836   2.519846   0.000000
    21  H    4.396928   2.419251   3.718621   4.296216   4.982182
    22  H    4.838508   2.522525   2.516492   3.756461   4.088942
    23  H    5.201359   4.151387   2.577964   3.794729   2.500062
    24  H    5.107975   4.972607   3.767388   4.295540   2.440455
    25  H    7.437523   2.507484   3.794397   2.572770   4.186592
    26  H    6.090508   2.519373   4.351571   3.797146   5.005384
    27  H    4.064106   4.240842   5.113178   5.073911   5.009222
    28  H    4.392838   5.031138   5.058381   5.042081   4.138420
    29  H    6.416873   4.334918   5.021188   4.164896   4.325258
    30  H    7.739547   4.152615   3.771778   2.533709   2.523447
    31  H    6.708543   5.010270   4.348960   3.772959   2.507833
    32  H    2.697692   4.738443   4.506987   5.701369   5.084591
    33  H    3.825333   6.031329   4.931170   5.981784   4.327117
    34  H    3.296493   6.333724   5.765943   6.392688   4.870898
    35  H    2.751454   7.337836   6.664847   7.922041   6.625699
    36  H    3.459244   8.168805   7.352304   8.364373   6.680227
    37  H    2.189190   8.665082   8.526280   9.509966   8.344472
    38  H    2.181241   7.946964   7.883954   8.579337   7.368482
    39  H    1.116307   7.343601   7.902395   8.674307   8.128458
    40  H    1.117421   6.749635   6.980018   8.066643   7.480813
    41  C    2.348968   4.914567   5.928592   6.567397   6.623193
    42  H    3.326039   4.234750   5.567264   5.936240   6.269300
    43  H    2.515130   5.837714   7.018746   7.583931   7.680870
    44  H    2.732322   4.722550   5.697650   6.561258   6.754139
                   21         22         23         24         25
    21  H    0.000000
    22  H    1.766469   0.000000
    23  H    3.743694   2.473459   0.000000
    24  H    4.376016   3.739421   1.798622   0.000000
    25  H    3.757077   4.339498   5.029500   4.979715   0.000000
    26  H    2.554843   3.788326   4.998874   4.975369   1.791923
    27  H    2.789022   3.902269   4.365549   3.764856   3.767208
    28  H    3.920977   4.362392   3.755780   2.509365   4.342722
    29  H    4.250586   5.019436   4.993600   4.104984   2.504668
    30  H    5.051399   5.004554   4.340513   3.713161   2.563241
    31  H    5.100773   5.015401   3.780630   2.492524   3.787437
    32  H    2.870669   2.419236   2.796248   3.461721   5.950971
    33  H    4.728896   3.974075   2.381611   2.165372   6.632545
    34  H    4.787494   4.679001   3.506918   2.445396   6.379509
    35  H    5.476817   4.959432   4.339810   4.514576   8.320239
    36  H    6.413016   6.015003   4.829911   4.341314   8.667078
    37  H    6.450828   6.575473   6.306796   6.002930   9.286011
    38  H    5.852675   6.176719   5.716226   4.978944   8.122831
    39  H    4.954678   5.676386   6.230098   6.041603   7.932031
    40  H    4.441951   4.669422   5.253403   5.518583   7.822983
    41  C    2.515427   3.664656   4.952807   5.099921   5.694009
    42  H    2.028218   3.557532   4.970343   5.028047   4.752423
    43  H    3.489673   4.746145   6.042281   6.080370   6.483236
    44  H    2.361675   3.244374   4.878271   5.406747   5.981964
                   26         27         28         29         30
    26  H    0.000000
    27  H    2.552065   0.000000
    28  H    3.783029   1.774307   0.000000
    29  H    2.523170   2.453705   2.514794   0.000000
    30  H    3.790420   4.321017   3.775143   2.511982   0.000000
    31  H    4.348481   3.751954   2.542944   2.512128   1.791506
    32  H    5.017994   3.740807   3.879913   5.615554   6.141614
    33  H    6.166485   4.502593   3.567842   5.755097   5.813411
    34  H    5.722163   3.534512   2.404757   4.896043   5.598386
    35  H    7.430082   5.579409   5.165971   7.470104   7.987003
    36  H    7.907215   5.740515   4.869640   7.360128   7.906659
    37  H    8.085580   5.836557   5.640050   7.983900   9.147541
    38  H    7.002018   4.547830   4.150920   6.508803   7.831681
    39  H    6.441442   4.410049   4.955207   6.815893   8.411044
    40  H    6.488926   4.768677   5.178874   7.114095   8.240124
    41  C    4.125550   2.785451   3.982725   5.167373   6.671803
    42  H    3.096644   2.104843   3.645640   4.324544   5.965767
    43  H    4.802205   3.434635   4.706589   5.823657   7.569774
    44  H    4.495002   3.621112   4.744885   5.859931   7.069422
                   31         32         33         34         35
    31  H    0.000000
    32  H    5.416213   0.000000
    33  H    4.577579   2.452636   0.000000
    34  H    4.117932   3.068519   1.807017   0.000000
    35  H    6.802552   2.649834   2.422918   3.096505   0.000000
    36  H    6.430006   3.821763   2.459212   2.478461   1.800202
    37  H    7.823376   4.184945   4.263019   3.783836   2.502251
    38  H    6.418475   4.014861   3.755177   2.569945   3.107005
    39  H    7.406404   3.719282   4.889026   4.126569   3.745671
    40  H    7.327301   2.524554   4.035410   3.986786   2.541835
    41  C    6.134107   2.723980   4.662037   4.185322   4.486930
    42  H    5.629998   3.281918   5.066024   4.483888   5.337667
    43  H    7.001370   3.702039   5.544658   4.879881   5.056427
    44  H    6.667739   2.495365   4.804974   4.736699   4.435044
                   36         37         38         39         40
    36  H    0.000000
    37  H    2.532345   0.000000
    38  H    2.508397   1.800913   0.000000
    39  H    4.285650   2.463032   2.470500   0.000000
    40  H    3.771205   2.507961   3.104514   1.797152   0.000000
    41  C    5.352573   4.535512   4.072259   2.559075   2.616789
    42  H    6.058291   5.475884   4.742000   3.494201   3.698167
    43  H    5.851068   4.565394   4.196740   2.215607   2.840966
    44  H    5.627085   4.847815   4.732613   3.084029   2.520244
                   41         42         43         44
    41  C    0.000000
    42  H    1.108553   0.000000
    43  H    1.114350   1.735852   0.000000
    44  H    1.115607   1.830187   1.800410   0.000000
 Stoichiometry    C16H27N
 Framework group  C1[X(C16H27N)]
 Deg. of freedom   126
 Full point group                 C1
 Largest Abelian subgroup         C1      NOp   1
 Largest concise Abelian subgroup C1      NOp   1
                         Standard orientation:                         
 ---------------------------------------------------------------------
 Center     Atomic     Atomic              Coordinates (Angstroms)
 Number     Number      Type              X           Y           Z
 ---------------------------------------------------------------------
    1          6      10061003       -2.506241    0.955326   -0.920665
    2          6      10061003       -3.119904   -0.420709   -1.209102
    3          6      10061003       -2.471225   -1.440396   -0.264385
    4          6      10061003       -0.989400    0.895090   -1.161743
    5          6      10061003       -0.946852   -1.456547   -0.475449
    6          6      10061003       -0.276749   -0.080983   -0.186524
    7          6      10061003       -2.779189    1.359258    0.537896
    8          6      10061003       -0.639042    0.262938    1.277051
    9          6      10061003       -2.163567    0.315871    1.483870
   10          6      10061003       -2.776158   -1.062579    1.194015
   11          6      10061003        1.285241   -0.106059   -0.416675
   12          6      10061003        1.881041   -1.486453   -0.035375
   13          6      10061003        3.387415   -1.612468   -0.278795
   14          6      10061003        4.089526   -0.487855    0.473626
   15          7      10071003        2.062663    0.965771    0.240812
   16          6      10061003        3.502048    0.844119    0.001330
   17          1      10011000       -2.967988    1.709088   -1.606717
   18          1      10011000       -2.943727   -0.710940   -2.271895
   19          1      10011000       -4.225141   -0.396249   -1.058210
   20          1      10011000       -2.892983   -2.454764   -0.477267
   21          1      10011000       -0.616699    1.935262   -1.084170
   22          1      10011000       -0.790731    0.590703   -2.216551
   23          1      10011000       -0.722545   -1.781527   -1.519505
   24          1      10011000       -0.561083   -2.244312    0.211044
   25          1      10011000       -3.877545    1.436134    0.713989
   26          1      10011000       -2.347603    2.368521    0.744349
   27          1      10011000       -0.218225    1.242891    1.587998
   28          1      10011000       -0.192758   -0.490215    1.967288
   29          1      10011000       -2.384914    0.599375    2.542991
   30          1      10011000       -3.878734   -1.042510    1.367079
   31          1      10011000       -2.355066   -1.826270    1.890193
   32          1      10011000        1.444856   -0.014786   -1.517811
   33          1      10011000        1.428437   -2.305488   -0.641544
   34          1      10011000        1.672150   -1.693098    1.040981
   35          1      10011000        3.607900   -1.538363   -1.370922
   36          1      10011000        3.763000   -2.604560    0.071263
   37          1      10011000        5.189209   -0.522563    0.281007
   38          1      10011000        3.937903   -0.603499    1.573668
   39          1      10011000        4.050151    1.644089    0.554296
   40          1      10011000        3.722364    0.984755   -1.085091
   41          6      10061003        1.682010    2.322439   -0.138970
   42          1      10011000        0.705491    2.620912    0.292555
   43          1      10011000        2.380472    3.076562    0.291410
   44          1      10011000        1.681447    2.454503   -1.246732
 ---------------------------------------------------------------------
 Rotational constants (GHZ):      0.9936094      0.3247383      0.2929663
 Standard basis: Dummy (5D, 7F)
 There are    44 symmetry adapted basis functions of A   symmetry.
 Integral buffers will be    262144 words long.
 Raffenetti 1 integral format.
 Two-electron integral symmetry is turned on.
    44 basis functions,    44 primitive gaussians,    44 cartesian basis functions
    30 alpha electrons       30 beta electrons
       nuclear repulsion energy       279.4503083978 Hartrees.
 NAtoms=   44 NActive=   44 NUniq=   44 SFac= 7.50D-01 NAtFMM=   80 NAOKFM=F Big=F
 Dreiding calculation of energy and first derivatives.
 MO and density RWFs will be updated without deorthogonalization.
 NRF= 0 NRA=   0 NVA=  44 HaveQM=F
 Convergence limit is  0.750E-04 MaxStp=  5000 StMxLn= 1.00D-04 StpMin= 1.00D-06.
 Convergence criteria           0.00011250 0.00007500 0.00045000 0.00030000
  Step  NS  ND Rises OKQ   Scale  Max. Force  RMS Force Max. Disp.  RMS Disp.     Energy   Flag
     1   0   0   F    T  1.00D+00 0.04633594 0.01363713 0.04633594 0.01363713    0.1343090 ----
     2   0   0   F    F  2.63D-01 0.04633594 0.01363713 0.04633594 0.01363713    0.1195171 ----
     3   0   0   F    T  4.59D+00 0.01144980 0.00362410 0.01224761 0.00374990    0.1188489 ----
     4   0   0   F    F -2.73D-01 0.01144980 0.00362410 0.05626582 0.01722711    0.1163619 ----
     5   0   0   F    T  2.45D+00 0.01566272 0.00358090 0.01510560 0.00512501    0.1159583 ----
     6   0   0   F    F  1.76D-01 0.01566272 0.00358090 0.03693331 0.01253068    0.1135905 ----
     7   0   0   F    T  3.14D+00 0.01161220 0.00296782 0.01618384 0.00469562    0.1135367 ----
     8   0   0   F    F -6.88D-02 0.01161220 0.00296782 0.05079223 0.01473699    0.1118453 ----
     9   0   0   F    T  3.49D+00 0.01027121 0.00239029 0.01319206 0.00392714    0.1118360 ----
    10   0   0   F    F -2.72D-01 0.01027121 0.00239029 0.04609927 0.01372329    0.1110098 ----
    11   0   0   F    T  3.25D+00 0.00728682 0.00187561 0.01093987 0.00307556    0.1108765 ----
    12   0   0   F    F  4.93D-02 0.00728682 0.00187561 0.03555562 0.00999588    0.1100863 ----
    13   0   0   F    T  3.81D+00 0.00573335 0.00159870 0.00956137 0.00275472    0.1100845 ----
    14   0   0   F    F -1.92D-01 0.00573335 0.00159870 0.03640429 0.01048840    0.1095954 ----
    15   0   0   F    T  2.85D+00 0.00581948 0.00153550 0.01017638 0.00297104    0.1095660 ----
    16   0   0   F    F  1.14D-01 0.00581948 0.00153550 0.02901025 0.00846967    0.1090773 ----
    17   0   0   F    T  3.44D+00 0.00464065 0.00137230 0.00890792 0.00274618    0.1090722 ----
    18   0   0   F    F -2.14D-01 0.00464065 0.00137230 0.03059893 0.00943320    0.1087617 ----
    19   0   0   F    T  3.45D+00 0.00465226 0.00111856 0.00768415 0.00214655    0.1087368 ----
    20   0   0   F    F -3.34D-01 0.00465226 0.00111856 0.02653432 0.00741229    0.1085946 ----
    21   0   0   F    T  4.15D+00 0.00218080 0.00073595 0.00504534 0.00118826    0.1085469 ----
    22   0   0   F    F -2.89D-01 0.00218080 0.00073595 0.02096100 0.00493664    0.1084587 ----
    23   0   0   F    T  3.00D+00 0.00206505 0.00066302 0.00407162 0.00117095    0.1084413 ----
    24   0   0   F    F  6.07D-02 0.00206505 0.00066302 0.01220608 0.00351031    0.1083494 ----
    25   0   0   F    T  2.90D+00 0.00226550 0.00064576 0.00389429 0.00128534    0.1083491 ----
    26   0   0   F    F -5.61D-02 0.00226550 0.00064576 0.01128064 0.00372326    0.1082741 ----
    27   0   0   F    T  3.66D+00 0.00156794 0.00051339 0.00338670 0.00096046    0.1082738 ----
    28   0   0   F    F -2.72D-01 0.00156794 0.00051339 0.01239170 0.00351427    0.1082339 ----
    29   0   0   F    T  3.61D+00 0.00178660 0.00040071 0.00220303 0.00070904    0.1082275 ----
    30   0   0   F    F  1.79D-01 0.00178660 0.00040071 0.00794871 0.00255826    0.1081834 ----
    31   0   0   F    T  4.39D+00 0.00117749 0.00036318 0.00241679 0.00068645    0.1081824 ----
    32   0   0   F    F -4.57D-01 0.00117749 0.00036318 0.01061939 0.00301626    0.1081763 ----
    33   0   0   F    T  2.99D+00 0.00091656 0.00029756 0.00210743 0.00054863    0.1081616 ----
    34   0   0   F    F  3.96D-02 0.00091656 0.00029756 0.00629655 0.00163918    0.1081435 ----
    35   0   0   F    T  4.83D+00 0.00083194 0.00021297 0.00126081 0.00035284    0.1081434 ----
    36   0   0   F    F -3.73D-01 0.00083194 0.00021297 0.00608935 0.00170412    0.1081376 ----
    37   0   0   F    T  4.24D+00 0.00047964 0.00015853 0.00075810 0.00025182    0.1081344 ---+
    38   0   0   F    F -4.58D-01 0.00047964 0.00015853 0.00321523 0.00106801    0.1081333 ----
    39   0   0   F    T  2.63D+00 0.00041093 0.00013257 0.00070579 0.00022040    0.1081306 ---+
    40   0   0   F    F  5.47D-01 0.00041093 0.00013257 0.00185427 0.00057903    0.1081264 ----
    41   0   0   F    T  3.04D+00 0.00042237 0.00014322 0.00094215 0.00029427    0.1081259 ---+
    42   0   0   F    T  3.03D+00 0.00045487 0.00013390 0.00088770 0.00029569    0.1081219 ---+
    43   0   0   F    F  2.36D-01 0.00045487 0.00013390 0.00268849 0.00089553    0.1081177 ----
    44   0   0   F    T  5.15D+00 0.00036072 0.00011099 0.00091035 0.00021504    0.1081176 ---+
    45   0   0   F    F -3.33D-01 0.00036072 0.00011099 0.00468589 0.00110689    0.1081155 ----
    46   0   0   F    T  2.51D+00 0.00039157 0.00012295 0.00143343 0.00029420    0.1081148 ---+
    47   0   0   F    F  1.46D-01 0.00039157 0.00012295 0.00359594 0.00073804    0.1081119 ----
    48   0   0   F    T  4.24D+00 0.00029379 0.00009495 0.00105685 0.00019951    0.1081119 ---+
    49   0   0   F    F  9.46D-02 0.00029379 0.00009495 0.00448057 0.00084584    0.1081092 ----
    50   0   0   F    T  2.95D+00 0.00047327 0.00011482 0.00162248 0.00031352    0.1081091 ----
    51   0   0   F    F -1.99D-01 0.00047327 0.00011482 0.00479149 0.00092588    0.1081072 ----
    52   0   0   F    T  4.20D+00 0.00025162 0.00008121 0.00082984 0.00017658    0.1081071 ---+
    53   0   0   F    F -1.53D-01 0.00025162 0.00008121 0.00348643 0.00074185    0.1081056 ----
    54   0   0   F    T  2.27D+00 0.00056020 0.00009825 0.00124090 0.00027648    0.1081055 ---+
    55   0   0   F    F  5.26D-01 0.00056020 0.00009825 0.00281951 0.00062820    0.1081036 ----
    56   0   0   F    T  3.82D+00 0.00027328 0.00009042 0.00110833 0.00025106    0.1081033 ---+
    57   0   0   F    T  2.35D+00 0.00053971 0.00011309 0.00184093 0.00040832    0.1081013 ----
    58   0   0   F    F  5.27D-01 0.00053971 0.00011309 0.00432300 0.00095884    0.1080986 ----
    59   0   0   F    T  3.52D+00 0.00030716 0.00011177 0.00208711 0.00041580    0.1080982 ----
    60   0   0   F    F -3.97D-02 0.00030716 0.00011177 0.00734705 0.00146370    0.1080954 ----
    61   0   0   F    T  3.49D+00 0.00031479 0.00010807 0.00226140 0.00040259    0.1080954 ----
    62   0   0   F    F  1.92D-01 0.00031479 0.00010807 0.00789538 0.00140558    0.1080923 ----
    63   0   0   F    T  3.51D+00 0.00041411 0.00011594 0.00280962 0.00047799    0.1080922 ----
    64   0   0   F    F -2.17D-01 0.00041411 0.00011594 0.00985008 0.00167577    0.1080900 ----
    65   0   0   F    T  3.46D+00 0.00028623 0.00010137 0.00225985 0.00037983    0.1080898 ----
    66   0   0   F    F -2.01D-02 0.00028623 0.00010137 0.00780960 0.00131260    0.1080875 ----
    67   0   0   F    T  3.28D+00 0.00033804 0.00010121 0.00225291 0.00039228    0.1080875 ----
    68   0   0   F    F -5.26D-02 0.00033804 0.00010121 0.00738710 0.00128627    0.1080854 ----
    69   0   0   F    T  3.48D+00 0.00030393 0.00009379 0.00184510 0.00034994    0.1080854 ----
    70   0   0   F    F  2.95D-01 0.00030393 0.00009379 0.00642526 0.00121859    0.1080829 ----
    71   0   0   F    T  3.30D+00 0.00026605 0.00010826 0.00238337 0.00047847    0.1080828 ----
    72   0   0   F    F  2.67D-01 0.00026605 0.00010826 0.00786362 0.00157865    0.1080797 ----
    73   0   0   F    T  3.95D+00 0.00030486 0.00011016 0.00248042 0.00050693    0.1080795 ----
    74   0   0   F    F  2.06D-02 0.00030486 0.00011016 0.00979002 0.00200079    0.1080763 ----
    75   0   0   F    T  2.87D+00 0.00044872 0.00012955 0.00350875 0.00071214    0.1080763 ----
    76   0   0   F    F  1.35D-01 0.00044872 0.00012955 0.01006117 0.00204204    0.1080728 ----
    77   0   0   F    T  4.64D+00 0.00031020 0.00010730 0.00256716 0.00049942    0.1080727 ----
    78   0   0   F    F -3.83D-01 0.00031020 0.00010730 0.01190894 0.00231677    0.1080714 ----
    79   0   0   F    T  3.54D+00 0.00031047 0.00009505 0.00216269 0.00040368    0.1080705 ----
    80   0   0   F    F -2.73D-01 0.00031047 0.00009505 0.00766431 0.00143060    0.1080692 ----
    81   0   0   F    T  4.01D+00 0.00025026 0.00007456 0.00142110 0.00025941    0.1080690 -+-+
    82   0   0   F    T  3.25D+00 0.00026970 0.00008172 0.00170194 0.00032008    0.1080675 ----
    83   0   0   F    F -1.24D-01 0.00026970 0.00008172 0.00553303 0.00104059    0.1080663 ----
    84   0   0   F    T  4.59D+00 0.00020045 0.00006180 0.00090802 0.00019846    0.1080662 -+-+
    85   0   0   F    F -2.59D-02 0.00020045 0.00006180 0.00417101 0.00091163    0.1080651 -+--
    86   0   0   F    T  3.76D+00 0.00025840 0.00006629 0.00100279 0.00023620    0.1080651 -+-+
    87   0   0   F    F -2.94D-01 0.00025840 0.00006629 0.00377015 0.00088804    0.1080645 -+--
    88   0   0   F    T  3.12D+00 0.00024695 0.00005976 0.00092246 0.00020105    0.1080643 -+-+
    89   0   0   F    F  4.45D-01 0.00024695 0.00005976 0.00287858 0.00062737    0.1080634 -+--
    90   0   0   F    T  4.75D+00 0.00015405 0.00005689 0.00093442 0.00019087    0.1080633 -+-+
    91   0   0   T    F  4.63D-01 0.00015405 0.00005689 0.00443726 0.00090637    0.1080634 -+--
    92   0   0   F    T  3.17D+00 0.00013031 0.00004594 0.00067674 0.00013263    0.1080628 -+-+
    93   0   0   F    F  1.44D-01 0.00013031 0.00004594 0.00214347 0.00042007    0.1080623 -+--
    94   0   0   F    T  3.09D+00 0.00013887 0.00004847 0.00080377 0.00015545    0.1080623 -+-+
    95   0   0   F    T  3.69D+00 0.00019455 0.00004296 0.00067491 0.00013023    0.1080618 -+-+
    96   0   0   F    F -8.82D-02 0.00019455 0.00004296 0.00248952 0.00048037    0.1080614 -+--
    97   0   0   F    T  3.59D+00 0.00015599 0.00004064 0.00062382 0.00012211    0.1080614 -+-+
    98   0   0   F    F -2.12D-01 0.00015599 0.00004064 0.00223752 0.00043799    0.1080611 -+--
    99   0   0   F    T  2.91D+00 0.00013900 0.00003884 0.00060161 0.00011856    0.1080611 -+-+
   100   0   0   F    F  1.03D-01 0.00013900 0.00003884 0.00175184 0.00034524    0.1080608 -+--
   101   0   0   F    T  3.25D+00 0.00012781 0.00003760 0.00060909 0.00011727    0.1080608 -+-+
   102   0   0   F    F  1.68D-01 0.00012781 0.00003760 0.00197797 0.00038084    0.1080605 -+--
   103   0   0   F    T  3.63D+00 0.00014184 0.00003749 0.00063997 0.00012245    0.1080604 -+-+
   104   0   0   F    F  5.17D-02 0.00014184 0.00003749 0.00232390 0.00044465    0.1080601 -+--
   105   0   0   F    T  3.33D+00 0.00013909 0.00003936 0.00073513 0.00014061    0.1080601 -+-+
   106   0   0   F    F -4.62D-02 0.00013909 0.00003936 0.00244488 0.00046763    0.1080598 -+--
   107   0   0   F    T  3.92D+00 0.00010178 0.00003456 0.00058896 0.00011378    0.1080598 ++-+
   108   0   0   F    F -3.27D-01 0.00010178 0.00003456 0.00230858 0.00044601    0.1080596 ++--
   109   0   0   F    T  3.12D+00 0.00017553 0.00003091 0.00046931 0.00009615    0.1080596 -+-+
   110   0   0   F    F  3.51D-01 0.00017553 0.00003091 0.00146523 0.00030019    0.1080593 -+--
   111   0   0   F    T  4.89D+00 0.00007845 0.00002787 0.00037230 0.00008296    0.1080593 ====
 Energy=    0.108059292940 NIter=   0.
 Dipole moment=       0.000000       0.000000       0.000000
 ***** Axes restored to original set *****
 -------------------------------------------------------------------
 Center     Atomic                   Forces (Hartrees/Bohr)
 Number     Number              X              Y              Z
 -------------------------------------------------------------------
    1          6           0.000007683    0.000005729   -0.000030496
    2          6          -0.000017699   -0.000000879    0.000021163
    3          6          -0.000027973   -0.000047317   -0.000011436
    4          6           0.000009269   -0.000013154   -0.000021022
    5          6          -0.000001864   -0.000014439   -0.000031862
    6          6           0.000004358    0.000025212   -0.000025369
    7          6           0.000014343    0.000026293    0.000055577
    8          6           0.000035662   -0.000051450   -0.000039775
    9          6          -0.000015915   -0.000001910   -0.000002501
   10          6           0.000023488   -0.000024165    0.000033613
   11          6          -0.000021814   -0.000000541    0.000049583
   12          6           0.000014495    0.000065914    0.000036183
   13          6          -0.000020415    0.000029906   -0.000005281
   14          6          -0.000004747   -0.000025083   -0.000021619
   15          7           0.000033283    0.000010300    0.000045514
   16          6          -0.000086931    0.000001279   -0.000019562
   17          1          -0.000011902    0.000003044    0.000007828
   18          1          -0.000015167   -0.000004614   -0.000046330
   19          1          -0.000008951    0.000009253   -0.000010233
   20          1          -0.000002908    0.000031203    0.000017676
   21          1           0.000015349    0.000080121    0.000034471
   22          1          -0.000012618   -0.000007424    0.000017853
   23          1           0.000025165    0.000029153    0.000026229
   24          1           0.000038341    0.000003832    0.000013491
   25          1           0.000029715    0.000017846   -0.000000606
   26          1          -0.000020044   -0.000053959   -0.000004996
   27          1           0.000014071    0.000030112    0.000042532
   28          1          -0.000022636   -0.000051035    0.000019299
   29          1           0.000024787   -0.000017339    0.000004418
   30          1           0.000001815   -0.000017181   -0.000002826
   31          1          -0.000030260   -0.000008322    0.000008427
   32          1          -0.000012740   -0.000000717   -0.000005705
   33          1          -0.000034354   -0.000003496    0.000023482
   34          1          -0.000001010    0.000025887   -0.000011633
   35          1           0.000037288   -0.000012539    0.000005933
   36          1           0.000008501   -0.000008677   -0.000030992
   37          1          -0.000001074   -0.000008213    0.000016154
   38          1           0.000018361   -0.000001017   -0.000016328
   39          1           0.000012849    0.000045298   -0.000023404
   40          1           0.000024289   -0.000024704   -0.000055122
   41          6          -0.000018052   -0.000081528    0.000032352
   42          1          -0.000021882    0.000030303   -0.000073766
   43          1          -0.000005641    0.000028427   -0.000007648
   44          1           0.000023486   -0.000019408   -0.000013268
 -------------------------------------------------------------------
 Cartesian Forces:  Max     0.000086931 RMS     0.000027869

 GradGradGradGradGradGradGradGradGradGradGradGradGradGradGradGradGradGrad
 Berny optimization.
 Search for a local minimum.
 Step number   1 out of a maximum of   2
 All quantities printed in internal units (Hartrees-Bohrs-Radians)
 Second derivative matrix not updated -- unit matrix used.
 RFO step:  Lambda=-1.02525024D-07.
 Linear search not attempted -- first point.
 TrRot=  0.000000  0.000000  0.000000  0.000000  0.000000  0.000000
 Variable       Old X    -DE/DX   Delta X   Delta X   Delta X     New X
                                 (Linear)    (Quad)   (Total)
    X1       -4.73976   0.00001   0.00000   0.00001   0.00001  -4.73975
    Y1        1.24041   0.00001   0.00000   0.00001   0.00001   1.24041
    Z1       -2.44932  -0.00003   0.00000  -0.00003  -0.00003  -2.44935
    X2       -4.28417  -0.00002   0.00000  -0.00002  -0.00002  -4.28419
    Y2        4.14084   0.00000   0.00000   0.00000   0.00000   4.14084
    Z2       -2.63977   0.00002   0.00000   0.00002   0.00002  -2.63975
    X3       -1.38805  -0.00003   0.00000  -0.00003  -0.00003  -1.38808
    Y3        4.62988  -0.00005   0.00000  -0.00005  -0.00005   4.62984
    Z3       -2.79388  -0.00001   0.00000  -0.00001  -0.00001  -2.79389
    X4       -3.41941   0.00001   0.00000   0.00001   0.00001  -3.41940
    Y4        0.20383  -0.00001   0.00000  -0.00001  -0.00001   0.20382
    Z4       -0.02324  -0.00002   0.00000  -0.00002  -0.00002  -0.02326
    X5       -0.06578   0.00000   0.00000   0.00000   0.00000  -0.06578
    Y5        3.52631  -0.00001   0.00000  -0.00001  -0.00001   3.52630
    Z5       -0.39523  -0.00003   0.00000  -0.00003  -0.00003  -0.39526
    X6       -0.44606   0.00000   0.00000   0.00000   0.00000  -0.44606
    Y6        0.55902   0.00003   0.00000   0.00003   0.00003   0.55905
    Z6       -0.10367  -0.00003   0.00000  -0.00003  -0.00003  -0.10369
    X7       -3.63434   0.00001   0.00000   0.00001   0.00001  -3.63432
    Y7       -0.11441   0.00003   0.00000   0.00003   0.00003  -0.11438
    Z7       -4.82644   0.00006   0.00000   0.00006   0.00006  -4.82638
    X8        0.62537   0.00004   0.00000   0.00004   0.00004   0.62540
    Y8       -0.64689  -0.00005   0.00000  -0.00005  -0.00005  -0.64694
    Z8       -2.61095  -0.00004   0.00000  -0.00004  -0.00004  -2.61099
    X9       -0.73796  -0.00002   0.00000  -0.00002  -0.00002  -0.73798
    Y9        0.41873   0.00000   0.00000   0.00000   0.00000   0.41873
    Z9       -5.00631   0.00000   0.00000   0.00000   0.00000  -5.00631
   X10       -0.28356   0.00002   0.00000   0.00002   0.00002  -0.28353
   Y10        3.32486  -0.00002   0.00000  -0.00002  -0.00002   3.32484
   Z10       -5.19591   0.00003   0.00000   0.00003   0.00003  -5.19587
   X11        0.89105  -0.00002   0.00000  -0.00002  -0.00002   0.89102
   Y11       -0.61096   0.00000   0.00000   0.00000   0.00000  -0.61096
   Z11        2.36936   0.00005   0.00000   0.00005   0.00005   2.36941
   X12        3.45634   0.00001   0.00000   0.00001   0.00001   3.45635
   Y12        0.77522   0.00007   0.00000   0.00007   0.00007   0.77528
   Z12        2.97279   0.00004   0.00000   0.00004   0.00004   2.97283
   X13        4.90569  -0.00002   0.00000  -0.00002  -0.00002   4.90567
   Y13       -0.22453   0.00003   0.00000   0.00003   0.00003  -0.22450
   Z13        5.29862  -0.00001   0.00000  -0.00001  -0.00001   5.29861
   X14        5.36008   0.00000   0.00000   0.00000   0.00000   5.36008
   Y14       -3.07859  -0.00003   0.00000  -0.00003  -0.00003  -3.07861
   Z14        5.04047  -0.00002   0.00000  -0.00002  -0.00002   5.04045
   X15        1.32609   0.00003   0.00000   0.00003   0.00003   1.32613
   Y15       -3.47424   0.00001   0.00000   0.00001   0.00001  -3.47423
   Z15        2.43997   0.00005   0.00000   0.00005   0.00005   2.44002
   X16        2.80768  -0.00009   0.00000  -0.00009  -0.00009   2.80760
   Y16       -4.42800   0.00000   0.00000   0.00000   0.00000  -4.42800
   Z16        4.67900  -0.00002   0.00000  -0.00002  -0.00002   4.67898
   X17       -6.77333  -0.00001   0.00000  -0.00001  -0.00001  -6.77334
   Y17        0.87965   0.00000   0.00000   0.00000   0.00000   0.87966
   Z17       -2.33880   0.00001   0.00000   0.00001   0.00001  -2.33879
   X18       -5.08219  -0.00002   0.00000  -0.00002  -0.00002  -5.08221
   Y18        5.10084   0.00000   0.00000   0.00000   0.00000   5.10084
   Z18       -0.99179  -0.00005   0.00000  -0.00005  -0.00005  -0.99183
   X19       -5.22857  -0.00001   0.00000  -0.00001  -0.00001  -5.22858
   Y19        4.90336   0.00001   0.00000   0.00001   0.00001   4.90337
   Z19       -4.31306  -0.00001   0.00000  -0.00001  -0.00001  -4.31308
   X20       -1.04499   0.00000   0.00000   0.00000   0.00000  -1.04499
   Y20        6.66641   0.00003   0.00000   0.00003   0.00003   6.66644
   Z20       -2.90167   0.00002   0.00000   0.00002   0.00002  -2.90165
   X21       -3.97760   0.00002   0.00000   0.00002   0.00002  -3.97758
   Y21       -1.75717   0.00008   0.00000   0.00008   0.00008  -1.75709
   Z21        0.14501   0.00003   0.00000   0.00003   0.00003   0.14504
   X22       -4.19796  -0.00001   0.00000  -0.00001  -0.00001  -4.19797
   Y22        1.16243  -0.00001   0.00000  -0.00001  -0.00001   1.16242
   Z22        1.63604   0.00002   0.00000   0.00002   0.00002   1.63606
   X23       -0.77730   0.00003   0.00000   0.00003   0.00003  -0.77727
   Y23        4.50145   0.00003   0.00000   0.00003   0.00003   4.50148
   Z23        1.28428   0.00003   0.00000   0.00003   0.00003   1.28431
   X24        1.93470   0.00004   0.00000   0.00004   0.00004   1.93474
   Y24        4.00507   0.00000   0.00000   0.00000   0.00000   4.00508
   Z24       -0.57492   0.00001   0.00000   0.00001   0.00001  -0.57490
   X25       -4.58555   0.00003   0.00000   0.00003   0.00003  -4.58552
   Y25        0.56539   0.00002   0.00000   0.00002   0.00002   0.56540
   Z25       -6.53126   0.00000   0.00000   0.00000   0.00000  -6.53126
   X26       -3.97476  -0.00002   0.00000  -0.00002  -0.00002  -3.97478
   Y26       -2.14972  -0.00005   0.00000  -0.00005  -0.00005  -2.14977
   Z26       -4.70685   0.00000   0.00000   0.00000   0.00000  -4.70686
   X27        0.41109   0.00001   0.00000   0.00001   0.00001   0.41111
   Y27       -2.69222   0.00003   0.00000   0.00003   0.00003  -2.69219
   Z27       -2.61583   0.00004   0.00000   0.00004   0.00004  -2.61579
   X28        2.65214  -0.00002   0.00000  -0.00002  -0.00002   2.65212
   Y28       -0.27495  -0.00005   0.00000  -0.00005  -0.00005  -0.27501
   Z28       -2.76666   0.00002   0.00000   0.00002   0.00002  -2.76664
   X29        0.02282   0.00002   0.00000   0.00002   0.00002   0.02285
   Y29       -0.50026  -0.00002   0.00000  -0.00002  -0.00002  -0.50027
   Z29       -6.69533   0.00000   0.00000   0.00000   0.00000  -6.69533
   X30       -1.18887   0.00000   0.00000   0.00000   0.00000  -1.18887
   Y30        4.07791  -0.00002   0.00000  -0.00002  -0.00002   4.07789
   Z30       -6.89505   0.00000   0.00000   0.00000   0.00000  -6.89505
   X31        1.73944  -0.00003   0.00000  -0.00003  -0.00003   1.73941
   Y31        3.71959  -0.00001   0.00000  -0.00001  -0.00001   3.71959
   Z31       -5.35603   0.00001   0.00000   0.00001   0.00001  -5.35602
   X32       -0.34079  -0.00001   0.00000  -0.00001  -0.00001  -0.34081
   Y32       -0.16995   0.00000   0.00000   0.00000   0.00000  -0.16995
   Z32        3.97355  -0.00001   0.00000  -0.00001  -0.00001   3.97355
   X33        3.11522  -0.00003   0.00000  -0.00003  -0.00003   3.11518
   Y33        2.76911   0.00000   0.00000   0.00000   0.00000   2.76910
   Z33        3.37934   0.00002   0.00000   0.00002   0.00002   3.37936
   X34        4.70486   0.00000   0.00000   0.00000   0.00000   4.70486
   Y34        0.65479   0.00003   0.00000   0.00003   0.00003   0.65481
   Z34        1.33113  -0.00001   0.00000  -0.00001  -0.00001   1.33112
   X35        3.82423   0.00004   0.00000   0.00004   0.00004   3.82427
   Y35        0.16361  -0.00001   0.00000  -0.00001  -0.00001   0.16359
   Z35        7.01823   0.00001   0.00000   0.00001   0.00001   7.01824
   X36        6.72325   0.00001   0.00000   0.00001   0.00001   6.72326
   Y36        0.74648  -0.00001   0.00000  -0.00001  -0.00001   0.74647
   Z36        5.45613  -0.00003   0.00000  -0.00003  -0.00003   5.45610
   X37        6.29368   0.00000   0.00000   0.00000   0.00000   6.29367
   Y37       -3.78752  -0.00001   0.00000  -0.00001  -0.00001  -3.78753
   Z37        6.74215   0.00002   0.00000   0.00002   0.00002   6.74216
   X38        6.58809   0.00002   0.00000   0.00002   0.00002   6.58811
   Y38       -3.45833   0.00000   0.00000   0.00000   0.00000  -3.45834
   Z38        3.42129  -0.00002   0.00000  -0.00002  -0.00002   3.42127
   X39        3.25611   0.00001   0.00000   0.00001   0.00001   3.25613
   Y39       -6.43485   0.00005   0.00000   0.00005   0.00005  -6.43481
   Z39        4.45162  -0.00002   0.00000  -0.00002  -0.00002   4.45159
   X40        1.68698   0.00002   0.00000   0.00002   0.00002   1.68700
   Y40       -4.22513  -0.00002   0.00000  -0.00002  -0.00002  -4.22515
   Z40        6.40835  -0.00006   0.00000  -0.00006  -0.00006   6.40830
   X41       -0.93520  -0.00002   0.00000  -0.00002  -0.00002  -0.93522
   Y41       -5.15907  -0.00008   0.00000  -0.00008  -0.00008  -5.15915
   Z41        2.12615   0.00003   0.00000   0.00003   0.00003   2.12619
   X42       -1.60177  -0.00002   0.00000  -0.00002  -0.00002  -1.60180
   Y42       -5.14641   0.00003   0.00000   0.00003   0.00003  -5.14638
   Z42        0.18774  -0.00007   0.00000  -0.00007  -0.00007   0.18767
   X43       -0.52022  -0.00001   0.00000  -0.00001  -0.00001  -0.52022
   Y43       -7.14484   0.00003   0.00000   0.00003   0.00003  -7.14482
   Z43        2.51517  -0.00001   0.00000  -0.00001  -0.00001   2.51516
   X44       -2.46086   0.00002   0.00000   0.00002   0.00002  -2.46084
   Y44       -4.57930  -0.00002   0.00000  -0.00002  -0.00002  -4.57932
   Z44        3.39006  -0.00001   0.00000  -0.00001  -0.00001   3.39005
         Item               Value     Threshold  Converged?
 Maximum Force            0.000087     0.000450     YES
 RMS     Force            0.000028     0.000300     YES
 Maximum Displacement     0.000087     0.001800     YES
 RMS     Displacement     0.000028     0.001200     YES
 Predicted change in Energy=-5.126250D-08
 Optimization completed.
    -- Stationary point found.
 GradGradGradGradGradGradGradGradGradGradGradGradGradGradGradGradGradGrad

                          Input orientation:                          
 ---------------------------------------------------------------------
 Center     Atomic     Atomic              Coordinates (Angstroms)
 Number     Number      Type              X           Y           Z
 ---------------------------------------------------------------------
    1          6      10061003       -2.508173    0.656396   -1.296127
    2          6      10061003       -2.267086    2.191238   -1.396908
    3          6      10061003       -0.734523    2.450029   -1.478459
    4          6      10061003       -1.809473    0.107864   -0.012300
    5          6      10061003       -0.034811    1.866045   -0.209148
    6          6      10061003       -0.236047    0.295822   -0.054859
    7          6      10061003       -1.923208   -0.060543   -2.554040
    8          6      10061003        0.330929   -0.342318   -1.381654
    9          6      10061003       -0.390513    0.221582   -2.649226
   10          6      10061003       -0.150052    1.759440   -2.749555
   11          6      10061003        0.471521   -0.323304    1.253811
   12          6      10061003        1.829016    0.410228    1.573133
   13          6      10061003        2.595980   -0.118815    2.803908
   14          6      10061003        2.836433   -1.629120    2.667304
   15          7      10071003        0.701738   -1.838488    1.291178
   16          6      10061003        1.485762   -2.343198    2.476018
   17          1      10011000       -3.584293    0.465492   -1.237639
   18          1      10011000       -2.689381    2.699249   -0.524832
   19          1      10011000       -2.766838    2.594745   -2.282376
   20          1      10011000       -0.552984    3.527714   -1.535497
   21          1      10011000       -2.104854   -0.929857    0.076735
   22          1      10011000       -2.221466    0.615130    0.865755
   23          1      10011000       -0.411329    2.382065    0.679611
   24          1      10011000        1.023798    2.119394   -0.304233
   25          1      10011000       -2.426567    0.299190   -3.456193
   26          1      10011000       -2.103354   -1.137581   -2.490758
   27          1      10011000        0.217540   -1.424663   -1.384238
   28          1      10011000        1.403454   -0.145500   -1.464055
   29          1      10011000        0.012077   -0.264724   -3.543017
   30          1      10011000       -0.629124    2.157937   -3.648702
   31          1      10011000        0.920470    1.968324   -2.834288
   32          1      10011000       -0.180340   -0.089935    2.102714
   33          1      10011000        1.648501    1.465348    1.788270
   34          1      10011000        2.489705    0.346499    0.704404
   35          1      10011000        2.023698    0.086577    3.713888
   36          1      10011000        3.557792    0.395020    2.887262
   37          1      10011000        3.330469   -2.004272    3.567791
   38          1      10011000        3.486266   -1.830072    1.810468
   39          1      10011000        1.723061   -3.405178    2.355694
   40          1      10011000        0.892710   -2.235841    3.391154
   41          6      10061003       -0.494886   -2.730063    1.125112
   42          1      10011000       -0.847622   -2.723365    0.099349
   43          1      10011000       -0.275286   -3.780888    1.330969
   44          1      10011000       -1.302232   -2.423264    1.793942
 ---------------------------------------------------------------------
                    Distance matrix (angstroms):
                    1          2          3          4          5
     1  C    0.000000
     2  C    1.556926   0.000000
     3  C    2.529071   1.556397   0.000000
     4  C    1.561180   2.543029   2.964941   0.000000
     5  C    2.960118   2.549427   1.562621   2.505868   0.000000
     6  C    2.614061   3.085258   2.629776   1.585184   1.590567
     7  C    1.561581   2.554941   2.978728   2.549852   3.574396
     8  C    3.010855   3.628887   2.990278   2.580526   2.526936
     9  C    2.550378   2.994891   2.540672   2.996624   2.963910
    10  C    2.981593   2.549105   1.560194   3.601936   2.545253
    11  C    4.042348   4.566093   4.075686   2.644215   2.681394
    12  C    5.206195   5.363879   4.477135   3.980405   2.961382
    13  C    6.592695   6.828808   6.002490   5.233587   4.465338
    14  C    7.035423   7.560348   6.824846   5.637537   5.360428
    15  N    4.818934   5.681410   5.303312   3.434170   4.064118
    16  C    6.259246   7.045888   6.598680   4.801875   5.219195
    17  H    1.094485   2.176833   3.481030   2.186171   3.951983
    18  H    2.191114   1.094041   2.189289   2.784278   2.800112
    19  H    2.190158   1.093902   2.190326   3.500625   3.506173
    20  H    3.482030   2.177963   1.094356   3.948958   2.188343
    21  H    2.136262   3.455311   3.964853   1.082609   3.490541
    22  H    2.181201   2.757870   3.327641   1.094548   2.738917
    23  H    3.358308   2.791449   2.183195   2.757813   1.094502
    24  H    3.949562   3.468288   2.140052   3.486962   1.092648
    25  H    2.190922   2.801059   3.376470   3.503971   4.326527
    26  H    2.193029   3.507756   3.971069   2.789311   4.301905
    27  H    3.430464   4.387285   3.991057   2.887843   3.503324
    28  H    3.996506   4.351748   3.362725   3.534782   2.773033
    29  H    3.499805   3.978959   3.491374   3.990342   3.956900
    30  H    3.364530   2.784708   2.192346   4.338138   3.502704
    31  H    3.980288   3.503750   2.193015   4.344826   2.795422
    32  H    4.186638   4.669649   4.425306   2.677028   3.031789
    33  H    5.238879   5.099422   4.161721   4.128244   2.642684
    34  H    5.392304   5.517756   4.425537   4.365036   3.084927
    35  H    6.779587   6.997190   6.336731   5.345851   4.774325
    36  H    7.373262   7.450485   6.458061   6.107164   4.965729
    37  H    8.051496   8.578063   7.863180   6.610383   6.369437
    38  H    7.194912   7.717464   6.852106   5.926460   5.489819
    39  H    6.909091   7.830912   7.417810   5.516127   6.119994
    40  H    6.473148   7.246302   6.951144   4.937433   5.536059
    41  C    4.624265   5.806934   5.802531   3.328014   4.807924
    42  H    4.015914   5.329821   5.409831   2.992237   4.671030
    43  H    5.619334   6.861113   6.850410   4.390956   5.858127
    44  H    4.526271   5.692635   5.897447   3.150621   4.900704
                    6          7          8          9         10
     6  C    0.000000
     7  C    3.036349   0.000000
     8  C    1.577679   2.556369   0.000000
     9  C    2.600022   1.561348   1.563714   0.000000
    10  C    3.067729   2.548459   2.553406   1.559774   0.000000
    11  C    1.611393   4.505941   2.639281   4.034068   4.555339
    12  C    2.632097   5.597711   3.397257   4.773909   4.941934
    13  C    4.045350   7.009570   4.764383   6.226691   6.473754
    14  C    4.533840   7.237198   4.932288   6.488741   7.052927
    15  N    2.691939   4.983687   3.085459   4.578612   5.477057
    16  C    4.041583   6.491000   4.496531   6.030475   6.842086
    17  H    3.555068   2.183765   4.000282   3.500328   3.969156
    18  H    3.466437   3.510152   4.371219   3.992077   3.504401
    19  H    4.080659   2.799298   4.362775   3.378373   2.786316
    20  H    3.569014   3.973730   3.972672   3.492463   2.182449
    21  H    2.238760   2.776631   2.899162   3.419888   4.363654
    22  H    2.211645   3.498641   3.533026   3.982757   4.320956
    23  H    2.218688   4.325346   3.496001   3.968536   3.495012
    24  H    2.230429   4.301000   2.775055   3.331810   2.736255
    25  H    4.045672   1.093918   3.509848   2.191514   2.795387
    26  H    3.387490   1.093832   2.790751   2.192318   3.503583
    27  H    2.221049   2.795007   1.088271   2.163341   3.483924
    28  H    2.206482   3.501708   1.093543   2.181214   2.773930
    29  H    3.541613   2.182909   2.186133   1.094273   2.180162
    30  H    4.066656   2.791879   3.508915   2.192113   1.093972
    31  H    3.443838   3.504475   2.792270   2.191811   1.093997
    32  H    2.192494   4.972305   3.530710   4.766775   5.192843
    33  H    2.883823   5.825900   3.879700   5.039435   4.890106
    34  H    2.829977   5.500631   3.080003   4.422453   4.571056
    35  H    4.399282   7.408551   5.386461   6.807045   7.021378
    36  H    4.801993   7.736709   5.401848   6.802345   6.883564
    37  H    5.579790   8.297953   6.021323   7.579672   8.135626
    38  H    4.674878   7.172347   4.728552   6.255203   6.848446
    39  H    4.831799   6.970463   5.028610   6.532213   7.499694
    40  H    4.422490   6.928683   5.165338   6.646185   7.399860
    41  C    3.258114   4.764725   3.559097   4.792570   5.940336
    42  H    3.084363   3.909985   3.041667   4.054174   5.357088
    43  H    4.305999   5.625826   4.421491   5.645795   6.881976
    44  H    3.456623   4.987285   4.133033   5.250541   6.282189
                   11         12         13         14         15
    11  C    0.000000
    12  C    1.575699   0.000000
    13  C    2.637792   1.543674   0.000000
    14  C    3.048922   2.524091   1.535415   0.000000
    15  N    1.533029   2.531200   2.972168   2.548426   0.000000
    16  C    2.569523   2.917941   2.507584   1.539744   1.507737
    17  H    4.824847   6.099788   7.407516   7.801390   5.483913
    18  H    4.721303   5.482426   6.852521   7.710974   5.948835
    19  H    5.613074   6.384273   7.873596   8.587025   6.667448
    20  H    4.864174   5.005619   6.484103   7.466231   6.193589
    21  H    2.896743   4.417054   5.494826   5.622840   3.190211
    22  H    2.878093   4.116889   5.244321   5.819327   3.840097
    23  H    2.903127   3.115392   4.450949   5.530685   4.407493
    24  H    2.949455   2.663481   4.140275   5.115372   4.279473
    25  H    5.565119   6.589115   8.036764   8.301491   6.074001
    26  H    4.616799   5.862974   7.152281   7.158820   4.760553
    27  H    2.869983   3.835325   4.990269   4.828601   2.750191
    28  H    2.878699   3.116801   4.431517   4.617649   3.309067
    29  H    4.819137   5.470998   6.854291   6.957488   5.130478
    30  H    5.603803   6.030298   7.564461   8.139030   6.491920
    31  H    4.708043   4.762193   6.241213   6.846899   5.617752
    32  H    1.095454   2.137318   2.863645   3.433477   2.119927
    33  H    2.206854   1.091855   2.106848   3.429229   3.472577
    34  H    2.196258   1.093280   2.153075   2.806468   2.883625
    35  H    2.937556   2.173818   1.094420   2.167831   3.364962
    36  H    3.565000   2.171597   1.093644   2.160065   3.961450
    37  H    4.043976   3.473158   2.162854   1.093475   3.481476
    38  H    3.415978   2.796738   2.169777   1.093999   2.832548
    39  H    3.504062   3.896274   3.429733   2.119217   2.151933
    40  H    2.898868   3.344182   2.779890   2.161048   2.145753
    41  C    2.596728   3.932260   4.380688   3.832508   1.501464
    42  H    2.972073   4.376738   5.094774   4.622124   2.145690
    43  H    3.538158   4.695976   4.881035   4.012318   2.174645
    44  H    2.801388   4.228729   4.639674   4.303716   2.147238
                   16         17         18         19         20
    16  C    0.000000
    17  H    6.883709   0.000000
    18  H    7.201611   2.509708   0.000000
    19  H    8.069089   2.508670   1.762351   0.000000
    20  H    7.397050   4.319115   2.504395   2.515831   0.000000
    21  H    4.543855   2.421429   3.724777   4.292604   4.987738
    22  H    5.008811   2.510768   2.548770   3.758595   4.127104
    23  H    5.399457   4.173344   2.596308   3.790386   2.497856
    24  H    5.278062   4.984089   3.764651   4.302084   2.446552
    25  H    7.581534   2.507980   3.797661   2.600616   4.197946
    26  H    6.245329   2.516610   4.350811   3.796563   5.008108
    27  H    4.165774   4.248307   5.118146   5.086139   5.014242
    28  H    4.512297   5.030128   5.072084   5.056671   4.162361
    29  H    6.536098   4.333804   5.019208   4.181883   4.328050
    30  H    7.889560   4.172603   3.781037   2.574387   2.519468
    31  H    6.863536   5.010058   4.347283   3.780642   2.507912
    32  H    2.827091   4.801391   4.580266   5.755562   5.144203
    33  H    3.873565   6.126824   5.068548   6.110721   4.488576
    34  H    3.373572   6.378020   5.819741   6.450326   4.939154
    35  H    2.779479   7.490711   6.856086   8.074362   6.785039
    36  H    3.458363   8.247979   7.481914   8.459604   6.802430
    37  H    2.170204   8.775296   8.666676   9.620424   8.469216
    38  H    2.169856   8.034511   8.006684   8.685141   7.497792
    39  H    1.094801   7.487466   8.064187   8.813057   8.269628
    40  H    1.095769   6.983300   7.247168   8.301554   7.718840
    41  C    2.428493   5.033746   6.084041   6.717613   6.800146
    42  H    3.352278   4.409729   5.760766   6.135006   6.468039
    43  H    2.545463   5.964815   7.159891   7.740336   7.855534
    44  H    2.871332   4.768983   5.791462   6.628865   6.860078
                   21         22         23         24         25
    21  H    0.000000
    22  H    1.738716   0.000000
    23  H    3.768330   2.536396   0.000000
    24  H    4.385377   3.763432   1.759697   0.000000
    25  H    3.754415   4.338331   5.050191   5.015278   0.000000
    26  H    2.575883   3.788420   5.030119   5.016758   1.760920
    27  H    2.787973   3.895122   4.375628   3.791675   3.775708
    28  H    3.911198   4.375684   3.778534   2.572755   4.339979
    29  H    4.245751   5.019972   5.001535   4.146965   2.504500
    30  H    5.058767   5.029525   4.339581   3.730832   2.592837
    31  H    5.101578   5.039168   3.780523   2.536666   3.791495
    32  H    2.917844   2.488650   2.861706   3.482022   6.008194
    33  H    4.770119   4.068237   2.512447   2.279605   6.743181
    34  H    4.809680   4.721580   3.544028   2.511849   6.440693
    35  H    5.595262   5.139323   4.517240   4.612748   8.441571
    36  H    6.459096   6.126562   4.957418   4.424956   8.721305
    37  H    6.548632   6.707179   6.448456   6.108839   9.369405
    38  H    5.922570   6.280899   5.849117   5.112141   8.199577
    39  H    5.096451   5.825984   6.391952   6.171311   8.044861
    40  H    4.655788   4.919733   5.511627   5.713243   8.020607
    41  C    2.632838   3.773415   5.132183   5.278888   5.822037
    42  H    2.190392   3.690579   5.156789   5.207438   4.926538
    43  H    3.612313   4.830012   6.198771   6.258981   6.647704
    44  H    2.413145   3.307319   5.012646   5.518016   6.019950
                   26         27         28         29         30
    26  H    0.000000
    27  H    2.587152   0.000000
    28  H    3.786297   1.746144   0.000000
    29  H    2.518765   2.459268   2.504441   0.000000
    30  H    3.791388   4.321997   3.769599   2.508305   0.000000
    31  H    4.348353   3.756210   2.564969   2.512763   1.760814
    32  H    5.088766   3.754816   3.902989   5.651712   6.191374
    33  H    6.257934   4.523783   3.637649   5.838977   5.935311
    34  H    5.788587   3.558394   2.474715   4.955080   5.653134
    35  H    7.551739   5.615776   5.220120   7.538746   8.095414
    36  H    7.957421   5.719636   4.885417   7.372642   7.959709
    37  H    8.184351   5.877828   5.699815   8.037496   9.223889
    38  H    7.086885   4.588580   4.230648   6.571156   7.914744
    39  H    6.578112   4.491785   5.031713   6.898167   8.516678
    40  H    6.691747   4.890627   5.310691   7.262475   8.436874
    41  C    4.265875   2.916926   4.121583   5.303427   6.833730
    42  H    3.286370   2.241033   3.762574   4.477815   6.158144
    43  H    4.993447   3.628640   4.883275   6.016787   7.758349
    44  H    4.544605   3.661658   4.808689   5.905068   7.145827
                   31         32         33         34         35
    31  H    0.000000
    32  H    5.460971   0.000000
    33  H    4.706491   2.421247   0.000000
    34  H    4.197041   3.045469   1.770370   0.000000
    35  H    6.901934   2.735840   2.397872   3.056422   0.000000
    36  H    6.493604   3.850237   2.449240   2.430645   1.769716
    37  H    7.910514   4.258746   4.246642   3.798946   2.469948
    38  H    6.525709   4.069088   3.773283   2.637038   3.071751
    39  H    7.513628   3.831158   4.904035   4.170082   3.758647
    40  H    7.512117   2.723312   4.103567   4.054318   2.603251
    41  C    6.305150   2.832829   4.757663   4.306972   4.580228
    42  H    5.808987   3.375455   5.160272   4.574703   5.404179
    43  H    7.199489   3.771968   5.606521   5.007303   5.091259
    44  H    6.756254   2.607375   4.881410   4.820525   4.587734
                   36         37         38         39         40
    36  H    0.000000
    37  H    2.504275   0.000000
    38  H    2.472981   1.772795   0.000000
    39  H    4.253270   2.452647   2.426340   0.000000
    40  H    3.778624   2.455096   3.064270   1.768900   0.000000
    41  C    5.412533   4.596389   4.138752   2.624767   2.702707
    42  H    6.074905   5.477557   4.744311   3.487747   3.755319
    43  H    5.878159   4.600132   4.264373   2.276975   2.827675
    44  H    5.723453   4.978355   4.825129   3.229880   2.721026
                   41         42         43         44
    41  C    0.000000
    42  H    1.084739   0.000000
    43  H    1.093085   1.721282   0.000000
    44  H    1.092368   1.779994   1.764116   0.000000
 Stoichiometry    C16H27N
 Framework group  C1[X(C16H27N)]
 Deg. of freedom   126
 Full point group                 C1
 Largest Abelian subgroup         C1      NOp   1
 Largest concise Abelian subgroup C1      NOp   1
                         Standard orientation:                         
 ---------------------------------------------------------------------
 Center     Atomic     Atomic              Coordinates (Angstroms)
 Number     Number      Type              X           Y           Z
 ---------------------------------------------------------------------
    1          6      10061003       -2.561703    1.002217   -0.904668
    2          6      10061003       -3.201551   -0.383052   -1.213934
    3          6      10061003       -2.557013   -1.448577   -0.280339
    4          6      10061003       -1.024224    0.929933   -1.165844
    5          6      10061003       -1.013230   -1.490858   -0.518523
    6          6      10061003       -0.297875   -0.104355   -0.209041
    7          6      10061003       -2.819022    1.389271    0.586141
    8          6      10061003       -0.649671    0.235092    1.290987
    9          6      10061003       -2.194722    0.305896    1.521211
   10          6      10061003       -2.835953   -1.081542    1.210192
   11          6      10061003        1.294107   -0.126184   -0.457443
   12          6      10061003        1.914874   -1.523597   -0.077032
   13          6      10061003        3.442247   -1.644877   -0.265055
   14          6      10061003        4.159565   -0.526368    0.504289
   15          7      10071003        2.132080    0.984481    0.186300
   16          6      10061003        3.624812    0.838286    0.032518
   17          1      10011000       -3.009233    1.757816   -1.557879
   18          1      10011000       -3.037111   -0.650981   -2.261836
   19          1      10011000       -4.282954   -0.343835   -1.053773
   20          1      10011000       -2.989942   -2.429519   -0.499291
   21          1      10011000       -0.647578    1.938813   -1.054747
   22          1      10011000       -0.849674    0.656222   -2.211144
   23          1      10011000       -0.816047   -1.792776   -1.551915
   24          1      10011000       -0.629500   -2.284174    0.127449
   25          1      10011000       -3.894359    1.468138    0.770769
   26          1      10011000       -2.381194    2.368267    0.801410
   27          1      10011000       -0.220621    1.187590    1.595944
   28          1      10011000       -0.223784   -0.520922    1.956494
   29          1      10011000       -2.395032    0.569278    2.564255
   30          1      10011000       -3.913757   -1.048451    1.394631
   31          1      10011000       -2.418279   -1.846101    1.871879
   32          1      10011000        1.443923   -0.037290   -1.538957
   33          1      10011000        1.492301   -2.310071   -0.705552
   34          1      10011000        1.678616   -1.754705    0.965096
   35          1      10011000        3.690859   -1.583920   -1.329119
   36          1      10011000        3.782967   -2.615682    0.105760
   37          1      10011000        5.235729   -0.587170    0.320276
   38          1      10011000        3.988291   -0.639931    1.578813
   39          1      10011000        4.148423    1.588885    0.633370
   40          1      10011000        3.910506    0.990871   -1.014290
   41          6      10061003        1.778343    2.405715   -0.144393
   42          1      10011000        0.855907    2.702246    0.343294
   43          1      10011000        2.519746    3.124102    0.214880
   44          1      10011000        1.683338    2.539934   -1.224313
 ---------------------------------------------------------------------
 Rotational constants (GHZ):      0.9592119      0.3108173      0.2799503
 1|1|UNPC-UNK|FOpt|Dreiding|ZDO|C16H27N1|PCUSER|13-Dec-2007|0||# opt dr
 eiding||2-(1-Ad)-N-Me-pip-trans||0,1|C,-2.5081734488,0.6563961253,-1.2
 961266785|C,-2.2670861839,2.1912380264,-1.396908447|C,-0.7345233688,2.
 4500289305,-1.4784589917|C,-1.8094726791,0.1078641265,-0.0122996124|C,
 -0.0348108743,1.866045451,-0.209148012|C,-0.23604734,0.2958222498,-0.0
 548585967|C,-1.9232076679,-0.0605430886,-2.5540404707|C,0.3309290542,-
 0.3423182306,-1.3816537055|C,-0.3905132074,0.2215816698,-2.649225725|C
 ,-0.1500523485,1.7594397158,-2.7495548925|C,0.4715207756,-0.323304004,
 1.2538112992|C,1.8290161033,0.4102277069,1.5731330202|C,2.5959803913,-
 0.1188148838,2.8039084551|C,2.8364326164,-1.6291195188,2.667303643|N,0
 .701738406,-1.8384879325,1.2911783253|C,1.4857617594,-2.3431983943,2.4
 760180188|H,-3.5842928819,0.4654917892,-1.2376392338|H,-2.6893814871,2
 .6992490608,-0.524831618|H,-2.7668380425,2.5947454343,-2.28237563|H,-0
 .5529840009,3.5277139282,-1.535496952|H,-2.1048540883,-0.9298567298,0.
 0767349799|H,-2.221465815,0.6151295013,0.8657548722|H,-0.411328578,2.3
 820645829,0.6796112393|H,1.0237980832,2.1193940803,-0.3042329223|H,-2.
 4265672245,0.2991899198,-3.4561925194|H,-2.1033542947,-1.1375807735,-2
 .4907583895|H,0.2175403729,-1.4246628359,-1.3842379336|H,1.4034535822,
 -0.145499832,-1.4640546617|H,0.0120767742,-0.264723944,-3.5430166743|H
 ,-0.6291242995,2.1579373471,-3.6487015599|H,0.9204699885,1.9683242871,
 -2.8342878747|H,-0.1803395728,-0.0899349827,2.1027139295|H,1.648501175
 2,1.4653478416,1.7882699266|H,2.4897045003,0.3464989876,0.7044039301|H
 ,2.0236978188,0.0865765345,3.7138880137|H,3.557792235,0.395019974,2.88
 72621818|H,3.3304694687,-2.0042718411,3.5677905291|H,3.4862660557,-1.8
 300715963,1.8104675398|H,1.7230613086,-3.4051783402,2.3556944304|H,0.8
 927103713,-2.2358414521,3.3911538442|C,-0.4948858339,-2.7300630883,1.1
 251119264|H,-0.8476223332,-2.7233653147,0.0993488088|H,-0.2752863606,-
 3.7808883813,1.3309692785|H,-1.3022321893,-2.4232637463,1.7939423093||
 Version=IA32W-G03RevD.01|HF=0.1080593|RMSD=0.000e+000|RMSF=2.787e-005|
 Thermal=0.|Dipole=0.,0.,0.|PG=C01 [X(C16H27N1)]||@


 Age does not diminish the extreme disappointment of
 having a scoop of ice cream fall from the cone.
 -- Jim Fiebig
 Job cpu time:  0 days  0 hours  0 minutes  3.0 seconds.
 File lengths (MBytes):  RWF=     11 Int=      0 D2E=      0 Chk=      4 Scr=      1
 Normal termination of Gaussian 03 at Thu Dec 13 16:23:40 2007.
