 Entering Link 1 = C:\G03W\l1.exe PID=      1232.
  
 Copyright (c) 1988,1990,1992,1993,1995,1998,2003,2004, Gaussian, Inc.
                  All Rights Reserved.
  
 This is the Gaussian(R) 03 program.  It is based on the
 the Gaussian(R) 98 system (copyright 1998, Gaussian, Inc.),
 the Gaussian(R) 94 system (copyright 1995, Gaussian, Inc.),
 the Gaussian 92(TM) system (copyright 1992, Gaussian, Inc.),
 the Gaussian 90(TM) system (copyright 1990, Gaussian, Inc.),
 the Gaussian 88(TM) system (copyright 1988, Gaussian, Inc.),
 the Gaussian 86(TM) system (copyright 1986, Carnegie Mellon
 University), and the Gaussian 82(TM) system (copyright 1983,
 Carnegie Mellon University). Gaussian is a federally registered
 trademark of Gaussian, Inc.
  
 This software contains proprietary and confidential information,
 including trade secrets, belonging to Gaussian, Inc.
  
 This software is provided under written license and may be
 used, copied, transmitted, or stored only in accord with that
 written license.
  
 The following legend is applicable only to US Government
 contracts under FAR:
  
                    RESTRICTED RIGHTS LEGEND
  
 Use, reproduction and disclosure by the US Government is
 subject to restrictions as set forth in subparagraphs (a)
 and (c) of the Commercial Computer Software - Restricted
 Rights clause in FAR 52.227-19.
  
 Gaussian, Inc.
 340 Quinnipiac St., Bldg. 40, Wallingford CT 06492
  
  
 ---------------------------------------------------------------
 Warning -- This program may not be used in any manner that
 competes with the business of Gaussian, Inc. or will provide
 assistance to any competitor of Gaussian, Inc.  The licensee
 of this program is prohibited from giving any competitor of
 Gaussian, Inc. access to this program.  By using this program,
 the user acknowledges that Gaussian, Inc. is engaged in the
 business of creating and licensing software in the field of
 computational chemistry and represents and warrants to the
 licensee that it is not a competitor of Gaussian, Inc. and that
 it will not use this program in any manner prohibited above.
 ---------------------------------------------------------------
  

 Cite this work as:
 Gaussian 03, Revision D.01,
 M. J. Frisch, G. W. Trucks, H. B. Schlegel, G. E. Scuseria, 
 M. A. Robb, J. R. Cheeseman, J. A. Montgomery, Jr., T. Vreven, 
 K. N. Kudin, J. C. Burant, J. M. Millam, S. S. Iyengar, J. Tomasi, 
 V. Barone, B. Mennucci, M. Cossi, G. Scalmani, N. Rega, 
 G. A. Petersson, H. Nakatsuji, M. Hada, M. Ehara, K. Toyota, 
 R. Fukuda, J. Hasegawa, M. Ishida, T. Nakajima, Y. Honda, O. Kitao, 
 H. Nakai, M. Klene, X. Li, J. E. Knox, H. P. Hratchian, J. B. Cross, 
 V. Bakken, C. Adamo, J. Jaramillo, R. Gomperts, R. E. Stratmann, 
 O. Yazyev, A. J. Austin, R. Cammi, C. Pomelli, J. W. Ochterski, 
 P. Y. Ayala, K. Morokuma, G. A. Voth, P. Salvador, J. J. Dannenberg, 
 V. G. Zakrzewski, S. Dapprich, A. D. Daniels, M. C. Strain, 
 O. Farkas, D. K. Malick, A. D. Rabuck, K. Raghavachari, 
 J. B. Foresman, J. V. Ortiz, Q. Cui, A. G. Baboul, S. Clifford, 
 J. Cioslowski, B. B. Stefanov, G. Liu, A. Liashenko, P. Piskorz, 
 I. Komaromi, R. L. Martin, D. J. Fox, T. Keith, M. A. Al-Laham, 
 C. Y. Peng, A. Nanayakkara, M. Challacombe, P. M. W. Gill, 
 B. Johnson, W. Chen, M. W. Wong, C. Gonzalez, and J. A. Pople, 
 Gaussian, Inc., Wallingford CT, 2004.
 
 ******************************************
 Gaussian 03:  IA32W-G03RevD.01 13-Oct-2005
                13-Dec-2007 
 ******************************************
 --------------
 # opt dreiding
 --------------
 1/6=10,10=10,14=-1,18=4000020,38=1,56=1,64=1/1,3;
 2/9=110,17=6,18=5,40=1/2;
 3/5=30,11=9,16=1,25=1,30=1/1;
 4/20=9,22=1001,24=3/2;
 7/44=-1/16;
 1/6=10,10=10,14=-1,18=4000020,64=1/3(2);
 2/9=110/2;
 99//99;
 2/9=110/2;
 3/5=30,11=9,16=1,25=1,30=1/1;
 4/16=2,20=9,22=1001,24=3/2;
 7/44=-1/16;
 1/6=10,10=10,14=-1,18=4000020,64=1/3(-4);
 2/9=110/2;
 99//99;
 ------------------------
 3,3-dime-N-me-pyrrol-nlp
 ------------------------
 Symbolic Z-matrix:
 Charge =  0 Multiplicity = 1
 C                     0.9548   -0.20256   0.31281 
 C                     0.1588   -1.44656  -0.14019 
 C                    -1.2152   -0.89956  -0.57019 
 C                     0.1358    0.94544  -0.30619 
 N                    -1.2232    0.48144  -0.13719 
 C                    -2.2312    1.30644  -0.76219 
 H                     0.0718   -2.20156   0.67581 
 H                     0.6538   -1.94856  -1.00519 
 C                     2.4068   -0.20556  -0.18719 
 C                     0.9388   -0.09256   1.85081 
 H                    -2.0622   -1.45056  -0.09719 
 H                    -1.3192   -0.95956  -1.68019 
 H                     0.3708    1.06344  -1.39119 
 H                     0.2978    1.91844   0.21181 
 H                    -2.0802    1.37244  -1.86519 
 H                    -3.2412    0.88444  -0.55719 
 H                    -2.1952    2.33244  -0.33119 
 H                     2.4578   -0.27656  -1.29819 
 H                     2.9698   -1.07056   0.23181 
 H                     2.9338    0.72844   0.11281 
 H                     1.4798   -0.94656   2.31981 
 H                    -0.1002   -0.09056   2.25481 
 H                     1.4338    0.84444   2.19281 
 
 Include all MM classes
 MMInit generated parameter data with length LenPar=  2592.

 GradGradGradGradGradGradGradGradGradGradGradGradGradGradGradGradGradGrad
 Berny optimization.
 Initialization pass.
 No Z-matrix variables, so optimization will use Cartesian coordinates.
 Trust Radius=1.00D-01 FncErr=1.00D-07 GrdErr=1.00D-07
 Number of steps in this run=   2 maximum allowed number of steps=   2.
 GradGradGradGradGradGradGradGradGradGradGradGradGradGradGradGradGradGrad

                          Input orientation:                          
 ---------------------------------------------------------------------
 Center     Atomic     Atomic              Coordinates (Angstroms)
 Number     Number      Type              X           Y           Z
 ---------------------------------------------------------------------
    1          6      10061003        0.954797   -0.202563    0.312813
    2          6      10061003        0.158797   -1.446563   -0.140188
    3          6      10061003       -1.215203   -0.899563   -0.570188
    4          6      10061003        0.135797    0.945438   -0.306188
    5          7      10071003       -1.223203    0.481438   -0.137188
    6          6      10061003       -2.231203    1.306438   -0.762188
    7          1      10011000        0.071797   -2.201563    0.675813
    8          1      10011000        0.653797   -1.948563   -1.005188
    9          6      10061003        2.406797   -0.205563   -0.187188
   10          6      10061003        0.938797   -0.092563    1.850813
   11          1      10011000       -2.062203   -1.450563   -0.097188
   12          1      10011000       -1.319203   -0.959563   -1.680188
   13          1      10011000        0.370797    1.063438   -1.391188
   14          1      10011000        0.297797    1.918438    0.211813
   15          1      10011000       -2.080203    1.372438   -1.865188
   16          1      10011000       -3.241203    0.884438   -0.557188
   17          1      10011000       -2.195203    2.332438   -0.331188
   18          1      10011000        2.457797   -0.276563   -1.298188
   19          1      10011000        2.969797   -1.070563    0.231813
   20          1      10011000        2.933797    0.728438    0.112813
   21          1      10011000        1.479797   -0.946563    2.319813
   22          1      10011000       -0.100203   -0.090563    2.254812
   23          1      10011000        1.433797    0.844438    2.192813
 ---------------------------------------------------------------------
                    Distance matrix (angstroms):
                    1          2          3          4          5
     1  C    0.000000
     2  C    1.544785   0.000000
     3  C    2.444258   1.540125   0.000000
     4  C    1.540073   2.397863   2.301939   0.000000
     5  N    2.326809   2.372155   1.447313   1.445938   0.000000
     6  C    3.685553   3.698377   2.436300   2.437406   1.444754
     7  H    2.215279   1.115101   2.214518   3.297276   3.088120
     8  H    2.208221   1.115909   2.186958   3.021947   3.190839
     9  C    1.535680   2.568228   3.707723   2.548804   3.694776
    10  C    1.542012   2.530968   3.339492   2.524857   2.992635
    11  H    3.290576   2.221420   1.115679   3.258174   2.106691
    12  H    3.117078   2.189350   1.116475   2.762956   2.113420
    13  H    2.201688   2.812480   2.653829   1.116411   2.109994
    14  H    2.222722   3.386215   3.292691   1.114135   2.121370
    15  H    4.054076   3.991930   2.754493   2.742894   2.124692
    16  H    4.420960   4.143362   2.699537   3.386864   2.100270
    17  H    4.094321   4.456303   3.385756   2.712555   2.099672
    18  H    2.204497   2.827590   3.795924   2.805180   3.933478
    19  H    2.195498   2.860329   4.264583   3.519269   4.486214
    20  H    2.196179   3.534863   4.508999   2.837508   4.171829
    21  H    2.203908   2.836660   3.951877   3.504551   3.922020
    22  H    2.212901   2.764388   3.142981   2.772673   2.703697
    23  H    2.204552   3.509586   4.206294   2.817802   3.552509
                    6          7          8          9         10
     6  C    0.000000
     7  H    4.435957   0.000000
     8  H    4.356294   1.796801   0.000000
     9  C    4.912007   3.190769   2.603878   0.000000
    10  C    4.339801   2.565189   3.417996   2.514207   0.000000
    11  H    2.841097   2.390708   2.906738   4.640052   3.826861
    12  H    2.609449   3.004693   2.307916   4.084194   4.279978
    13  H    2.687953   3.875837   3.049792   2.684264   3.488484
    14  H    2.778320   4.152201   4.069584   3.019678   2.672325
    15  H    1.115243   4.884799   4.386730   5.043703   5.006919
    16  H    1.113647   4.692510   4.837108   5.764105   4.921930
    17  H    1.113433   5.168220   5.186332   5.257431   4.523683
    18  H    4.977942   3.646272   2.477065   1.114434   3.501060
    19  H    5.804185   3.142404   2.768557   1.113892   2.775357
    20  H    5.270383   4.134358   3.689804   1.113591   2.770327
    21  H    5.324120   2.502044   3.569581   2.773709   1.114432
    22  H    3.949058   2.641807   3.827307   3.501662   1.114783
    23  H    4.730507   3.665303   4.316996   2.777342   1.113534
                   11         12         13         14         15
    11  H    0.000000
    12  H    1.816320   0.000000
    13  H    3.730164   2.651820   0.000000
    14  H    4.124954   3.804896   1.818231   0.000000
    15  H    3.330987   2.459994   2.515464   3.204205   0.000000
    16  H    2.655912   2.890597   3.711353   3.766303   1.815745
    17  H    3.792563   3.663938   3.052592   2.584820   1.813279
    18  H    4.821937   3.857219   2.481898   3.429829   4.861495
    19  H    5.057041   4.697189   3.734017   4.009252   5.989003
    20  H    5.454554   4.914489   2.990520   2.893855   5.428390
    21  H    4.317600   4.882066   4.363657   3.748201   5.963689
    22  H    3.351261   4.210148   3.853164   2.892807   4.799497
    23  H    4.767928   5.082672   3.744728   2.523556   5.393917
                   16         17         18         19         20
    16  H    0.000000
    17  H    1.800527   0.000000
    18  H    5.863071   5.421474   0.000000
    19  H    6.559045   6.210846   1.798188   0.000000
    20  H    6.213201   5.392272   1.796531   1.803291   0.000000
    21  H    5.823876   5.593323   3.807270   2.568116   3.128992
    22  H    4.327106   4.116716   4.381982   3.804974   3.803167
    23  H    5.423995   4.664157   3.806875   3.141981   2.567071
                   21         22         23
    21  H    0.000000
    22  H    1.798155   0.000000
    23  H    1.796086   1.797561   0.000000
 Stoichiometry    C7H15N
 Framework group  C1[X(C7H15N)]
 Deg. of freedom    63
 Full point group                 C1
 Largest Abelian subgroup         C1      NOp   1
 Largest concise Abelian subgroup C1      NOp   1
                         Standard orientation:                         
 ---------------------------------------------------------------------
 Center     Atomic     Atomic              Coordinates (Angstroms)
 Number     Number      Type              X           Y           Z
 ---------------------------------------------------------------------
    1          6      10061003       -1.021858   -0.076781   -0.020782
    2          6      10061003       -0.495763    1.375327    0.010296
    3          6      10061003        1.038165    1.238011    0.024198
    4          6      10061003        0.228359   -0.861760   -0.459636
    5          7      10071003        1.288321   -0.171023    0.240436
    6          6      10061003        2.624599   -0.607247   -0.093303
    7          1      10011000       -0.873919    1.933248    0.898650
    8          1      10011000       -0.816941    1.939671   -0.897236
    9          6      10061003       -2.191779   -0.269425   -0.996736
   10          6      10061003       -1.451629   -0.516601    1.393310
   11          1      10011000        1.514037    1.836999    0.836294
   12          1      10011000        1.458930    1.561280   -0.958131
   13          1      10011000        0.380974   -0.784872   -1.562891
   14          1      10011000        0.186162   -1.936635   -0.169530
   15          1      10011000        2.845148   -0.459191   -1.176448
   16          1      10011000        3.366838   -0.037870    0.510934
   17          1      10011000        2.738512   -1.686951    0.153671
   18          1      10011000       -1.914966    0.031928   -2.033329
   19          1      10011000       -3.069868    0.343859   -0.690801
   20          1      10011000       -2.510022   -1.335984   -1.032206
   21          1      10011000       -2.322091    0.079833    1.751808
   22          1      10011000       -0.628769   -0.388781    2.134460
   23          1      10011000       -1.752844   -1.588525    1.407622
 ---------------------------------------------------------------------
 Rotational constants (GHZ):      3.4616001      1.4818056      1.3881857
 Standard basis: Dummy (5D, 7F)
 There are    23 symmetry adapted basis functions of A   symmetry.
 Integral buffers will be    262144 words long.
 Raffenetti 1 integral format.
 Two-electron integral symmetry is turned on.
    23 basis functions,    23 primitive gaussians,    23 cartesian basis functions
    15 alpha electrons       15 beta electrons
       nuclear repulsion energy        86.6880193255 Hartrees.
 NAtoms=   23 NActive=   23 NUniq=   23 SFac= 7.50D-01 NAtFMM=   80 NAOKFM=F Big=F
 Dreiding calculation of energy and first derivatives.
 MO and density RWFs will be updated without deorthogonalization.
 NRF= 0 NRA=   0 NVA=  23 HaveQM=F
 Convergence limit is  0.750E-04 MaxStp=  5000 StMxLn= 1.00D-04 StpMin= 1.00D-06.
 Convergence criteria           0.00011250 0.00007500 0.00045000 0.00030000
  Step  NS  ND Rises OKQ   Scale  Max. Force  RMS Force Max. Disp.  RMS Disp.     Energy   Flag
     1   0   0   F    T  1.00D+00 0.03573813 0.01119261 0.03573813 0.01119261    0.0471184 ----
     2   0   0   F    F  3.36D-01 0.03573813 0.01119261 0.03573813 0.01119261    0.0417275 ----
     3   0   0   F    T  4.84D+00 0.01128036 0.00298194 0.01094970 0.00308596    0.0413660 ----
     4   0   0   T    F  4.25D-01 0.01128036 0.00298194 0.05304695 0.01495023    0.0418961 ----
     5   0   0   F    T  1.99D+00 0.00745625 0.00244098 0.00780736 0.00319845    0.0407340 ----
     6   0   0   F    F  8.47D-01 0.00745625 0.00244098 0.01550442 0.00635172    0.0401385 ----
     7   0   0   F    T  4.55D+00 0.00454198 0.00183425 0.00753706 0.00257986    0.0399800 ----
     8   0   0   F    F -1.34D-02 0.00454198 0.00183425 0.03427277 0.01173123    0.0394598 ----
     9   0   0   F    T  3.84D+00 0.00642936 0.00177850 0.00835451 0.00301458    0.0394597 ----
    10   0   0   F    F -4.08D-01 0.00642936 0.00177850 0.03207561 0.01157393    0.0393297 ----
    11   0   0   F    T  3.55D+00 0.00490384 0.00123980 0.00536346 0.00192699    0.0392120 ----
    12   0   0   F    F -1.03D-02 0.00490384 0.00123980 0.01906131 0.00684839    0.0390255 ----
    13   0   0   F    T  5.58D+00 0.00264394 0.00083635 0.00380795 0.00121488    0.0390254 ----
    14   0   0   T    F  3.59D-01 0.00264394 0.00083635 0.02124561 0.00677815    0.0391316 ----
    15   0   0   F    T  2.54D+00 0.00187591 0.00064072 0.00330369 0.00095840    0.0389771 ----
    16   0   0   F    F  1.74D+00 0.00187591 0.00064072 0.00838769 0.00243326    0.0389184 ----
    17   0   0   F    T  5.05D+00 0.00249020 0.00069329 0.00473302 0.00131897    0.0388789 ----
    18   0   0   T    F  4.19D-01 0.00249020 0.00069329 0.02390242 0.00666100    0.0389111 ----
    19   0   0   F    T  2.94D+00 0.00146019 0.00053345 0.00338802 0.00095050    0.0388438 ----
    20   0   0   F    F  8.32D-01 0.00146019 0.00053345 0.00995507 0.00279287    0.0388019 ----
    21   0   0   F    T  7.10D+00 0.00154748 0.00041745 0.00183175 0.00072030    0.0387910 ----
    22   0   0   T    F  3.92D-01 0.00154748 0.00041745 0.01301258 0.00511695    0.0388145 ----
    23   0   0   F    T  3.13D+00 0.00116762 0.00035879 0.00193863 0.00064209    0.0387743 ----
    24   0   0   F    F  1.48D-01 0.00116762 0.00035879 0.00606020 0.00200718    0.0387586 ----
    25   0   0   F    T  3.64D+00 0.00103773 0.00032892 0.00206894 0.00063252    0.0387583 ----
    26   0   0   F    F  4.19D-01 0.00103773 0.00032892 0.00753626 0.00230401    0.0387407 ----
    27   0   0   F    T  2.19D+00 0.00135476 0.00049123 0.00477518 0.00149443    0.0387391 ----
    28   0   0   F    F  8.19D-01 0.00135476 0.00049123 0.01044664 0.00326937    0.0387127 ----
    29   0   0   F    T  7.68D+00 0.00096339 0.00033418 0.00226355 0.00077417    0.0387060 ----
    30   0   0   T    F  3.76D-01 0.00096339 0.00033418 0.01738506 0.00594598    0.0387255 ----
    31   0   0   F    T  2.63D+00 0.00099159 0.00033548 0.00217352 0.00085002    0.0386949 ----
    32   0   0   F    F  9.16D-01 0.00099159 0.00033548 0.00571025 0.00223315    0.0386798 ----
    33   0   0   F    T  4.26D+00 0.00124739 0.00035246 0.00240593 0.00100444    0.0386753 ----
    34   0   0   F    F -2.29D-01 0.00124739 0.00035246 0.01024907 0.00427882    0.0386625 ----
    35   0   0   F    T  3.13D+00 0.00117646 0.00035073 0.00230255 0.00105534    0.0386612 ----
    36   0   0   F    F  7.35D-02 0.00117646 0.00035073 0.00719821 0.00329920    0.0386471 ----
    37   0   0   F    T  3.18D+00 0.00077481 0.00035113 0.00260486 0.00111246    0.0386470 ----
    38   0   0   F    F  7.26D-01 0.00077481 0.00035113 0.00829332 0.00354183    0.0386277 ----
    39   0   0   F    T  3.40D+00 0.00133931 0.00044006 0.00462644 0.00179854    0.0386236 ----
    40   0   0   F    F -1.29D-01 0.00133931 0.00044006 0.01572798 0.00611429    0.0386043 ----
    41   0   0   F    T  3.68D+00 0.00113795 0.00038770 0.00405051 0.00144720    0.0386038 ----
    42   0   0   F    F  5.87D-02 0.00113795 0.00038770 0.01489816 0.00532294    0.0385837 ----
    43   0   0   F    T  4.60D+00 0.00086494 0.00034827 0.00362600 0.00122523    0.0385837 ----
    44   0   0   F    F -2.95D-01 0.00086494 0.00034827 0.01667799 0.00563550    0.0385725 ----
    45   0   0   F    T  2.84D+00 0.00092764 0.00036494 0.00386557 0.00139935    0.0385701 ----
    46   0   0   F    F  4.06D-01 0.00092764 0.00036494 0.01098273 0.00397578    0.0385533 ----
    47   0   0   F    T  5.82D+00 0.00071360 0.00029488 0.00237600 0.00096110    0.0385517 ----
    48   0   0   F    F -3.32D-01 0.00071360 0.00029488 0.01382418 0.00559191    0.0385430 ----
    49   0   0   F    T  3.46D+00 0.00123456 0.00030653 0.00246974 0.00107771    0.0385401 ----
    50   0   0   F    F -1.69D-01 0.00123456 0.00030653 0.00855449 0.00373288    0.0385311 ----
    51   0   0   F    T  5.33D+00 0.00074489 0.00021786 0.00133209 0.00058256    0.0385307 ----
    52   0   0   F    F -2.31D-01 0.00074489 0.00021786 0.00709674 0.00310359    0.0385246 ----
    53   0   0   F    T  3.23D+00 0.00088082 0.00023870 0.00182004 0.00073902    0.0385240 ----
    54   0   0   F    F -3.59D-01 0.00088082 0.00023870 0.00588107 0.00238800    0.0385212 ----
    55   0   0   F    T  5.03D+00 0.00040448 0.00014374 0.00076995 0.00030465    0.0385199 ----
    56   0   0   F    F  2.31D+00 0.00040448 0.00014374 0.00387066 0.00153154    0.0385139 ----
    57   0   0   F    T  7.17D+00 0.00061079 0.00021340 0.00187674 0.00070623    0.0385081 ----
    58   0   0   T    F  3.53D-01 0.00061079 0.00021340 0.01345865 0.00506456    0.0385175 ----
    59   0   0   F    T  2.88D+00 0.00047951 0.00019508 0.00186690 0.00062105    0.0385041 ----
    60   0   0   F    F  8.65D-01 0.00047951 0.00019508 0.00537647 0.00178856    0.0384986 ----
    61   0   0   F    T  4.96D+00 0.00073626 0.00019846 0.00212696 0.00067242    0.0384971 ----
    62   0   0   T    F  4.49D-01 0.00073626 0.00019846 0.01055323 0.00333630    0.0384986 ----
    63   0   0   F    T  3.20D+00 0.00043758 0.00016057 0.00145517 0.00046825    0.0384940 ----
    64   0   0   F    F  9.63D-02 0.00043758 0.00016057 0.00466019 0.00149959    0.0384909 ----
    65   0   0   F    T  7.05D+00 0.00030240 0.00010694 0.00082182 0.00023331    0.0384909 ---+
    66   0   0   F    F -4.42D-01 0.00030240 0.00010694 0.00579075 0.00164396    0.0384903 ----
    67   0   0   F    T  3.59D+00 0.00034774 0.00010668 0.00084526 0.00025550    0.0384893 ---+
    68   0   0   F    F -2.21D-01 0.00034774 0.00010668 0.00303237 0.00091659    0.0384883 ----
    69   0   0   F    T  3.11D+00 0.00032575 0.00009633 0.00069833 0.00022962    0.0384883 ---+
    70   0   0   F    F  8.17D-01 0.00032575 0.00009633 0.00217042 0.00071364    0.0384868 ----
    71   0   0   F    T  3.10D+00 0.00049841 0.00012689 0.00124064 0.00041832    0.0384864 ----
    72   0   0   F    F -3.70D-02 0.00049841 0.00012689 0.00384521 0.00129653    0.0384848 ----
    73   0   0   F    T  5.19D+00 0.00028458 0.00009252 0.00080118 0.00024079    0.0384848 ---+
    74   0   0   F    F  1.02D-01 0.00028458 0.00009252 0.00415458 0.00124862    0.0384831 ----
    75   0   0   F    T  2.22D+00 0.00045520 0.00014644 0.00202234 0.00062039    0.0384831 ----
    76   0   0   F    F  4.76D-01 0.00045520 0.00014644 0.00448378 0.00137548    0.0384809 ----
    77   0   0   F    T  5.56D+00 0.00035449 0.00010963 0.00127940 0.00036520    0.0384807 ----
    78   0   0   F    F -8.57D-02 0.00035449 0.00010963 0.00711259 0.00203026    0.0384786 ----
    79   0   0   F    T  3.22D+00 0.00042874 0.00013577 0.00193531 0.00057647    0.0384786 ----
    80   0   0   F    F  6.25D-01 0.00042874 0.00013577 0.00623180 0.00185628    0.0384757 ----
    81   0   0   F    T  2.62D+00 0.00060910 0.00019033 0.00388562 0.00114929    0.0384752 ----
    82   0   0   F    F  1.13D-01 0.00060910 0.00019033 0.01019884 0.00301662    0.0384716 ----
    83   0   0   F    T  5.42D+00 0.00044644 0.00013744 0.00191934 0.00062013    0.0384716 ----
    84   0   0   F    F  1.22D-01 0.00044644 0.00013744 0.01039504 0.00335859    0.0384677 ----
    85   0   0   F    T  1.96D+00 0.00064061 0.00024134 0.00607723 0.00192756    0.0384676 ----
    86   0   0   F    F  1.47D+00 0.00064061 0.00024134 0.01188537 0.00376977    0.0384613 ----
    87   0   0   F    T  3.98D+00 0.00094538 0.00026897 0.00718650 0.00234100    0.0384578 ----
    88   0   0   F    F  8.26D-01 0.00094538 0.00026897 0.02858530 0.00931164    0.0384430 ----
    89   0   0   F    F -1.09D-02 0.00094538 0.00026897 0.02361519 0.00769263    0.0384391 ----
    90   0   0   F    T  3.81D+00 0.00111295 0.00038754 0.01402856 0.00444664    0.0384391 ----
    91   0   0   F    F -4.04D-01 0.00111295 0.00038754 0.05338128 0.01692029    0.0384328 ----
    92   0   0   F    T  4.24D+00 0.00080472 0.00030381 0.00780111 0.00237761    0.0384272 ----
    93   0   0   F    F  6.28D-02 0.00080472 0.00030381 0.03311096 0.01009150    0.0384132 ----
    94   0   0   F    T  5.36D+00 0.00085211 0.00027011 0.00645257 0.00200168    0.0384132 ----
    95   0   0   T    F  4.30D-01 0.00085211 0.00027011 0.03457355 0.01072523    0.0384174 ----
    96   0   0   F    T  3.58D+00 0.00063941 0.00020941 0.00382402 0.00128882    0.0384074 ----
    97   0   0   F    F  4.89D-01 0.00063941 0.00020941 0.01367362 0.00460846    0.0384002 ----
    98   0   0   F    T  4.05D+00 0.00061267 0.00023763 0.00481537 0.00169312    0.0383993 ----
    99   0   0   F    F -4.76D-01 0.00061267 0.00023763 0.01951944 0.00686316    0.0383986 ----
   100   0   0   F    T  5.89D+00 0.00030092 0.00014256 0.00178900 0.00061064    0.0383952 ----
   101   0   0   F    F -2.17D-01 0.00030092 0.00014256 0.01054305 0.00359869    0.0383922 ----
   102   0   0   F    T  4.27D+00 0.00047548 0.00014645 0.00205289 0.00066010    0.0383919 ----
   103   0   0   F    F -3.74D-01 0.00047548 0.00014645 0.00876008 0.00281679    0.0383907 ----
   104   0   0   F    T  4.00D+00 0.00036660 0.00011728 0.00127924 0.00044038    0.0383900 ----
   105   0   0   F    F  1.32D-01 0.00036660 0.00011728 0.00511808 0.00176192    0.0383878 ----
   106   0   0   F    T  5.09D+00 0.00025544 0.00010830 0.00124590 0.00039156    0.0383878 ----
   107   0   0   F    F -2.60D-01 0.00025544 0.00010830 0.00634713 0.00199476    0.0383865 ----
   108   0   0   F    T  2.58D+00 0.00040885 0.00012918 0.00180759 0.00057174    0.0383863 ----
   109   0   0   F    F  4.48D-01 0.00040885 0.00012918 0.00466606 0.00147588    0.0383843 ----
   110   0   0   F    T  4.42D+00 0.00048932 0.00011718 0.00143230 0.00048335    0.0383841 ----
   111   0   0   F    F -3.83D-01 0.00048932 0.00011718 0.00633362 0.00213738    0.0383833 ----
   112   0   0   F    T  3.89D+00 0.00025811 0.00009624 0.00107952 0.00033909    0.0383828 ----
   113   0   0   F    F -8.16D-02 0.00025811 0.00009624 0.00420158 0.00131978    0.0383817 ----
   114   0   0   F    T  4.37D+00 0.00020182 0.00008500 0.00087780 0.00027749    0.0383817 ---+
   115   0   0   F    F  3.74D-01 0.00020182 0.00008500 0.00383426 0.00121207    0.0383803 ----
   116   0   0   F    T  2.52D+00 0.00043369 0.00012978 0.00176921 0.00066049    0.0383802 ----
   117   0   0   F    F  4.00D-01 0.00043369 0.00012978 0.00446201 0.00166579    0.0383783 ----
   118   0   0   F    T  4.19D+00 0.00039013 0.00011754 0.00150099 0.00055665    0.0383781 ----
   119   0   0   F    F -3.12D-01 0.00039013 0.00011754 0.00628658 0.00233142    0.0383771 ----
   120   0   0   F    T  7.83D+00 0.00019952 0.00006939 0.00059479 0.00020490    0.0383768 -+-+
   121   0   0   T    F  4.56D-01 0.00019952 0.00006939 0.00465799 0.00160461    0.0383770 -+--
   122   0   0   F    T  2.11D+00 0.00025477 0.00008872 0.00084622 0.00034632    0.0383762 ----
   123   0   0   F    F  2.22D+00 0.00025477 0.00008872 0.00178890 0.00073212    0.0383752 ----
   124   0   0   F    T  5.84D+00 0.00028747 0.00009435 0.00106971 0.00040337    0.0383743 ----
   125   0   0   T    F  4.40D-01 0.00028747 0.00009435 0.00624380 0.00235441    0.0383748 ----
   126   0   0   F    T  2.43D+00 0.00025621 0.00009568 0.00115652 0.00042600    0.0383735 ----
   127   0   0   F    F  1.34D+00 0.00025621 0.00009568 0.00281473 0.00103679    0.0383723 ----
   128   0   0   F    T  7.22D+00 0.00030103 0.00008365 0.00096202 0.00033608    0.0383717 ----
   129   0   0   T    F  3.56D-01 0.00030103 0.00008365 0.00694788 0.00242727    0.0383732 ----
   130   0   0   F    T  3.47D+00 0.00021606 0.00007052 0.00073764 0.00024930    0.0383711 -+-+
   131   0   0   F    F  5.41D-02 0.00021606 0.00007052 0.00255621 0.00086392    0.0383705 -+--
   132   0   0   F    T  3.89D+00 0.00020376 0.00006695 0.00071098 0.00023429    0.0383705 -+-+
   133   0   0   F    F -1.83D-01 0.00020376 0.00006695 0.00276354 0.00091065    0.0383700 -+--
   134   0   0   F    T  3.88D+00 0.00020123 0.00005912 0.00058009 0.00019172    0.0383700 -+-+
   135   0   0   F    F -2.50D-01 0.00020123 0.00005912 0.00225240 0.00074441    0.0383697 -+--
   136   0   0   F    T  7.26D+00 0.00010387 0.00003525 0.00024530 0.00007682    0.0383697 ====
 Energy=    0.038369652464 NIter=   0.
 Dipole moment=       0.000000       0.000000       0.000000
 ***** Axes restored to original set *****
 -------------------------------------------------------------------
 Center     Atomic                   Forces (Hartrees/Bohr)
 Number     Number              X              Y              Z
 -------------------------------------------------------------------
    1          6          -0.000002619    0.000112853   -0.000013982
    2          6          -0.000016781   -0.000001579    0.000037108
    3          6           0.000058726   -0.000007096    0.000024610
    4          6          -0.000058155    0.000053752   -0.000002832
    5          7           0.000009833   -0.000057136    0.000020842
    6          6           0.000015030    0.000029864   -0.000074613
    7          1           0.000029203    0.000057648   -0.000052962
    8          1          -0.000019926   -0.000022982   -0.000004939
    9          6          -0.000057383    0.000003637    0.000023075
   10          6           0.000051987   -0.000012711    0.000001725
   11          1          -0.000053024   -0.000019426    0.000026078
   12          1           0.000022110    0.000017529   -0.000005350
   13          1           0.000000461   -0.000042138    0.000011361
   14          1           0.000011268   -0.000055124    0.000005549
   15          1           0.000043584   -0.000016649   -0.000021788
   16          1          -0.000067718    0.000041149   -0.000007495
   17          1          -0.000022750    0.000001453   -0.000009240
   18          1          -0.000005902   -0.000025772    0.000014666
   19          1           0.000001763    0.000029352   -0.000038299
   20          1           0.000009804   -0.000015943   -0.000006055
   21          1          -0.000008334   -0.000048499    0.000017885
   22          1           0.000013586   -0.000065410    0.000024424
   23          1           0.000045238    0.000043231    0.000030230
 -------------------------------------------------------------------
 Cartesian Forces:  Max     0.000112853 RMS     0.000035253

 GradGradGradGradGradGradGradGradGradGradGradGradGradGradGradGradGradGrad
 Berny optimization.
 Search for a local minimum.
 Step number   1 out of a maximum of   2
 All quantities printed in internal units (Hartrees-Bohrs-Radians)
 Second derivative matrix not updated -- unit matrix used.
 RFO step:  Lambda=-8.57494583D-08.
 Linear search not attempted -- first point.
 TrRot=  0.000000  0.000000  0.000000  0.000000  0.000000  0.000000
 Variable       Old X    -DE/DX   Delta X   Delta X   Delta X     New X
                                 (Linear)    (Quad)   (Total)
    X1        1.83362   0.00000   0.00000   0.00000   0.00000   1.83361
    Y1       -0.37953   0.00011   0.00000   0.00011   0.00011  -0.37942
    Z1        0.60781  -0.00001   0.00000  -0.00001  -0.00001   0.60779
    X2        0.33617  -0.00002   0.00000  -0.00002  -0.00002   0.33615
    Y2       -2.70831   0.00000   0.00000   0.00000   0.00000  -2.70831
    Z2       -0.38811   0.00004   0.00000   0.00004   0.00004  -0.38808
    X3       -2.38655   0.00006   0.00000   0.00006   0.00006  -2.38649
    Y3       -1.75735  -0.00001   0.00000  -0.00001  -0.00001  -1.75736
    Z3       -0.85842   0.00002   0.00000   0.00002   0.00002  -0.85840
    X4        0.28547  -0.00006   0.00000  -0.00006  -0.00006   0.28541
    Y4        1.83461   0.00005   0.00000   0.00005   0.00005   1.83466
    Z4       -0.53783   0.00000   0.00000   0.00000   0.00000  -0.53783
    X5       -2.36738   0.00001   0.00000   0.00001   0.00001  -2.36737
    Y5        0.98989  -0.00006   0.00000  -0.00006  -0.00006   0.98983
    Z5       -0.31830   0.00002   0.00000   0.00002   0.00002  -0.31828
    X6       -4.27683   0.00002   0.00000   0.00002   0.00002  -4.27681
    Y6        2.54230   0.00003   0.00000   0.00003   0.00003   2.54233
    Z6       -1.66246  -0.00007   0.00000  -0.00007  -0.00007  -1.66253
    X7        0.35821   0.00003   0.00000   0.00003   0.00003   0.35823
    Y7       -4.28647   0.00006   0.00000   0.00006   0.00006  -4.28642
    Z7        0.94713  -0.00005   0.00000  -0.00005  -0.00005   0.94708
    X8        1.12568  -0.00002   0.00000  -0.00002  -0.00002   1.12566
    Y8       -3.38797  -0.00002   0.00000  -0.00002  -0.00002  -3.38800
    Z8       -2.17524   0.00000   0.00000   0.00000   0.00000  -2.17524
    X9        4.63140  -0.00006   0.00000  -0.00006  -0.00006   4.63135
    Y9       -0.35507   0.00000   0.00000   0.00000   0.00000  -0.35506
    Z9       -0.32332   0.00002   0.00000   0.00002   0.00002  -0.32329
   X10        1.78639   0.00005   0.00000   0.00005   0.00005   1.78644
   Y10       -0.27146  -0.00001   0.00000  -0.00001  -0.00001  -0.27147
   Z10        3.56328   0.00000   0.00000   0.00000   0.00000   3.56328
   X11       -3.71760  -0.00005   0.00000  -0.00005  -0.00005  -3.71766
   Y11       -2.68590  -0.00002   0.00000  -0.00002  -0.00002  -2.68592
   Z11        0.41774   0.00003   0.00000   0.00003   0.00003   0.41776
   X12       -2.94865   0.00002   0.00000   0.00002   0.00002  -2.94863
   Y12       -2.15711   0.00002   0.00000   0.00002   0.00002  -2.15709
   Z12       -2.80962  -0.00001   0.00000  -0.00001  -0.00001  -2.80963
   X13        0.78027   0.00000   0.00000   0.00000   0.00000   0.78027
   Y13        2.13988  -0.00004   0.00000  -0.00004  -0.00004   2.13984
   Z13       -2.52655   0.00001   0.00000   0.00001   0.00001  -2.52653
   X14        0.58298   0.00001   0.00000   0.00001   0.00001   0.58300
   Y14        3.60224  -0.00006   0.00000  -0.00006  -0.00006   3.60219
   Z14        0.49019   0.00001   0.00000   0.00001   0.00001   0.49020
   X15       -3.96120   0.00004   0.00000   0.00004   0.00004  -3.96116
   Y15        2.51415  -0.00002   0.00000  -0.00002  -0.00002   2.51413
   Z15       -3.70242  -0.00002   0.00000  -0.00002  -0.00002  -3.70244
   X16       -6.16819  -0.00007   0.00000  -0.00007  -0.00007  -6.16825
   Y16        1.81922   0.00004   0.00000   0.00004   0.00004   1.81926
   Z16       -1.26997  -0.00001   0.00000  -0.00001  -0.00001  -1.26998
   X17       -4.18731  -0.00002   0.00000  -0.00002  -0.00002  -4.18733
   Y17        4.49389   0.00000   0.00000   0.00000   0.00000   4.49389
   Z17       -1.00078  -0.00001   0.00000  -0.00001  -0.00001  -1.00079
   X18        4.72932  -0.00001   0.00000  -0.00001  -0.00001   4.72931
   Y18       -0.41031  -0.00003   0.00000  -0.00003  -0.00003  -0.41034
   Z18       -2.38437   0.00001   0.00000   0.00001   0.00001  -2.38435
   X19        5.64938   0.00000   0.00000   0.00000   0.00000   5.64938
   Y19       -1.99346   0.00003   0.00000   0.00003   0.00003  -1.99343
   Z19        0.41143  -0.00004   0.00000  -0.00004  -0.00004   0.41140
   X20        5.59244   0.00001   0.00000   0.00001   0.00001   5.59245
   Y20        1.35567  -0.00002   0.00000  -0.00002  -0.00002   1.35565
   Z20        0.31731  -0.00001   0.00000  -0.00001  -0.00001   0.31730
   X21        2.78360  -0.00001   0.00000  -0.00001  -0.00001   2.78359
   Y21       -1.89187  -0.00005   0.00000  -0.00005  -0.00005  -1.89191
   Z21        4.36339   0.00002   0.00000   0.00002   0.00002   4.36341
   X22       -0.14807   0.00001   0.00000   0.00001   0.00001  -0.14805
   Y22       -0.29240  -0.00007   0.00000  -0.00007  -0.00007  -0.29246
   Z22        4.28327   0.00002   0.00000   0.00002   0.00002   4.28330
   X23        2.70346   0.00005   0.00000   0.00005   0.00005   2.70351
   Y23        1.44799   0.00004   0.00000   0.00004   0.00004   1.44804
   Z23        4.24343   0.00003   0.00000   0.00003   0.00003   4.24346
         Item               Value     Threshold  Converged?
 Maximum Force            0.000113     0.000450     YES
 RMS     Force            0.000035     0.000300     YES
 Maximum Displacement     0.000113     0.001800     YES
 RMS     Displacement     0.000035     0.001200     YES
 Predicted change in Energy=-4.287472D-08
 Optimization completed.
    -- Stationary point found.
 GradGradGradGradGradGradGradGradGradGradGradGradGradGradGradGradGradGrad

                          Input orientation:                          
 ---------------------------------------------------------------------
 Center     Atomic     Atomic              Coordinates (Angstroms)
 Number     Number      Type              X           Y           Z
 ---------------------------------------------------------------------
    1          6      10061003        0.970308   -0.200840    0.321637
    2          6      10061003        0.177894   -1.433176   -0.205381
    3          6      10061003       -1.262908   -0.929951   -0.454259
    4          6      10061003        0.151066    0.970834   -0.284606
    5          7      10071003       -1.252766    0.523828   -0.168435
    6          6      10061003       -2.263199    1.345326   -0.879735
    7          1      10011000        0.189554   -2.268304    0.501200
    8          1      10011000        0.595686   -1.792838   -1.151085
    9          6      10061003        2.450833   -0.187893   -0.171092
   10          6      10061003        0.945317   -0.143648    1.885605
   11          1      10011000       -1.967271   -1.421318    0.221057
   12          1      10011000       -1.560358   -1.141493   -1.486787
   13          1      10011000        0.412899    1.132376   -1.336991
   14          1      10011000        0.308502    1.906225    0.259399
   15          1      10011000       -2.096176    1.330430   -1.959235
   16          1      10011000       -3.264063    0.962692   -0.672040
   17          1      10011000       -2.215827    2.378062   -0.529591
   18          1      10011000        2.502647   -0.217129   -1.261752
   19          1      10011000        2.989524   -1.054891    0.217721
   20          1      10011000        2.959394    0.717388    0.167913
   21          1      10011000        1.473017   -1.001132    2.309005
   22          1      10011000       -0.078354   -0.154731    2.266611
   23          1      10011000        1.430611    0.766246    2.245527
 ---------------------------------------------------------------------
                    Distance matrix (angstroms):
                    1          2          3          4          5
     1  C    0.000000
     2  C    1.557022   0.000000
     3  C    2.474039   1.546314   0.000000
     4  C    1.552903   2.405464   2.375097   0.000000
     5  N    2.389011   2.424462   1.481644   1.477854   0.000000
     6  C    3.780145   3.759490   2.521606   2.514578   1.483840
     7  H    2.217256   1.093998   2.194024   3.333315   3.213207
     8  H    2.200843   1.094652   2.164374   2.930249   3.122389
     9  C    1.560418   2.591941   3.797724   2.577685   3.771366
    10  C    1.565212   2.573721   3.312022   2.565681   3.081586
    11  H    3.182618   2.187173   1.092530   3.235033   2.108510
    12  H    3.249538   2.179128   1.095145   2.972564   2.146150
    13  H    2.199822   2.813863   2.800132   1.096434   2.123745
    14  H    2.209431   3.374119   3.320020   1.093473   2.128761
    15  H    4.117098   3.985589   2.840530   2.825560   2.137501
    16  H    4.502344   4.219600   2.762995   3.437045   2.119324
    17  H    4.186501   4.512267   3.443353   2.764506   2.120402
    18  H    2.203508   2.828280   3.916576   2.809983   3.980890
    19  H    2.194865   2.868340   4.307011   3.523171   4.542961
    20  H    2.196187   3.535678   4.574785   2.855822   4.229999
    21  H    2.200640   2.861143   3.889213   3.516109   3.986616
    22  H    2.210145   2.794786   3.067127   2.797898   2.787317
    23  H    2.201928   3.523309   4.173844   2.842651   3.617526
                    6          7          8          9         10
     6  C    0.000000
     7  H    4.580536   0.000000
     8  H    4.253814   1.766651   0.000000
     9  C    5.007498   3.145389   2.641554   0.000000
    10  C    4.489847   2.646114   3.473263   2.549223   0.000000
    11  H    2.992263   2.334044   2.930793   4.603777   3.589754
    12  H    2.654575   2.878192   2.277163   4.327824   4.318232
    13  H    2.723221   3.872138   2.936810   2.693623   3.506683
    14  H    2.868080   4.183218   3.969258   3.026588   2.692965
    15  H    1.092447   4.922316   4.201670   5.116449   5.119217
    16  H    1.091456   4.872710   4.766560   5.851054   5.048209
    17  H    1.091508   5.332646   5.068261   5.337637   4.710099
    18  H    5.029960   3.558893   2.476209   1.092281   3.512339
    19  H    5.878482   3.064729   2.854585   1.092268   2.791233
    20  H    5.363521   4.086252   3.691627   1.092288   2.783587
    21  H    5.443643   2.553656   3.656328   2.787179   1.092252
    22  H    4.113784   2.766883   3.849464   3.512874   1.092333
    23  H    4.873072   3.713676   4.333934   2.791287   1.092227
                   11         12         13         14         15
    11  H    0.000000
    12  H    1.777811   0.000000
    13  H    3.822837   3.014410   0.000000
    14  H    4.031521   3.978742   1.777132   0.000000
    15  H    3.513177   2.573075   2.592657   3.322101   0.000000
    16  H    2.857060   2.827370   3.740455   3.810650   1.776532
    17  H    3.880792   3.705825   3.018912   2.686517   1.776438
    18  H    4.860963   4.172901   2.488749   3.411276   4.902101
    19  H    4.970322   4.859452   3.720250   3.994725   6.024387
    20  H    5.371119   5.159616   2.986903   2.906705   5.519001
    21  H    4.046191   4.860978   4.355341   3.742955   6.032677
    22  H    3.058847   4.154279   3.857968   2.902774   4.912748
    23  H    4.519902   5.149324   3.742222   2.550174   5.516934
                   16         17         18         19         20
    16  H    0.000000
    17  H    1.767022   0.000000
    18  H    5.915631   5.434618   0.000000
    19  H    6.630963   6.280074   1.768540   0.000000
    20  H    6.284673   5.479714   1.768016   1.773235   0.000000
    21  H    5.931539   5.751883   3.798040   2.583825   3.122004
    22  H    4.475829   4.336194   4.372048   3.797382   3.793816
    23  H    5.530891   4.857545   3.797011   3.139864   2.579932
                   21         22         23
    21  H    0.000000
    22  H    1.767751   0.000000
    23  H    1.769026   1.767941   0.000000
 Stoichiometry    C7H15N
 Framework group  C1[X(C7H15N)]
 Deg. of freedom    63
 Full point group                 C1
 Largest Abelian subgroup         C1      NOp   1
 Largest concise Abelian subgroup C1      NOp   1
                         Standard orientation:                         
 ---------------------------------------------------------------------
 Center     Atomic     Atomic              Coordinates (Angstroms)
 Number     Number      Type              X           Y           Z
 ---------------------------------------------------------------------
    1          6      10061003       -1.040856   -0.084458   -0.016739
    2          6      10061003       -0.493689    1.350120   -0.275415
    3          6      10061003        1.030697    1.268090   -0.029231
    4          6      10061003        0.218658   -0.947310   -0.300678
    5          7      10071003        1.330834   -0.153298    0.262050
    6          6      10061003        2.700731   -0.620892   -0.064324
    7          1      10011000       -0.960460    2.096624    0.373960
    8          1      10011000       -0.669083    1.655747   -1.311799
    9          6      10061003       -2.221768   -0.453409   -0.967647
   10          6      10061003       -1.502652   -0.250193    1.469588
   11          1      10011000        1.317750    1.876856    0.831365
   12          1      10011000        1.572258    1.627974   -0.910443
   13          1      10011000        0.362432   -1.093156   -1.377815
   14          1      10011000        0.159801   -1.929003    0.177338
   15          1      10011000        2.890485   -0.569928   -1.138956
   16          1      10011000        3.436094   -0.002720    0.453731
   17          1      10011000        2.830483   -1.652337    0.268354
   18          1      10011000       -1.927962   -0.357204   -2.015264
   19          1      10011000       -3.073436    0.207506   -0.791856
   20          1      10011000       -2.541649   -1.484095   -0.798964
   21          1      10011000       -2.352797    0.401903    1.681813
   22          1      10011000       -0.699624    0.003930    2.165116
   23          1      10011000       -1.806859   -1.280699    1.665740
 ---------------------------------------------------------------------
 Rotational constants (GHZ):      3.3988740      1.4274535      1.3402944
 1|1|UNPC-UNK|FOpt|Dreiding|ZDO|C7H15N1|PCUSER|13-Dec-2007|0||# opt dre
 iding||3,3-dime-N-me-pyrrol-nlp||0,1|C,0.9703079404,-0.2008403357,0.32
 1637167|C,0.177894174,-1.4331758618,-0.2053808587|C,-1.2629083651,-0.9
 299505662,-0.4542585709|C,0.1510658179,0.9708338453,-0.2846056372|N,-1
 .252766059,0.5238277588,-0.1684354269|C,-2.2631993802,1.345326167,-0.8
 797352557|H,0.1895540709,-2.2683041467,0.5012003918|H,0.5956855624,-1.
 7928384157,-1.151084795|C,2.45083291,-0.1878925869,-0.1710921082|C,0.9
 453172026,-0.1436480046,1.8856046191|H,-1.9672713195,-1.4213181493,0.2
 210572852|H,-1.5603580122,-1.1414934596,-1.486786987|H,0.4128990958,1.
 1323762466,-1.3369905576|H,0.3085017078,1.9062253429,0.2593986848|H,-2
 .0961760098,1.3304298227,-1.959235494|H,-3.2640632964,0.96269156,-0.67
 20395274|H,-2.2158272145,2.3780624351,-0.5295912161|H,2.502647154,-0.2
 171287273,-1.2617517212|H,2.9895237704,-1.0548909546,0.2177211708|H,2.
 9593942735,0.7173880227,0.1679128465|H,1.4730168479,-1.0011322421,2.30
 90051597|H,-0.0783536198,-0.1547308374,2.2666110265|H,1.4306108489,0.7
 66245587,2.2455273046||Version=IA32W-G03RevD.01|HF=0.0383697|RMSD=0.00
 0e+000|RMSF=3.525e-005|Thermal=0.|Dipole=0.,0.,0.|PG=C01 [X(C7H15N1)]|
 |@


 Age does not diminish the extreme disappointment of
 having a scoop of ice cream fall from the cone.
 -- Jim Fiebig
 Job cpu time:  0 days  0 hours  0 minutes  4.0 seconds.
 File lengths (MBytes):  RWF=     11 Int=      0 D2E=      0 Chk=      4 Scr=      1
 Normal termination of Gaussian 03 at Thu Dec 13 16:24:02 2007.
