 Entering Link 1 = C:\G03W\l1.exe PID=      3936.
  
 Copyright (c) 1988,1990,1992,1993,1995,1998,2003,2004, Gaussian, Inc.
                  All Rights Reserved.
  
 This is the Gaussian(R) 03 program.  It is based on the
 the Gaussian(R) 98 system (copyright 1998, Gaussian, Inc.),
 the Gaussian(R) 94 system (copyright 1995, Gaussian, Inc.),
 the Gaussian 92(TM) system (copyright 1992, Gaussian, Inc.),
 the Gaussian 90(TM) system (copyright 1990, Gaussian, Inc.),
 the Gaussian 88(TM) system (copyright 1988, Gaussian, Inc.),
 the Gaussian 86(TM) system (copyright 1986, Carnegie Mellon
 University), and the Gaussian 82(TM) system (copyright 1983,
 Carnegie Mellon University). Gaussian is a federally registered
 trademark of Gaussian, Inc.
  
 This software contains proprietary and confidential information,
 including trade secrets, belonging to Gaussian, Inc.
  
 This software is provided under written license and may be
 used, copied, transmitted, or stored only in accord with that
 written license.
  
 The following legend is applicable only to US Government
 contracts under FAR:
  
                    RESTRICTED RIGHTS LEGEND
  
 Use, reproduction and disclosure by the US Government is
 subject to restrictions as set forth in subparagraphs (a)
 and (c) of the Commercial Computer Software - Restricted
 Rights clause in FAR 52.227-19.
  
 Gaussian, Inc.
 340 Quinnipiac St., Bldg. 40, Wallingford CT 06492
  
  
 ---------------------------------------------------------------
 Warning -- This program may not be used in any manner that
 competes with the business of Gaussian, Inc. or will provide
 assistance to any competitor of Gaussian, Inc.  The licensee
 of this program is prohibited from giving any competitor of
 Gaussian, Inc. access to this program.  By using this program,
 the user acknowledges that Gaussian, Inc. is engaged in the
 business of creating and licensing software in the field of
 computational chemistry and represents and warrants to the
 licensee that it is not a competitor of Gaussian, Inc. and that
 it will not use this program in any manner prohibited above.
 ---------------------------------------------------------------
  

 Cite this work as:
 Gaussian 03, Revision D.01,
 M. J. Frisch, G. W. Trucks, H. B. Schlegel, G. E. Scuseria, 
 M. A. Robb, J. R. Cheeseman, J. A. Montgomery, Jr., T. Vreven, 
 K. N. Kudin, J. C. Burant, J. M. Millam, S. S. Iyengar, J. Tomasi, 
 V. Barone, B. Mennucci, M. Cossi, G. Scalmani, N. Rega, 
 G. A. Petersson, H. Nakatsuji, M. Hada, M. Ehara, K. Toyota, 
 R. Fukuda, J. Hasegawa, M. Ishida, T. Nakajima, Y. Honda, O. Kitao, 
 H. Nakai, M. Klene, X. Li, J. E. Knox, H. P. Hratchian, J. B. Cross, 
 V. Bakken, C. Adamo, J. Jaramillo, R. Gomperts, R. E. Stratmann, 
 O. Yazyev, A. J. Austin, R. Cammi, C. Pomelli, J. W. Ochterski, 
 P. Y. Ayala, K. Morokuma, G. A. Voth, P. Salvador, J. J. Dannenberg, 
 V. G. Zakrzewski, S. Dapprich, A. D. Daniels, M. C. Strain, 
 O. Farkas, D. K. Malick, A. D. Rabuck, K. Raghavachari, 
 J. B. Foresman, J. V. Ortiz, Q. Cui, A. G. Baboul, S. Clifford, 
 J. Cioslowski, B. B. Stefanov, G. Liu, A. Liashenko, P. Piskorz, 
 I. Komaromi, R. L. Martin, D. J. Fox, T. Keith, M. A. Al-Laham, 
 C. Y. Peng, A. Nanayakkara, M. Challacombe, P. M. W. Gill, 
 B. Johnson, W. Chen, M. W. Wong, C. Gonzalez, and J. A. Pople, 
 Gaussian, Inc., Wallingford CT, 2004.
 
 ******************************************
 Gaussian 03:  IA32W-G03RevD.01 13-Oct-2005
                16-Jan-2008 
 ******************************************
 ----------------------------------
 #p Opt=(Modredun,nomicro) dreiding
 ----------------------------------
 1/14=-1,18=150,38=1,56=1,64=1/1,3;
 2/9=110,17=6,18=5,40=1/2;
 3/5=30,11=9,16=1,25=1,30=1/1;
 4/20=9,22=1,24=3/2;
 7/44=-1/16;
 1/14=-1,18=50,64=1/3(2);
 2/9=110/2;
 99//99;
 2/9=110/2;
 3/5=30,11=9,16=1,25=1,30=1/1;
 4/16=2,20=9,22=1,24=3/2;
 7/44=-1/16;
 1/14=-1,18=50,64=1/3(-4);
 2/9=110/2;
 99//99;
 Leave Link    1 at Wed Jan 16 17:58:04 2008, MaxMem=          0 cpu:       1.0
 (Enter C:\G03W\l101.exe)
 ---------------------
 dimethylphosphine-ecl
 ---------------------
 Symbolic Z-matrix:
 Charge =  0 Multiplicity = 1
 P                    -0.46603  -0.32853  -0.03959 
 C                    -0.49603   1.55847   0.06941 
 C                     1.29797  -0.98953   0.10041 
 H                    -1.29403  -0.93853  -1.04359 
 H                    -1.54503   1.92247   0.14241 
 H                     0.06297   1.90047   0.96841 
 H                    -0.02503   2.00247  -0.83559 
 H                     1.38697  -1.70253   0.95041 
 H                     1.57497  -1.51953  -0.83859 
 H                     2.01797  -0.15053   0.23141 
 
 The following ModRedundant input section has been read:
 D    2    1    3    9 0.0000 F                                                
 Iteration  1 RMS(Cart)=  0.05266649 RMS(Int)=  0.35069511
 Iteration  2 RMS(Cart)=  0.03656760 RMS(Int)=  0.33445071
 Iteration  3 RMS(Cart)=  0.02577062 RMS(Int)=  0.32318703
 Iteration  4 RMS(Cart)=  0.01868256 RMS(Int)=  0.31510793
 Iteration  5 RMS(Cart)=  0.01387655 RMS(Int)=  0.30915548
 Iteration  6 RMS(Cart)=  0.01050537 RMS(Int)=  0.30467716
 Iteration  7 RMS(Cart)=  0.00807228 RMS(Int)=  0.30125271
 Iteration  8 RMS(Cart)=  0.00627504 RMS(Int)=  0.29860081
 Iteration  9 RMS(Cart)=  0.00492239 RMS(Int)=  0.29652681
 Iteration 10 RMS(Cart)=  0.00388895 RMS(Int)=  0.29489215
 Iteration 11 RMS(Cart)=  0.00308983 RMS(Int)=  0.29359586
 Iteration 12 RMS(Cart)=  0.00246591 RMS(Int)=  0.29256291
 Iteration 13 RMS(Cart)=  0.00197498 RMS(Int)=  0.29173663
 Iteration 14 RMS(Cart)=  0.00158630 RMS(Int)=  0.29107361
 Iteration 15 RMS(Cart)=  0.00127702 RMS(Int)=  0.29054029
 Iteration 16 RMS(Cart)=  0.00102993 RMS(Int)=  0.29011045
 Iteration 17 RMS(Cart)=  0.00083187 RMS(Int)=  0.28976344
 Iteration 18 RMS(Cart)=  0.00067270 RMS(Int)=  0.28948295
 Iteration 19 RMS(Cart)=  0.00054451 RMS(Int)=  0.28925599
 Iteration 20 RMS(Cart)=  0.00044109 RMS(Int)=  0.28907219
 Iteration 21 RMS(Cart)=  0.00035753 RMS(Int)=  0.28892324
 Iteration 22 RMS(Cart)=  0.00028996 RMS(Int)=  0.28880246
 Iteration 23 RMS(Cart)=  0.00023525 RMS(Int)=  0.28870448
 Iteration 24 RMS(Cart)=  0.00019093 RMS(Int)=  0.28862498
 Iteration 25 RMS(Cart)=  0.00015500 RMS(Int)=  0.28856044
 Iteration 26 RMS(Cart)=  0.00012586 RMS(Int)=  0.28850804
 Iteration 27 RMS(Cart)=  0.00010221 RMS(Int)=  0.28846549
 Iteration 28 RMS(Cart)=  0.00008302 RMS(Int)=  0.28843092
 Iteration 29 RMS(Cart)=  0.00006744 RMS(Int)=  0.28840285
 Iteration 30 RMS(Cart)=  0.00005479 RMS(Int)=  0.28838004
 Iteration 31 RMS(Cart)=  0.00004452 RMS(Int)=  0.28836151
 Iteration 32 RMS(Cart)=  0.00003617 RMS(Int)=  0.28834645
 Iteration 33 RMS(Cart)=  0.00002940 RMS(Int)=  0.28833422
 Iteration 34 RMS(Cart)=  0.00002389 RMS(Int)=  0.28832427
 Iteration 35 RMS(Cart)=  0.00001941 RMS(Int)=  0.28831619
 Iteration 36 RMS(Cart)=  0.00001578 RMS(Int)=  0.28830963
 Iteration 37 RMS(Cart)=  0.00001282 RMS(Int)=  0.28830429
 Iteration 38 RMS(Cart)=  0.00001042 RMS(Int)=  0.28829995
 Iteration 39 RMS(Cart)=  0.00000847 RMS(Int)=  0.28829643
 Iteration 40 RMS(Cart)=  0.00000688 RMS(Int)=  0.28829356
 Iteration 41 RMS(Cart)=  0.00000559 RMS(Int)=  0.28829124
 Iteration 42 RMS(Cart)=  0.00000455 RMS(Int)=  0.28828934
 Iteration 43 RMS(Cart)=  0.00000369 RMS(Int)=  0.28828781
 Iteration 44 RMS(Cart)=  0.00000300 RMS(Int)=  0.28828656
 Iteration 45 RMS(Cart)=  0.00000244 RMS(Int)=  0.28828554
 Iteration 46 RMS(Cart)=  0.00000198 RMS(Int)=  0.28828472
 Iteration 47 RMS(Cart)=  0.00000161 RMS(Int)=  0.28828404
 Iteration 48 RMS(Cart)=  0.00000131 RMS(Int)=  0.28828350
 Iteration 49 RMS(Cart)=  0.00000107 RMS(Int)=  0.28828306
 Iteration 50 RMS(Cart)=  0.00000087 RMS(Int)=  0.28828270
 Iteration  1 RMS(Cart)=  0.05528868 RMS(Int)=  0.25538469
 Iteration  2 RMS(Cart)=  0.05607650 RMS(Int)=  0.22949492
 Iteration  3 RMS(Cart)=  0.05674250 RMS(Int)=  0.20443248
 Iteration  4 RMS(Cart)=  0.05722805 RMS(Int)=  0.18082823
 Iteration  5 RMS(Cart)=  0.05748230 RMS(Int)=  0.15968427
 Iteration  6 RMS(Cart)=  0.05746861 RMS(Int)=  0.14246888
 Iteration  7 RMS(Cart)=  0.05716822 RMS(Int)=  0.13103856
 Iteration  8 RMS(Cart)=  0.05658455 RMS(Int)=  0.12710742
 Iteration  9 RMS(Cart)=  0.05574866 RMS(Int)=  0.13130500
 Iteration 10 RMS(Cart)=  0.03704539 RMS(Int)=  0.13821146
 Iteration 11 RMS(Cart)=  0.00850651 RMS(Int)=  0.14018863
 Iteration 12 RMS(Cart)=  0.00205092 RMS(Int)=  0.14068605
 Iteration 13 RMS(Cart)=  0.00050101 RMS(Int)=  0.14080877
 Iteration 14 RMS(Cart)=  0.00012279 RMS(Int)=  0.14083892
 Iteration 15 RMS(Cart)=  0.00003012 RMS(Int)=  0.14084632
 Iteration 16 RMS(Cart)=  0.00000739 RMS(Int)=  0.14084814
 Iteration 17 RMS(Cart)=  0.00000181 RMS(Int)=  0.14084858
 Iteration 18 RMS(Cart)=  0.00000044 RMS(Int)=  0.14084869
 Fast transformation storage of   1 MWords has been initialized.
                    Isotopes and Nuclear Properties:
 (Nuclear quadrupole moments (NQMom) in fm**2, nuclear magnetic moments (NMagM)
  in nuclear magnetons)

  Atom         1           2           3           4           5           6           7           8           9          10
 IAtWgt=          31          12          12           1           1           1           1           1           1           1
 AtmWgt=  30.9737634  12.0000000  12.0000000   1.0078250   1.0078250   1.0078250   1.0078250   1.0078250   1.0078250   1.0078250
 NucSpn=           1           0           0           1           1           1           1           1           1           1
 AtZEff=   0.0000000   0.0000000   0.0000000   0.0000000   0.0000000   0.0000000   0.0000000   0.0000000   0.0000000   0.0000000
 NQMom=    0.0000000   0.0000000   0.0000000   0.0000000   0.0000000   0.0000000   0.0000000   0.0000000   0.0000000   0.0000000
 NMagM=    1.1316000   0.0000000   0.0000000   2.7928460   2.7928460   2.7928460   2.7928460   2.7928460   2.7928460   2.7928460
 Generating MM parameters.
 Include all MM classes
 MMInit generated parameter data with length LenPar=   919.
 Leave Link  101 at Wed Jan 16 17:58:04 2008, MaxMem=    6291456 cpu:       0.0
 (Enter C:\G03W\l103.exe)

 GradGradGradGradGradGradGradGradGradGradGradGradGradGradGradGradGradGrad
 Berny optimization.
 Initialization pass.
                           ----------------------------
                           !    Initial Parameters    !
                           ! (Angstroms and Degrees)  !
 --------------------------                            --------------------------
 ! Name  Definition              Value          Derivative Info.                !
 --------------------------------------------------------------------------------
 ! R1    R(1,2)                  1.8927         estimate D2E/DX2                !
 ! R2    R(1,3)                  1.8928         estimate D2E/DX2                !
 ! R3    R(1,4)                  1.4397         estimate D2E/DX2                !
 ! R4    R(2,5)                  1.1144         estimate D2E/DX2                !
 ! R5    R(2,6)                  1.1169         estimate D2E/DX2                !
 ! R6    R(2,7)                  1.1167         estimate D2E/DX2                !
 ! R7    R(3,8)                  1.1159         estimate D2E/DX2                !
 ! R8    R(3,9)                  1.1858         estimate D2E/DX2                !
 ! R9    R(3,10)                 1.1435         estimate D2E/DX2                !
 ! A1    A(2,1,3)              107.1161         estimate D2E/DX2                !
 ! A2    A(2,1,4)              108.3912         estimate D2E/DX2                !
 ! A3    A(3,1,4)              116.3083         estimate D2E/DX2                !
 ! A4    A(1,2,5)              110.4436         estimate D2E/DX2                !
 ! A5    A(1,2,6)              110.7324         estimate D2E/DX2                !
 ! A6    A(1,2,7)              109.3249         estimate D2E/DX2                !
 ! A7    A(5,2,6)              110.1858         estimate D2E/DX2                !
 ! A8    A(5,2,7)              108.109          estimate D2E/DX2                !
 ! A9    A(6,2,7)              107.9676         estimate D2E/DX2                !
 ! A10   A(1,3,8)              116.7784         estimate D2E/DX2                !
 ! A11   A(1,3,9)              113.6461         estimate D2E/DX2                !
 ! A12   A(1,3,10)              81.6867         estimate D2E/DX2                !
 ! A13   A(8,3,9)              120.8848         estimate D2E/DX2                !
 ! A14   A(8,3,10)              80.5188         estimate D2E/DX2                !
 ! A15   A(9,3,10)              78.1824         estimate D2E/DX2                !
 ! D1    D(3,1,2,5)           -175.6259         estimate D2E/DX2                !
 ! D2    D(3,1,2,6)            -53.2919         estimate D2E/DX2                !
 ! D3    D(4,1,2,5)             58.1398         estimate D2E/DX2                !
 ! D4    D(2,1,3,8)            148.0641         estimate D2E/DX2                !
 ! D5    D(2,1,3,9)              0.0            Frozen                          !
 ! D6    D(4,1,3,8)            -90.5686         estimate D2E/DX2                !
 --------------------------------------------------------------------------------
 Trust Radius=3.00D-01 FncErr=1.00D-07 GrdErr=1.00D-07
 Number of steps in this run=  40 maximum allowed number of steps= 100.
 GradGradGradGradGradGradGradGradGradGradGradGradGradGradGradGradGradGrad

 Leave Link  103 at Wed Jan 16 17:58:04 2008, MaxMem=    6291456 cpu:       0.0
 (Enter C:\G03W\l202.exe)
                          Input orientation:                          
 ---------------------------------------------------------------------
 Center     Atomic     Atomic              Coordinates (Angstroms)
 Number     Number      Type              X           Y           Z
 ---------------------------------------------------------------------
    1         15      10151003       -0.514708   -0.387428    0.188605
    2          6      10061003       -0.399668    1.480491   -0.094063
    3          6      10061003        1.204767   -1.107450   -0.139602
    4          1      10011000       -1.587815   -0.903997   -0.620290
    5          1      10011000       -1.366126    1.973035    0.161218
    6          1      10011000        0.429254    1.921581    0.510713
    7          1      10011000       -0.183106    1.678551   -1.171526
    8          1      10011000        1.496885   -2.003686    0.457560
    9          1      10011000        2.009748   -0.293934   -0.449808
   10          1      10011000        1.425474   -0.602459    0.862310
 ---------------------------------------------------------------------
                    Distance matrix (angstroms):
                    1          2          3          4          5
     1  P    0.000000
     2  C    1.892685   0.000000
     3  C    1.892815   3.045279   0.000000
     4  H    1.439692   2.715583   2.840945   0.000000
     5  H    2.509472   1.114365   4.023602   2.989518   0.000000
     6  H    2.515222   1.116882   3.193644   3.651250   1.829803
     7  H    2.495634   1.116716   3.279156   2.991091   1.806229
     8  H    2.594443   4.005083   1.115874   3.447673   4.909069
     9  H    2.605608   3.013375   1.185761   3.652903   4.112059
    10  H    2.065048   2.929927   1.143483   3.371785   3.862347
                    6          7          8          9         10
     6  H    0.000000
     7  H    1.806647   0.000000
     8  H    4.068216   4.362930   0.000000
     9  H    2.886013   3.036476   2.002397   0.000000
    10  H    2.736212   3.453552   1.460260   1.469087   0.000000
 Stoichiometry    C2H7P
 Framework group  C1[X(C2H7P)]
 Deg. of freedom    24
 Full point group                 C1
 Largest Abelian subgroup         C1      NOp   1
 Largest concise Abelian subgroup C1      NOp   1
                         Standard orientation:                         
 ---------------------------------------------------------------------
 Center     Atomic     Atomic              Coordinates (Angstroms)
 Number     Number      Type              X           Y           Z
 ---------------------------------------------------------------------
    1         15      10151003       -0.014492   -0.609169   -0.096779
    2          6      10061003        1.494672    0.527841    0.012250
    3          6      10061003       -1.544108    0.465240    0.200994
    4          1      10011000        0.179116   -1.709351    0.811422
    5          1      10011000        2.424584   -0.034969   -0.233344
    6          1      10011000        1.381141    1.402404   -0.673079
    7          1      10011000        1.589584    0.917064    1.054628
    8          1      10011000       -2.479425    0.166255   -0.329066
    9          1      10011000       -1.292511    1.607831    0.393906
   10          1      10011000       -1.288482    0.829807   -0.852240
 ---------------------------------------------------------------------
 Rotational constants (GHZ):     16.6605255      6.3673673      4.9616550
 Leave Link  202 at Wed Jan 16 17:58:04 2008, MaxMem=    6291456 cpu:       0.0
 (Enter C:\G03W\l301.exe)
 Standard basis: Dummy (5D, 7F)
 There are    10 symmetry adapted basis functions of A   symmetry.
 Integral buffers will be    262144 words long.
 Raffenetti 1 integral format.
 Two-electron integral symmetry is turned on.
    10 basis functions,    10 primitive gaussians,    10 cartesian basis functions
     6 alpha electrons        6 beta electrons
       nuclear repulsion energy        15.8905762872 Hartrees.
 IExCor=   0 DFT=F Ex=HF Corr=None ExCW=0 ScaHFX=  1.000000
 ScaDFX=  1.000000  1.000000  1.000000  1.000000
 IRadAn=      0 IRanWt=     -1 IRanGd=            0 ICorTp=0
 NAtoms=   10 NActive=   10 NUniq=   10 SFac= 7.50D-01 NAtFMM=   80 NAOKFM=F Big=F
 Leave Link  301 at Wed Jan 16 17:58:05 2008, MaxMem=    6291456 cpu:       0.0
 (Enter C:\G03W\l402.exe)
 Dreiding calculation of energy and first derivatives.
 MO and density RWFs will be updated without deorthogonalization.
 Energy=    0.200263904790 NIter=   0.
 Dipole moment=       0.000000       0.000000       0.000000
 Leave Link  402 at Wed Jan 16 17:58:05 2008, MaxMem=    6291456 cpu:       0.0
 (Enter C:\G03W\l716.exe)
 Dipole        = 0.00000000D+00 0.00000000D+00 0.00000000D+00
 ***** Axes restored to original set *****
 -------------------------------------------------------------------
 Center     Atomic                   Forces (Hartrees/Bohr)
 Number     Number              X              Y              Z
 -------------------------------------------------------------------
    1         15           0.020837587    0.028547095   -0.101781548
    2          6          -0.004729200   -0.122260630    0.002333527
    3          6          -0.076617996    0.143988084    0.112191044
    4          1           0.111535678    0.049514307    0.061724188
    5          1           0.012581517   -0.007543609   -0.000691704
    6          1          -0.013195774   -0.007348564   -0.005745825
    7          1          -0.003152773   -0.004377141    0.014850521
    8          1          -0.006127834   -0.008127435   -0.037816084
    9          1          -0.034856450   -0.055093193   -0.019160108
   10          1          -0.006274755   -0.017298914   -0.025904011
 -------------------------------------------------------------------
 Cartesian Forces:  Max     0.143988084 RMS     0.055486536
 Leave Link  716 at Wed Jan 16 17:58:05 2008, MaxMem=    6291456 cpu:       0.0
 (Enter C:\G03W\l103.exe)

 GradGradGradGradGradGradGradGradGradGradGradGradGradGradGradGradGradGrad
 Berny optimization.
 Internal  Forces:  Max     0.141799385 RMS     0.053783276
 Search for a local minimum.
 Step number   1 out of a maximum of  40
 All quantities printed in internal units (Hartrees-Bohrs-Radians)
 Second derivative matrix not updated -- first step.
 lowest eigenvalue of the Hessian is  0.7404E-03.
 RFO step:  Lambda= 4.99169006D-02.
 Linear search not attempted -- first point.
 Maximum step size (   0.300) exceeded in Quadratic search.
    -- Step size scaled by   0.604
 Iteration  1 RMS(Cart)=  0.10060438 RMS(Int)=  0.03671917
 Iteration  2 RMS(Cart)=  0.06055050 RMS(Int)=  0.00633651
 Iteration  3 RMS(Cart)=  0.00049585 RMS(Int)=  0.00631942
 Iteration  4 RMS(Cart)=  0.00000493 RMS(Int)=  0.00631942
 Iteration  5 RMS(Cart)=  0.00000011 RMS(Int)=  0.00631942
 Iteration  1 RMS(Cart)=  0.00218697 RMS(Int)=  0.00066022
 Iteration  2 RMS(Cart)=  0.00040335 RMS(Int)=  0.00070826
 Iteration  3 RMS(Cart)=  0.00007458 RMS(Int)=  0.00072674
 Iteration  4 RMS(Cart)=  0.00001380 RMS(Int)=  0.00073045
 Iteration  5 RMS(Cart)=  0.00000255 RMS(Int)=  0.00073114
 Iteration  6 RMS(Cart)=  0.00000047 RMS(Int)=  0.00073127
 Variable       Old X    -DE/DX   Delta X   Delta X   Delta X     New X
                                 (Linear)    (Quad)   (Total)
    R1        3.57666  -0.14180   0.00000  -0.29580  -0.29580   3.28085
    R2        3.57690  -0.14176   0.00000  -0.29900  -0.29900   3.27790
    R3        2.72062  -0.13558   0.00000  -0.30000  -0.30000   2.42062
    R4        2.10584  -0.01440   0.00000  -0.01173  -0.01173   2.09411
    R5        2.11060  -0.01581   0.00000  -0.01288  -0.01288   2.09772
    R6        2.11029  -0.01572   0.00000  -0.02760  -0.02760   2.08268
    R7        2.10870  -0.01531   0.00000   0.00190   0.00190   2.11059
    R8        2.24076  -0.05645   0.00000  -0.11569  -0.11567   2.12510
    R9        2.16087  -0.03155   0.00000  -0.08126  -0.08125   2.07962
    A1        1.86953  -0.01316   0.00000   0.00447   0.00271   1.87224
    A2        1.89178  -0.02201   0.00000  -0.03039  -0.03437   1.85741
    A3        2.02996  -0.02059   0.00000  -0.05875  -0.05948   1.97048
    A4        1.92760  -0.00046   0.00000   0.02287   0.02235   1.94996
    A5        1.93264  -0.00048   0.00000  -0.00733  -0.00782   1.92483
    A6        1.90808  -0.00412   0.00000   0.06329   0.06221   1.97029
    A7        1.92311   0.00634   0.00000  -0.05700  -0.05689   1.86621
    A8        1.88686  -0.00083   0.00000  -0.00871  -0.00972   1.87714
    A9        1.88439  -0.00055   0.00000  -0.01286  -0.01385   1.87054
   A10        2.03817   0.01608   0.00000   0.07810   0.05972   2.09789
   A11        1.98350   0.02516   0.00000   0.12664   0.10842   2.09191
   A12        1.42570   0.01966   0.00000   0.11096   0.10386   1.52956
   A13        2.10984  -0.00739   0.00000  -0.02729  -0.04692   2.06292
   A14        1.40532   0.01513   0.00000   0.09993   0.09293   1.49825
   A15        1.36454   0.02370   0.00000   0.09616   0.08917   1.45371
    D1       -3.06525  -0.01855   0.00000   0.01688   0.01654  -3.04871
    D2       -0.93012  -0.01116   0.00000  -0.04471  -0.04556  -0.97568
    D3        1.01473   0.02884   0.00000   0.10502   0.10622   1.12095
    D4        2.58421   0.05335   0.00000   0.28352   0.29005   2.87426
    D5        0.00000  -0.12516   0.00000   0.00000   0.00000   0.00000
    D6       -1.58072   0.00108   0.00000   0.20863   0.21241  -1.36831
         Item               Value     Threshold  Converged?
 Maximum Force            0.141799     0.000450     NO 
 RMS     Force            0.049520     0.000300     NO 
 Maximum Displacement     0.425814     0.001800     NO 
 RMS     Displacement     0.145023     0.001200     NO 
 Predicted change in Energy=-1.305470D-01
 GradGradGradGradGradGradGradGradGradGradGradGradGradGradGradGradGradGrad

 Leave Link  103 at Wed Jan 16 17:58:05 2008, MaxMem=    6291456 cpu:       0.0
 (Enter C:\G03W\l202.exe)
                          Input orientation:                          
 ---------------------------------------------------------------------
 Center     Atomic     Atomic              Coordinates (Angstroms)
 Number     Number      Type              X           Y           Z
 ---------------------------------------------------------------------
    1         15      10151003       -0.464357   -0.319590    0.222737
    2          6      10061003       -0.393842    1.381468   -0.117349
    3          6      10061003        1.113907   -0.971551   -0.081954
    4          1      10011000       -1.362484   -0.806456   -0.550009
    5          1      10011000       -1.342229    1.891661    0.143946
    6          1      10011000        0.407222    1.861083    0.483078
    7          1      10011000       -0.180659    1.598358   -1.176668
    8          1      10011000        1.387730   -1.983481    0.303319
    9          1      10011000        1.940695   -0.295262   -0.433626
   10          1      10011000        1.408723   -0.601525    0.911644
 ---------------------------------------------------------------------
                    Distance matrix (angstroms):
                    1          2          3          4          5
     1  P    0.000000
     2  C    1.736154   0.000000
     3  C    1.734592   2.794863   0.000000
     4  H    1.280939   2.431558   2.525637   0.000000
     5  H    2.380441   1.108156   3.779103   2.786004   0.000000
     6  H    2.362786   1.110066   2.973631   3.363761   1.782281
     7  H    2.391097   1.102109   3.078755   2.751825   1.783057
     8  H    2.491035   3.830645   1.116878   3.110825   4.742869
     9  H    2.493127   2.891629   1.124552   3.344526   3.986705
    10  H    2.015567   2.870598   1.100487   3.139747   3.791184
                    6          7          8          9         10
     6  H    0.000000
     7  H    1.780277   0.000000
     8  H    3.971697   4.180882   0.000000
     9  H    2.800305   2.939057   1.923262   0.000000
    10  H    2.692788   3.424422   1.510066   1.478696   0.000000
 Stoichiometry    C2H7P
 Framework group  C1[X(C2H7P)]
 Deg. of freedom    24
 Full point group                 C1
 Largest Abelian subgroup         C1      NOp   1
 Largest concise Abelian subgroup C1      NOp   1
                         Standard orientation:                         
 ---------------------------------------------------------------------
 Center     Atomic     Atomic              Coordinates (Angstroms)
 Number     Number      Type              X           Y           Z
 ---------------------------------------------------------------------
    1         15      10151003       -0.006446   -0.561419   -0.092053
    2          6      10061003        1.384069    0.471980    0.021005
    3          6      10061003       -1.406777    0.429529    0.164666
    4          1      10011000        0.138051   -1.462583    0.806741
    5          1      10011000        2.318814   -0.069685   -0.225698
    6          1      10011000        1.298219    1.312781   -0.698668
    7          1      10011000        1.510075    0.912972    1.023150
    8          1      10011000       -2.421096    0.050490   -0.109014
    9          1      10011000       -1.285542    1.530523    0.358913
   10          1      10011000       -1.325584    0.737738   -0.888656
 ---------------------------------------------------------------------
 Rotational constants (GHZ):     19.5462768      7.3020115      5.7608669
 Leave Link  202 at Wed Jan 16 17:58:05 2008, MaxMem=    6291456 cpu:       0.0
 (Enter C:\G03W\l301.exe)
 Standard basis: Dummy (5D, 7F)
 There are    10 symmetry adapted basis functions of A   symmetry.
 Integral buffers will be    262144 words long.
 Raffenetti 1 integral format.
 Two-electron integral symmetry is turned on.
    10 basis functions,    10 primitive gaussians,    10 cartesian basis functions
     6 alpha electrons        6 beta electrons
       nuclear repulsion energy        16.5838369461 Hartrees.



 Warning!  P  atom    1 may be hypervalent but has no d functions.



 IExCor=   0 DFT=F Ex=HF Corr=None ExCW=0 ScaHFX=  1.000000
 ScaDFX=  1.000000  1.000000  1.000000  1.000000
 IRadAn=      0 IRanWt=     -1 IRanGd=            0 ICorTp=0
 NAtoms=   10 NActive=   10 NUniq=   10 SFac= 7.50D-01 NAtFMM=   80 NAOKFM=F Big=F
 Leave Link  301 at Wed Jan 16 17:58:06 2008, MaxMem=    6291456 cpu:       0.0
 (Enter C:\G03W\l402.exe)
 Dreiding calculation of energy and first derivatives.
 MO and density RWFs will be updated without deorthogonalization.
 Energy=    0.085207215176 NIter=   0.
 Dipole moment=       0.000000       0.000000       0.000000
 Leave Link  402 at Wed Jan 16 17:58:06 2008, MaxMem=    6291456 cpu:       0.0
 (Enter C:\G03W\l716.exe)
 Dipole        = 0.00000000D+00 0.00000000D+00 0.00000000D+00
 ***** Axes restored to original set *****
 -------------------------------------------------------------------
 Center     Atomic                   Forces (Hartrees/Bohr)
 Number     Number              X              Y              Z
 -------------------------------------------------------------------
    1         15          -0.000955615    0.007550875   -0.023981392
    2          6           0.002555112   -0.021752432    0.002270261
    3          6           0.002114087    0.047274489    0.075092930
    4          1           0.040765501    0.017169237    0.010919826
    5          1           0.006475227   -0.010351172   -0.001564430
    6          1          -0.007755382   -0.008182082   -0.004538820
    7          1          -0.001556404   -0.008233880    0.005163306
    8          1          -0.014021152    0.001171202   -0.033043096
    9          1          -0.021531419   -0.021086214   -0.026922668
   10          1          -0.006089954   -0.003560023   -0.003395918
 -------------------------------------------------------------------
 Cartesian Forces:  Max     0.075092930 RMS     0.021948647
 Leave Link  716 at Wed Jan 16 17:58:06 2008, MaxMem=    6291456 cpu:       0.0
 (Enter C:\G03W\l103.exe)

 GradGradGradGradGradGradGradGradGradGradGradGradGradGradGradGradGradGrad
 Berny optimization.
 Internal  Forces:  Max     0.068827525 RMS     0.023986735
 Search for a local minimum.
 Step number   2 out of a maximum of  40
 All quantities printed in internal units (Hartrees-Bohrs-Radians)
   2   1  0.3100285E-01  0.4528465E-01  0.6846216    
 Update second derivatives using D2CorL and points  1  2
 Trust test= 8.81D-01 RLast= 6.99D-01 DXMaxT set to 4.24D-01
 Maximum step size (   0.424) exceeded in linear search.
    -- Step size scaled by   0.941
 Quartic linear search produced a step of  0.61746.
 Iteration  1 RMS(Cart)=  0.09147592 RMS(Int)=  0.00687064
 Iteration  2 RMS(Cart)=  0.00470386 RMS(Int)=  0.00534255
 Iteration  3 RMS(Cart)=  0.00002476 RMS(Int)=  0.00534250
 Iteration  4 RMS(Cart)=  0.00000035 RMS(Int)=  0.00534250
 Iteration  1 RMS(Cart)=  0.00126275 RMS(Int)=  0.00037453
 Iteration  2 RMS(Cart)=  0.00020900 RMS(Int)=  0.00039958
 Iteration  3 RMS(Cart)=  0.00003462 RMS(Int)=  0.00040818
 Iteration  4 RMS(Cart)=  0.00000573 RMS(Int)=  0.00040972
 Iteration  5 RMS(Cart)=  0.00000095 RMS(Int)=  0.00040997
 Variable       Old X    -DE/DX   Delta X   Delta X   Delta X     New X
                                 (Linear)    (Quad)   (Total)
    R1        3.28085  -0.04781  -0.18265   0.00000  -0.18265   3.09821
    R2        3.27790  -0.04697  -0.18462   0.00000  -0.18462   3.09329
    R3        2.42062  -0.04170  -0.18524   0.00000  -0.18524   2.23539
    R4        2.09411  -0.01068  -0.00724   0.00000  -0.00724   2.08687
    R5        2.09772  -0.01159  -0.00795   0.00000  -0.00795   2.08977
    R6        2.08268  -0.00688  -0.01704   0.00000  -0.01704   2.06564
    R7        2.11059  -0.01590   0.00117   0.00000   0.00117   2.11176
    R8        2.12510  -0.02009  -0.07142   0.00000  -0.07141   2.05368
    R9        2.07962  -0.00589  -0.05017   0.00000  -0.05017   2.02945
    A1        1.87224  -0.01456   0.00167   0.00000   0.00046   1.87270
    A2        1.85741  -0.02131  -0.02122   0.00000  -0.02406   1.83335
    A3        1.97048  -0.02018  -0.03673   0.00000  -0.03749   1.93299
    A4        1.94996  -0.00530   0.01380   0.00000   0.01323   1.96319
    A5        1.92483   0.00047  -0.00483   0.00000  -0.00535   1.91948
    A6        1.97029  -0.01135   0.03841   0.00000   0.03743   2.00772
    A7        1.86621   0.01170  -0.03513   0.00000  -0.03518   1.83103
    A8        1.87714   0.00246  -0.00600   0.00000  -0.00690   1.87025
    A9        1.87054   0.00362  -0.00855   0.00000  -0.00941   1.86113
   A10        2.09789   0.00214   0.03687   0.00000   0.02106   2.11895
   A11        2.09191   0.00692   0.06694   0.00000   0.05131   2.14323
   A12        1.52956   0.00864   0.06413   0.00000   0.05782   1.58738
   A13        2.06292   0.00184  -0.02897   0.00000  -0.04477   2.01815
   A14        1.49825   0.01230   0.05738   0.00000   0.05149   1.54973
   A15        1.45371   0.02055   0.05506   0.00000   0.04907   1.50278
    D1       -3.04871  -0.01870   0.01021   0.00000   0.01034  -3.03837
    D2       -0.97568  -0.00713  -0.02813   0.00000  -0.02875  -1.00444
    D3        1.12095   0.02427   0.06559   0.00000   0.06607   1.18702
    D4        2.87426   0.04717   0.17909   0.00000   0.18254   3.05680
    D5        0.00000  -0.06883   0.00000   0.00000   0.00000   0.00000
    D6       -1.36831   0.00055   0.13116   0.00000   0.13375  -1.23455
         Item               Value     Threshold  Converged?
 Maximum Force            0.047811     0.000450     NO 
 RMS     Force            0.020781     0.000300     NO 
 Maximum Displacement     0.261402     0.001800     NO 
 RMS     Displacement     0.093248     0.001200     NO 
 Predicted change in Energy=-2.143209D-02
 GradGradGradGradGradGradGradGradGradGradGradGradGradGradGradGradGradGrad

 Leave Link  103 at Wed Jan 16 17:58:06 2008, MaxMem=    6291456 cpu:       0.0
 (Enter C:\G03W\l202.exe)
                          Input orientation:                          
 ---------------------------------------------------------------------
 Center     Atomic     Atomic              Coordinates (Angstroms)
 Number     Number      Type              X           Y           Z
 ---------------------------------------------------------------------
    1         15      10151003       -0.430159   -0.281086    0.241617
    2          6      10061003       -0.384343    1.315033   -0.130232
    3          6      10061003        1.061289   -0.890973   -0.046563
    4          1      10011000       -1.224156   -0.746759   -0.501357
    5          1      10011000       -1.321773    1.836729    0.131658
    6          1      10011000        0.398308    1.819622    0.466232
    7          1      10011000       -0.172320    1.539792   -1.178744
    8          1      10011000        1.316062   -1.949632    0.204701
    9          1      10011000        1.883604   -0.284831   -0.417293
   10          1      10011000        1.388194   -0.603190    0.935100
 ---------------------------------------------------------------------
                    Distance matrix (angstroms):
                    1          2          3          4          5
     1  P    0.000000
     2  C    1.639502   0.000000
     3  C    1.636896   2.638810   0.000000
     4  H    1.182916   2.256990   2.334715   0.000000
     5  H    2.300480   1.104323   3.626446   2.661700   0.000000
     6  H    2.269313   1.105858   2.837222   3.186679   1.752401
     7  H    2.323683   1.093091   2.951652   2.606440   1.768210
     8  H    2.415512   3.696160   1.117498   2.897952   4.615197
     9  H    2.405759   2.790260   1.086762   3.143027   3.882886
    10  H    1.972582   2.820709   1.073941   2.984693   3.733985
                    6          7          8          9         10
     6  H    0.000000
     7  H    1.763482   0.000000
     8  H    3.888180   4.037980   0.000000
     9  H    2.723131   2.852347   1.865622   0.000000
    10  H    2.658896   3.390562   1.533490   1.475042   0.000000
 Stoichiometry    C2H7P
 Framework group  C1[X(C2H7P)]
 Deg. of freedom    24
 Full point group                 C1
 Largest Abelian subgroup         C1      NOp   1
 Largest concise Abelian subgroup C1      NOp   1
                         Standard orientation:                         
 ---------------------------------------------------------------------
 Center     Atomic     Atomic              Coordinates (Angstroms)
 Number     Number      Type              X           Y           Z
 ---------------------------------------------------------------------
    1         15      10151003       -0.003669   -0.532345   -0.088396
    2          6      10061003        1.313480    0.437027    0.027382
    3          6      10061003       -1.322782    0.409570    0.140000
    4          1      10011000        0.111410   -1.313219    0.792674
    5          1      10011000        2.250864   -0.093260   -0.216823
    6          1      10011000        1.247403    1.254437   -0.714505
    7          1      10011000        1.455298    0.910171    1.002507
    8          1      10011000       -2.356768    0.000146    0.030244
    9          1      10011000       -1.257762    1.477724    0.329399
   10          1      10011000       -1.339600    0.669593   -0.901851
 ---------------------------------------------------------------------
 Rotational constants (GHZ):     21.6687728      8.0137165      6.3703924
 Leave Link  202 at Wed Jan 16 17:58:06 2008, MaxMem=    6291456 cpu:       0.0
 (Enter C:\G03W\l301.exe)
 Standard basis: Dummy (5D, 7F)
 There are    10 symmetry adapted basis functions of A   symmetry.
 Integral buffers will be    262144 words long.
 Raffenetti 1 integral format.
 Two-electron integral symmetry is turned on.
    10 basis functions,    10 primitive gaussians,    10 cartesian basis functions
     6 alpha electrons        6 beta electrons
       nuclear repulsion energy        17.0961464210 Hartrees.



 Warning!  P  atom    1 may be hypervalent but has no d functions.



 IExCor=   0 DFT=F Ex=HF Corr=None ExCW=0 ScaHFX=  1.000000
 ScaDFX=  1.000000  1.000000  1.000000  1.000000
 IRadAn=      0 IRanWt=     -1 IRanGd=            0 ICorTp=0
 NAtoms=   10 NActive=   10 NUniq=   10 SFac= 7.50D-01 NAtFMM=   80 NAOKFM=F Big=F
 Leave Link  301 at Wed Jan 16 17:58:07 2008, MaxMem=    6291456 cpu:       0.0
 (Enter C:\G03W\l402.exe)
 Dreiding calculation of energy and first derivatives.
 MO and density RWFs will be updated without deorthogonalization.
 Energy=    0.063877414508 NIter=   0.
 Dipole moment=       0.000000       0.000000       0.000000
 Leave Link  402 at Wed Jan 16 17:58:07 2008, MaxMem=    6291456 cpu:       0.0
 (Enter C:\G03W\l716.exe)
 Dipole        = 0.00000000D+00 0.00000000D+00 0.00000000D+00
 ***** Axes restored to original set *****
 -------------------------------------------------------------------
 Center     Atomic                   Forces (Hartrees/Bohr)
 Number     Number              X              Y              Z
 -------------------------------------------------------------------
    1         15          -0.017294138   -0.003846889    0.031192656
    2          6           0.004768652    0.039951770   -0.002181370
    3          6           0.045498239   -0.006567320    0.051910193
    4          1           0.000962224   -0.005062460   -0.024067395
    5          1           0.002584384   -0.011994463   -0.001844217
    6          1          -0.004420776   -0.008145720   -0.003573850
    7          1          -0.000450541   -0.010036924   -0.000986521
    8          1          -0.018189600    0.005932630   -0.028690410
    9          1          -0.010035986   -0.002185835   -0.033347401
   10          1          -0.003422455    0.001955210    0.011588316
 -------------------------------------------------------------------
 Cartesian Forces:  Max     0.051910193 RMS     0.019352255
 Leave Link  716 at Wed Jan 16 17:58:07 2008, MaxMem=    6291456 cpu:       0.0
 (Enter C:\G03W\l103.exe)

 GradGradGradGradGradGradGradGradGradGradGradGradGradGradGradGradGradGrad
 Berny optimization.
 Internal  Forces:  Max     0.042558388 RMS     0.015479446
 Search for a local minimum.
 Step number   3 out of a maximum of  40
 All quantities printed in internal units (Hartrees-Bohrs-Radians)
   2   1  0.2853549E-03  0.1810662E-02  0.1575970    
 Update second derivatives using D2CorL and points  2  3
 lowest eigenvalue of the Hessian is  0.8326E-03.
 RFO step:  Lambda= 1.16763261D-02.
 Quartic linear search produced a step of  0.06280.
 Maximum step size (   0.424) exceeded in Quadratic search.
    -- Step size scaled by   0.561
 Iteration  1 RMS(Cart)=  0.08769988 RMS(Int)=  0.03832929
 Iteration  2 RMS(Cart)=  0.05626598 RMS(Int)=  0.00884486
 Iteration  3 RMS(Cart)=  0.00265939 RMS(Int)=  0.00840135
 Iteration  4 RMS(Cart)=  0.00003101 RMS(Int)=  0.00840132
 Iteration  5 RMS(Cart)=  0.00000082 RMS(Int)=  0.00840132
 Iteration  1 RMS(Cart)=  0.00122731 RMS(Int)=  0.00038561
 Iteration  2 RMS(Cart)=  0.00022900 RMS(Int)=  0.00041388
 Iteration  3 RMS(Cart)=  0.00004278 RMS(Int)=  0.00042488
 Iteration  4 RMS(Cart)=  0.00000800 RMS(Int)=  0.00042711
 Iteration  5 RMS(Cart)=  0.00000149 RMS(Int)=  0.00042753
 Iteration  6 RMS(Cart)=  0.00000028 RMS(Int)=  0.00042761
 Variable       Old X    -DE/DX   Delta X   Delta X   Delta X     New X
                                 (Linear)    (Quad)   (Total)
    R1        3.09821   0.01153  -0.01147   0.01993   0.00846   3.10667
    R2        3.09329   0.01268  -0.01159   0.02417   0.01258   3.10587
    R3        2.23539   0.01646  -0.01163   0.03972   0.02809   2.26347
    R4        2.08687  -0.00830  -0.00045  -0.01462  -0.01508   2.07179
    R5        2.08977  -0.00877  -0.00050  -0.01448  -0.01498   2.07479
    R6        2.06564  -0.00120  -0.00107  -0.00230  -0.00337   2.06227
    R7        2.11176  -0.01622   0.00007  -0.02539  -0.02532   2.08645
    R8        2.05368   0.00256  -0.00448   0.00359  -0.00089   2.05279
    R9        2.02945   0.01007  -0.00315   0.01130   0.00815   2.03760
    A1        1.87270  -0.01254   0.00003  -0.04474  -0.04728   1.82542
    A2        1.83335  -0.02066  -0.00151  -0.09084  -0.09845   1.73490
    A3        1.93299  -0.02016  -0.00235  -0.12474  -0.13420   1.79879
    A4        1.96319  -0.00836   0.00083  -0.03544  -0.03518   1.92801
    A5        1.91948   0.00160  -0.00034  -0.01913  -0.02009   1.89939
    A6        2.00772  -0.01480   0.00235  -0.01724  -0.01447   1.99325
    A7        1.83103   0.01441  -0.00221   0.03133   0.02739   1.85842
    A8        1.87025   0.00434  -0.00043   0.02350   0.02346   1.89371
    A9        1.86113   0.00618  -0.00059   0.02497   0.02476   1.88590
   A10        2.11895  -0.00443   0.00132  -0.01050  -0.03389   2.08507
   A11        2.14323  -0.00131   0.00322   0.00979  -0.01160   2.13163
   A12        1.58738   0.00442   0.00363   0.08451   0.08695   1.67433
   A13        2.01815   0.00859  -0.00281   0.02930   0.00072   2.01886
   A14        1.54973   0.01142   0.00323   0.13733   0.13944   1.68917
   A15        1.50278   0.01985   0.00308   0.13248   0.13441   1.63719
    D1       -3.03837  -0.01845   0.00065  -0.05916  -0.05478  -3.09315
    D2       -1.00444  -0.00462  -0.00181  -0.05425  -0.05433  -1.05876
    D3        1.18702   0.02079   0.00415   0.14991   0.14860   1.33562
    D4        3.05680   0.04256   0.01146   0.42426   0.42567  -2.80072
    D5        0.00000  -0.03624   0.00000   0.00000   0.00000   0.00000
    D6       -1.23455   0.00082   0.00840   0.22806   0.24050  -0.99405
         Item               Value     Threshold  Converged?
 Maximum Force            0.042558     0.000450     NO 
 RMS     Force            0.014233     0.000300     NO 
 Maximum Displacement     0.408312     0.001800     NO 
 RMS     Displacement     0.135301     0.001200     NO 
 Predicted change in Energy=-2.814596D-02
 GradGradGradGradGradGradGradGradGradGradGradGradGradGradGradGradGradGrad

 Leave Link  103 at Wed Jan 16 17:58:07 2008, MaxMem=    6291456 cpu:       0.0
 (Enter C:\G03W\l202.exe)
                          Input orientation:                          
 ---------------------------------------------------------------------
 Center     Atomic     Atomic              Coordinates (Angstroms)
 Number     Number      Type              X           Y           Z
 ---------------------------------------------------------------------
    1         15      10151003       -0.436841   -0.245499    0.373107
    2          6      10061003       -0.386984    1.315491   -0.140212
    3          6      10061003        1.062099   -0.836188    0.048251
    4          1      10011000       -1.108569   -0.717020   -0.499316
    5          1      10011000       -1.334878    1.821278    0.078070
    6          1      10011000        0.388333    1.849625    0.424624
    7          1      10011000       -0.170170    1.430098   -1.203605
    8          1      10011000        1.214386   -1.928108   -0.011369
    9          1      10011000        1.836229   -0.227341   -0.410069
   10          1      10011000        1.451103   -0.707630    1.045637
 ---------------------------------------------------------------------
                    Distance matrix (angstroms):
                    1          2          3          4          5
     1  P    0.000000
     2  C    1.643981   0.000000
     3  C    1.643554   2.600978   0.000000
     4  H    1.197778   2.186491   2.241837   0.000000
     5  H    2.272682   1.096345   3.578899   2.612958   0.000000
     6  H    2.252356   1.097932   2.794496   3.111599   1.757942
     7  H    2.316195   1.091305   2.867348   2.446780   1.775459
     8  H    2.388629   3.619658   1.104099   2.664760   4.534826
     9  H    2.404275   2.719527   1.086291   2.986567   3.806710
    10  H    2.056744   2.979567   1.078253   2.989798   3.885004
                    6          7          8          9         10
     6  H    0.000000
     7  H    1.771738   0.000000
     8  H    3.891493   3.823084   0.000000
     9  H    2.665878   2.720743   1.854254   0.000000
    10  H    2.838079   3.501071   1.631829   1.580531   0.000000
 Stoichiometry    C2H7P
 Framework group  C1[X(C2H7P)]
 Deg. of freedom    24
 Full point group                 C1
 Largest Abelian subgroup         C1      NOp   1
 Largest concise Abelian subgroup C1      NOp   1
                         Standard orientation:                         
 ---------------------------------------------------------------------
 Center     Atomic     Atomic              Coordinates (Angstroms)
 Number     Number      Type              X           Y           Z
 ---------------------------------------------------------------------
    1         15      10151003        0.002884   -0.552077   -0.098556
    2          6      10061003        1.300763    0.448482    0.032073
    3          6      10061003       -1.299459    0.432113    0.092603
    4          1      10011000        0.078407   -1.109615    0.958856
    5          1      10011000        2.231437   -0.107577   -0.131068
    6          1      10011000        1.246494    1.204720   -0.762038
    7          1      10011000        1.370862    0.967731    0.989369
    8          1      10011000       -2.274333   -0.005033    0.371097
    9          1      10011000       -1.196588    1.499985    0.263180
   10          1      10011000       -1.507364    0.547367   -0.959120
 ---------------------------------------------------------------------
 Rotational constants (GHZ):     20.9034680      8.1547230      6.4620859
 Leave Link  202 at Wed Jan 16 17:58:07 2008, MaxMem=    6291456 cpu:       0.0
 (Enter C:\G03W\l301.exe)
 Standard basis: Dummy (5D, 7F)
 There are    10 symmetry adapted basis functions of A   symmetry.
 Integral buffers will be    262144 words long.
 Raffenetti 1 integral format.
 Two-electron integral symmetry is turned on.
    10 basis functions,    10 primitive gaussians,    10 cartesian basis functions
     6 alpha electrons        6 beta electrons
       nuclear repulsion energy        17.1692354784 Hartrees.



 Warning!  P  atom    1 may be hypervalent but has no d functions.



 IExCor=   0 DFT=F Ex=HF Corr=None ExCW=0 ScaHFX=  1.000000
 ScaDFX=  1.000000  1.000000  1.000000  1.000000
 IRadAn=      0 IRanWt=     -1 IRanGd=            0 ICorTp=0
 NAtoms=   10 NActive=   10 NUniq=   10 SFac= 7.50D-01 NAtFMM=   80 NAOKFM=F Big=F
 Leave Link  301 at Wed Jan 16 17:58:07 2008, MaxMem=    6291456 cpu:       0.0
 (Enter C:\G03W\l402.exe)
 Dreiding calculation of energy and first derivatives.
 MO and density RWFs will be updated without deorthogonalization.
 Energy=    0.033534849762 NIter=   0.
 Dipole moment=       0.000000       0.000000       0.000000
 Leave Link  402 at Wed Jan 16 17:58:08 2008, MaxMem=    6291456 cpu:       0.0
 (Enter C:\G03W\l716.exe)
 Dipole        = 0.00000000D+00 0.00000000D+00 0.00000000D+00
 ***** Axes restored to original set *****
 -------------------------------------------------------------------
 Center     Atomic                   Forces (Hartrees/Bohr)
 Number     Number              X              Y              Z
 -------------------------------------------------------------------
    1         15          -0.017934492   -0.005497764    0.011876969
    2          6           0.004990093    0.022658683    0.000494364
    3          6           0.034390022   -0.007647165    0.039546918
    4          1           0.003555611   -0.002277878   -0.012613548
    5          1           0.000739783   -0.005517064   -0.001626265
    6          1          -0.002306240   -0.002456629   -0.002181829
    7          1          -0.000210637   -0.005662401   -0.001009255
    8          1          -0.012620879    0.007452118   -0.017536344
    9          1          -0.010787280    0.000427436   -0.024988258
   10          1           0.000184020   -0.001479336    0.008037249
 -------------------------------------------------------------------
 Cartesian Forces:  Max     0.039546918 RMS     0.013449330
 Leave Link  716 at Wed Jan 16 17:58:08 2008, MaxMem=    6291456 cpu:       0.0
 (Enter C:\G03W\l103.exe)

 GradGradGradGradGradGradGradGradGradGradGradGradGradGradGradGradGradGrad
 Berny optimization.
 Internal  Forces:  Max     0.034235126 RMS     0.011358224
 Search for a local minimum.
 Step number   4 out of a maximum of  40
 All quantities printed in internal units (Hartrees-Bohrs-Radians)
   2   1 -0.3626256E-02  0.2561658E-01  0.1415590    
 Update second derivatives using D2CorL and points  3  4
 Trust test= 1.08D+00 RLast= 5.91D-01 DXMaxT set to 6.00D-01
 Maximum step size (   0.600) exceeded in linear search.
    -- Step size scaled by   0.726
 Quartic linear search produced a step of  1.03253.
 Iteration  1 RMS(Cart)=  0.09871463 RMS(Int)=  0.04135350
 Iteration  2 RMS(Cart)=  0.05854048 RMS(Int)=  0.01675203
 Iteration  3 RMS(Cart)=  0.00304311 RMS(Int)=  0.01647725
 Iteration  4 RMS(Cart)=  0.00011982 RMS(Int)=  0.01647705
 Iteration  5 RMS(Cart)=  0.00000667 RMS(Int)=  0.01647705
 Iteration  6 RMS(Cart)=  0.00000038 RMS(Int)=  0.01647705
 Iteration  1 RMS(Cart)=  0.00621990 RMS(Int)=  0.00235171
 Iteration  2 RMS(Cart)=  0.00159647 RMS(Int)=  0.00256815
 Iteration  3 RMS(Cart)=  0.00041318 RMS(Int)=  0.00268590
 Iteration  4 RMS(Cart)=  0.00010717 RMS(Int)=  0.00271985
 Iteration  5 RMS(Cart)=  0.00002781 RMS(Int)=  0.00272887
 Iteration  6 RMS(Cart)=  0.00000722 RMS(Int)=  0.00273123
 Iteration  7 RMS(Cart)=  0.00000187 RMS(Int)=  0.00273184
 Iteration  8 RMS(Cart)=  0.00000049 RMS(Int)=  0.00273200
 Variable       Old X    -DE/DX   Delta X   Delta X   Delta X     New X
                                 (Linear)    (Quad)   (Total)
    R1        3.10667   0.01001   0.00874   0.00000   0.00875   3.11542
    R2        3.10587   0.00963   0.01299   0.00000   0.01300   3.11887
    R3        2.26347   0.00809   0.02900   0.00000   0.02901   2.29248
    R4        2.07179  -0.00351  -0.01557   0.00000  -0.01556   2.05623
    R5        2.07479  -0.00395  -0.01547   0.00000  -0.01545   2.05934
    R6        2.06227   0.00035  -0.00348   0.00000  -0.00346   2.05880
    R7        2.08645  -0.00816  -0.02614   0.00000  -0.02614   2.06031
    R8        2.05279   0.00310  -0.00092   0.00000  -0.00075   2.05204
    R9        2.03760   0.00732   0.00841   0.00000   0.00849   2.04609
    A1        1.82542  -0.01092  -0.04882   0.00000  -0.04966   1.77576
    A2        1.73490  -0.01565  -0.10165   0.00000  -0.10371   1.63119
    A3        1.79879  -0.01365  -0.13857   0.00000  -0.15003   1.64875
    A4        1.92801  -0.00371  -0.03633   0.00000  -0.03751   1.89050
    A5        1.89939   0.00392  -0.02074   0.00000  -0.02195   1.87744
    A6        1.99325  -0.00975  -0.01494   0.00000  -0.01413   1.97912
    A7        1.85842   0.00701   0.02828   0.00000   0.02460   1.88303
    A8        1.89371   0.00119   0.02423   0.00000   0.02503   1.91874
    A9        1.88590   0.00264   0.02557   0.00000   0.02636   1.91225
   A10        2.08507  -0.00834  -0.03499   0.00000  -0.08054   2.00452
   A11        2.13163  -0.00735  -0.01198   0.00000  -0.05648   2.07514
   A12        1.67433   0.00707   0.08978   0.00000   0.09041   1.76474
   A13        2.01886   0.00700   0.00074   0.00000  -0.05822   1.96065
   A14        1.68917   0.00580   0.14398   0.00000   0.14459   1.83376
   A15        1.63719   0.01378   0.13879   0.00000   0.13942   1.77661
    D1       -3.09315  -0.01132  -0.05656   0.00000  -0.04906   3.14098
    D2       -1.05876  -0.00264  -0.05609   0.00000  -0.05233  -1.11109
    D3        1.33562   0.01090   0.15344   0.00000   0.14217   1.47779
    D4       -2.80072   0.02883   0.43952   0.00000   0.40569  -2.39503
    D5        0.00000  -0.03424   0.00000   0.00000   0.00000   0.00000
    D6       -0.99405   0.00428   0.24833   0.00000   0.24798  -0.74608
         Item               Value     Threshold  Converged?
 Maximum Force            0.028831     0.000450     NO 
 RMS     Force            0.009646     0.000300     NO 
 Maximum Displacement     0.381493     0.001800     NO 
 RMS     Displacement     0.145093     0.001200     NO 
 Predicted change in Energy=-1.931758D-02
 GradGradGradGradGradGradGradGradGradGradGradGradGradGradGradGradGradGrad

 Leave Link  103 at Wed Jan 16 17:58:08 2008, MaxMem=    6291456 cpu:       0.0
 (Enter C:\G03W\l202.exe)
                          Input orientation:                          
 ---------------------------------------------------------------------
 Center     Atomic     Atomic              Coordinates (Angstroms)
 Number     Number      Type              X           Y           Z
 ---------------------------------------------------------------------
    1         15      10151003       -0.442838   -0.211370    0.497642
    2          6      10061003       -0.380101    1.301684   -0.154010
    3          6      10061003        1.060475   -0.792650    0.142538
    4          1      10011000       -0.965076   -0.693016   -0.485703
    5          1      10011000       -1.336487    1.789820    0.022149
    6          1      10011000        0.385077    1.860315    0.384512
    7          1      10011000       -0.152134    1.304754   -1.219361
    8          1      10011000        1.081051   -1.823028   -0.213246
    9          1      10011000        1.755405   -0.155895   -0.396703
   10          1      10011000        1.509333   -0.825908    1.127299
 ---------------------------------------------------------------------
                    Distance matrix (angstroms):
                    1          2          3          4          5
     1  P    0.000000
     2  C    1.648611   0.000000
     3  C    1.650435   2.559186   0.000000
     4  H    1.213129   2.105004   2.123080   0.000000
     5  H    2.242646   1.088110   3.525488   2.561314   0.000000
     6  H    2.233858   1.089758   2.748260   3.016569   1.760698
     7  H    2.308948   1.089472   2.779261   2.278204   1.783067
     8  H    2.329172   3.449970   1.090268   2.353252   4.353454
     9  H    2.373858   2.596886   1.085893   2.774425   3.677096
    10  H    2.141284   3.120634   1.082744   2.956710   4.020208
                    6          7          8          9         10
     6  H    0.000000
     7  H    1.780351   0.000000
     8  H    3.795880   3.509421   0.000000
     9  H    2.559921   2.539481   1.807689   0.000000
    10  H    3.005242   3.578688   1.724742   1.682870   0.000000
 Stoichiometry    C2H7P
 Framework group  C1[X(C2H7P)]
 Deg. of freedom    24
 Full point group                 C1
 Largest Abelian subgroup         C1      NOp   1
 Largest concise Abelian subgroup C1      NOp   1
                         Standard orientation:                         
 ---------------------------------------------------------------------
 Center     Atomic     Atomic              Coordinates (Angstroms)
 Number     Number      Type              X           Y           Z
 ---------------------------------------------------------------------
    1         15      10151003        0.007198   -0.578732   -0.092639
    2          6      10061003        1.279999    0.462666    0.023056
    3          6      10061003       -1.279093    0.447052    0.038348
    4          1      10011000        0.029690   -0.853394    1.088774
    5          1      10011000        2.200512   -0.112780   -0.051120
    6          1      10011000        1.234817    1.133888   -0.834261
    7          1      10011000        1.279579    1.045775    0.943345
    8          1      10011000       -2.086698    0.089897    0.677801
    9          1      10011000       -1.092418    1.509395    0.163823
   10          1      10011000       -1.678881    0.409894   -0.967198
 ---------------------------------------------------------------------
 Rotational constants (GHZ):     20.0311550      8.3896639      6.5992138
 Leave Link  202 at Wed Jan 16 17:58:08 2008, MaxMem=    6291456 cpu:       0.0
 (Enter C:\G03W\l301.exe)
 Standard basis: Dummy (5D, 7F)
 There are    10 symmetry adapted basis functions of A   symmetry.
 Integral buffers will be    262144 words long.
 Raffenetti 1 integral format.
 Two-electron integral symmetry is turned on.
    10 basis functions,    10 primitive gaussians,    10 cartesian basis functions
     6 alpha electrons        6 beta electrons
       nuclear repulsion energy        17.3485728678 Hartrees.



 Warning!  P  atom    1 may be hypervalent but has no d functions.



 IExCor=   0 DFT=F Ex=HF Corr=None ExCW=0 ScaHFX=  1.000000
 ScaDFX=  1.000000  1.000000  1.000000  1.000000
 IRadAn=      0 IRanWt=     -1 IRanGd=            0 ICorTp=0
 NAtoms=   10 NActive=   10 NUniq=   10 SFac= 7.50D-01 NAtFMM=   80 NAOKFM=F Big=F
 Leave Link  301 at Wed Jan 16 17:58:08 2008, MaxMem=    6291456 cpu:       0.0
 (Enter C:\G03W\l402.exe)
 Dreiding calculation of energy and first derivatives.
 MO and density RWFs will be updated without deorthogonalization.
 Energy=    0.016634163126 NIter=   0.
 Dipole moment=       0.000000       0.000000       0.000000
 Leave Link  402 at Wed Jan 16 17:58:09 2008, MaxMem=    6291456 cpu:       0.0
 (Enter C:\G03W\l716.exe)
 Dipole        = 0.00000000D+00 0.00000000D+00 0.00000000D+00
 ***** Axes restored to original set *****
 -------------------------------------------------------------------
 Center     Atomic                   Forces (Hartrees/Bohr)
 Number     Number              X              Y              Z
 -------------------------------------------------------------------
    1         15          -0.010993606   -0.006767884   -0.011218141
    2          6           0.002371593    0.008263913    0.007577083
    3          6           0.019767832   -0.003509753    0.025498835
    4          1          -0.001858293   -0.001254925    0.001574576
    5          1          -0.001715770    0.000866723   -0.002629422
    6          1           0.000086226    0.003697783   -0.001658958
    7          1           0.000029213    0.000164155   -0.002573180
    8          1          -0.004939469    0.001248052   -0.006270067
    9          1          -0.006177571    0.001807885   -0.013558328
   10          1           0.003429844   -0.004515949    0.003257602
 -------------------------------------------------------------------
 Cartesian Forces:  Max     0.025498835 RMS     0.007856234
 Leave Link  716 at Wed Jan 16 17:58:09 2008, MaxMem=    6291456 cpu:       0.0
 (Enter C:\G03W\l103.exe)

 GradGradGradGradGradGradGradGradGradGradGradGradGradGradGradGradGradGrad
 Berny optimization.
 Internal  Forces:  Max     0.030346613 RMS     0.007546212
 Search for a local minimum.
 Step number   5 out of a maximum of  40
 All quantities printed in internal units (Hartrees-Bohrs-Radians)
   2   1  0.6735001E-02  0.1553191E-01  0.4336234    
 Update second derivatives using D2CorL and points  4  5
 lowest eigenvalue of the Hessian is  0.8395E-03.
 RFO step:  Lambda= 1.32829075D-03.
 Quartic linear search produced a step of  0.28912.
 Iteration  1 RMS(Cart)=  0.13969725 RMS(Int)=  0.03016405
 Iteration  2 RMS(Cart)=  0.04050853 RMS(Int)=  0.00717030
 Iteration  3 RMS(Cart)=  0.00106755 RMS(Int)=  0.00710287
 Iteration  4 RMS(Cart)=  0.00001625 RMS(Int)=  0.00710286
 Iteration  5 RMS(Cart)=  0.00000042 RMS(Int)=  0.00710286
 Iteration  1 RMS(Cart)=  0.00426858 RMS(Int)=  0.00185818
 Iteration  2 RMS(Cart)=  0.00138178 RMS(Int)=  0.00205220
 Iteration  3 RMS(Cart)=  0.00044876 RMS(Int)=  0.00218701
 Iteration  4 RMS(Cart)=  0.00014590 RMS(Int)=  0.00223676
 Iteration  5 RMS(Cart)=  0.00004745 RMS(Int)=  0.00225352
 Iteration  6 RMS(Cart)=  0.00001543 RMS(Int)=  0.00225902
 Iteration  7 RMS(Cart)=  0.00000502 RMS(Int)=  0.00226082
 Iteration  8 RMS(Cart)=  0.00000163 RMS(Int)=  0.00226141
 Iteration  9 RMS(Cart)=  0.00000053 RMS(Int)=  0.00226160
 Variable       Old X    -DE/DX   Delta X   Delta X   Delta X     New X
                                 (Linear)    (Quad)   (Total)
    R1        3.11542   0.01167   0.00253   0.04217   0.04471   3.16013
    R2        3.11887   0.01083   0.00376   0.03807   0.04183   3.16070
    R3        2.29248   0.00002   0.00839  -0.02157  -0.01318   2.27930
    R4        2.05623   0.00147  -0.00450   0.00662   0.00213   2.05836
    R5        2.05934   0.00114  -0.00447   0.00548   0.00102   2.06037
    R6        2.05880   0.00252  -0.00100   0.00881   0.00782   2.06662
    R7        2.06031   0.00077  -0.00756   0.00655  -0.00100   2.05930
    R8        2.05204   0.00384  -0.00022   0.01269   0.01256   2.06460
    R9        2.04609   0.00452   0.00245   0.01235   0.01484   2.06093
    A1        1.77576   0.00611  -0.01436   0.03219   0.01841   1.79417
    A2        1.63119  -0.00295  -0.02998   0.03541   0.01247   1.64366
    A3        1.64875   0.00068  -0.04338   0.05645   0.01215   1.66090
    A4        1.89050   0.00070  -0.01085   0.01078  -0.00051   1.88998
    A5        1.87744   0.00658  -0.00635   0.04468   0.03791   1.91534
    A6        1.97912  -0.00166  -0.00408  -0.00710  -0.01106   1.96806
    A7        1.88303  -0.00151   0.00711  -0.00248   0.00358   1.88661
    A8        1.91874  -0.00259   0.00724  -0.02854  -0.02118   1.89755
    A9        1.91225  -0.00136   0.00762  -0.01549  -0.00775   1.90450
   A10        2.00452  -0.00638  -0.02329  -0.05270  -0.09256   1.91196
   A11        2.07514  -0.00691  -0.01633  -0.06202  -0.09376   1.98138
   A12        1.76474   0.00863   0.02614   0.09028   0.11959   1.88434
   A13        1.96065   0.00434  -0.01683  -0.00933  -0.05728   1.90337
   A14        1.83376  -0.00239   0.04180   0.01654   0.06137   1.89513
   A15        1.77661   0.00600   0.04031   0.06567   0.10915   1.88576
    D1        3.14098  -0.00185  -0.01418  -0.23748  -0.25004   2.89094
    D2       -1.11109   0.00020  -0.01513  -0.21129  -0.22544  -1.33653
    D3        1.47779  -0.00240   0.04110  -0.30547  -0.26697   1.21082
    D4       -2.39503   0.00978   0.11729   0.16451   0.26279  -2.13224
    D5        0.00000  -0.03035   0.00000   0.00000   0.00000   0.00000
    D6       -0.74608   0.00747   0.07169   0.21599   0.28026  -0.46581
         Item               Value     Threshold  Converged?
 Maximum Force            0.011671     0.000450     NO 
 RMS     Force            0.005211     0.000300     NO 
 Maximum Displacement     0.380787     0.001800     NO 
 RMS     Displacement     0.172070     0.001200     NO 
 Predicted change in Energy=-5.609086D-03
 GradGradGradGradGradGradGradGradGradGradGradGradGradGradGradGradGradGrad

 Leave Link  103 at Wed Jan 16 17:58:09 2008, MaxMem=    6291456 cpu:       0.0
 (Enter C:\G03W\l202.exe)
                          Input orientation:                          
 ---------------------------------------------------------------------
 Center     Atomic     Atomic              Coordinates (Angstroms)
 Number     Number      Type              X           Y           Z
 ---------------------------------------------------------------------
    1         15      10151003       -0.400720   -0.175123    0.579173
    2          6      10061003       -0.370634    1.326458   -0.156239
    3          6      10061003        1.096642   -0.809384    0.187875
    4          1      10011000       -0.985418   -0.707314   -0.331710
    5          1      10011000       -1.387508    1.716159   -0.179354
    6          1      10011000        0.241397    2.011787    0.430699
    7          1      10011000        0.014247    1.288958   -1.179198
    8          1      10011000        0.965857   -1.751206   -0.344473
    9          1      10011000        1.709242   -0.138643   -0.419137
   10          1      10011000        1.631600   -1.006985    1.117483
 ---------------------------------------------------------------------
                    Distance matrix (angstroms):
                    1          2          3          4          5
     1  P    0.000000
     2  C    1.672269   0.000000
     3  C    1.672571   2.614027   0.000000
     4  H    1.206153   2.131896   2.148338   0.000000
     5  H    2.264081   1.089235   3.561492   2.461323   0.000000
     6  H    2.284061   1.090300   2.957940   3.078937   1.764339
     7  H    2.325425   1.093610   2.728279   2.388026   1.774008
     8  H    2.281379   3.360603   1.089737   2.212994   4.193829
     9  H    2.334501   2.557640   1.092537   2.755399   3.617685
    10  H    2.260995   3.328102   1.090595   3.006451   4.267589
                    6          7          8          9         10
     6  H    0.000000
     7  H    1.779282   0.000000
     8  H    3.909711   3.293162   0.000000
     9  H    2.738820   2.342807   1.777233   0.000000
    10  H    3.393717   3.627937   1.770422   1.766705   0.000000
 Stoichiometry    C2H7P
 Framework group  C1[X(C2H7P)]
 Deg. of freedom    24
 Full point group                 C1
 Largest Abelian subgroup         C1      NOp   1
 Largest concise Abelian subgroup C1      NOp   1
                         Standard orientation:                         
 ---------------------------------------------------------------------
 Center     Atomic     Atomic              Coordinates (Angstroms)
 Number     Number      Type              X           Y           Z
 ---------------------------------------------------------------------
    1         15      10151003        0.000309   -0.580226   -0.093788
    2          6      10061003        1.306387    0.458623    0.013156
    3          6      10061003       -1.307639    0.456642    0.014258
    4          1      10011000        0.014284   -0.859922    1.079404
    5          1      10011000        2.199154   -0.133786    0.209246
    6          1      10011000        1.444753    0.975290   -0.936931
    7          1      10011000        1.194149    1.198769    0.810382
    8          1      10011000       -1.933108    0.167818    0.858589
    9          1      10011000       -1.024295    1.506198    0.122822
   10          1      10011000       -1.892055    0.357426   -0.901172
 ---------------------------------------------------------------------
 Rotational constants (GHZ):     19.8725314      8.1002603      6.4190391
 Leave Link  202 at Wed Jan 16 17:58:09 2008, MaxMem=    6291456 cpu:       0.0
 (Enter C:\G03W\l301.exe)
 Standard basis: Dummy (5D, 7F)
 There are    10 symmetry adapted basis functions of A   symmetry.
 Integral buffers will be    262144 words long.
 Raffenetti 1 integral format.
 Two-electron integral symmetry is turned on.
    10 basis functions,    10 primitive gaussians,    10 cartesian basis functions
     6 alpha electrons        6 beta electrons
       nuclear repulsion energy        17.2197867549 Hartrees.



 Warning!  P  atom    1 may be hypervalent but has no d functions.



 IExCor=   0 DFT=F Ex=HF Corr=None ExCW=0 ScaHFX=  1.000000
 ScaDFX=  1.000000  1.000000  1.000000  1.000000
 IRadAn=      0 IRanWt=     -1 IRanGd=            0 ICorTp=0
 NAtoms=   10 NActive=   10 NUniq=   10 SFac= 7.50D-01 NAtFMM=   80 NAOKFM=F Big=F
 Leave Link  301 at Wed Jan 16 17:58:09 2008, MaxMem=    6291456 cpu:       0.0
 (Enter C:\G03W\l402.exe)
 Dreiding calculation of energy and first derivatives.
 MO and density RWFs will be updated without deorthogonalization.
 Energy=    0.012635382374 NIter=   0.
 Dipole moment=       0.000000       0.000000       0.000000
 Leave Link  402 at Wed Jan 16 17:58:09 2008, MaxMem=    6291456 cpu:       0.0
 (Enter C:\G03W\l716.exe)
 Dipole        = 0.00000000D+00 0.00000000D+00 0.00000000D+00
 ***** Axes restored to original set *****
 -------------------------------------------------------------------
 Center     Atomic                   Forces (Hartrees/Bohr)
 Number     Number              X              Y              Z
 -------------------------------------------------------------------
    1         15           0.005725515    0.004048972   -0.002789071
    2          6          -0.001837366   -0.002024530    0.003510764
    3          6          -0.002590214    0.003031661    0.003578036
    4          1          -0.004634327   -0.000352301   -0.002762298
    5          1          -0.000640473    0.001082595   -0.000638070
    6          1           0.001007412   -0.000708217    0.000286246
    7          1          -0.001708313   -0.000007200   -0.000112653
    8          1           0.003487866   -0.002391268   -0.000170698
    9          1           0.001041339   -0.002401386   -0.000426016
   10          1           0.000148560   -0.000278326   -0.000476240
 -------------------------------------------------------------------
 Cartesian Forces:  Max     0.005725515 RMS     0.002355694
 Leave Link  716 at Wed Jan 16 17:58:10 2008, MaxMem=    6291456 cpu:       0.0
 (Enter C:\G03W\l103.exe)

 GradGradGradGradGradGradGradGradGradGradGradGradGradGradGradGradGradGrad
 Berny optimization.
 Internal  Forces:  Max     0.009573140 RMS     0.002839450
 Search for a local minimum.
 Step number   6 out of a maximum of  40
 All quantities printed in internal units (Hartrees-Bohrs-Radians)
   2   1  0.3995209E-02  0.1789317E-01  0.2232812    
 Update second derivatives using D2CorL and points  5  6
 Trust test= 7.13D-01 RLast= 6.24D-01 DXMaxT set to 6.00D-01
 lowest eigenvalue of the Hessian is  0.1334E-02.
 RFO step:  Lambda= 2.20368452D-04.
 Quartic linear search produced a step of -0.17898.
 Iteration  1 RMS(Cart)=  0.10832468 RMS(Int)=  0.00749863
 Iteration  2 RMS(Cart)=  0.00923417 RMS(Int)=  0.00088916
 Iteration  3 RMS(Cart)=  0.00005927 RMS(Int)=  0.00088802
 Iteration  4 RMS(Cart)=  0.00000001 RMS(Int)=  0.00088802
 Iteration  1 RMS(Cart)=  0.00056001 RMS(Int)=  0.00024214
 Iteration  2 RMS(Cart)=  0.00017895 RMS(Int)=  0.00026716
 Iteration  3 RMS(Cart)=  0.00005715 RMS(Int)=  0.00028429
 Iteration  4 RMS(Cart)=  0.00001825 RMS(Int)=  0.00029048
 Iteration  5 RMS(Cart)=  0.00000583 RMS(Int)=  0.00029253
 Iteration  6 RMS(Cart)=  0.00000186 RMS(Int)=  0.00029319
 Iteration  7 RMS(Cart)=  0.00000059 RMS(Int)=  0.00029340
 Variable       Old X    -DE/DX   Delta X   Delta X   Delta X     New X
                                 (Linear)    (Quad)   (Total)
    R1        3.16013  -0.00289  -0.00800   0.00148  -0.00653   3.15360
    R2        3.16070   0.00206  -0.00749   0.01763   0.01014   3.17084
    R3        2.27930   0.00449   0.00236   0.01143   0.01379   2.29309
    R4        2.05836   0.00100  -0.00038   0.00322   0.00284   2.06120
    R5        2.06037   0.00027  -0.00018   0.00121   0.00103   2.06140
    R6        2.06662  -0.00050  -0.00140   0.00109  -0.00031   2.06632
    R7        2.05930   0.00173   0.00018   0.00373   0.00391   2.06322
    R8        2.06460  -0.00065  -0.00225   0.00199  -0.00025   2.06434
    R9        2.06093  -0.00028  -0.00266   0.00439   0.00173   2.06266
    A1        1.79417   0.00957  -0.00329   0.03118   0.02768   1.82185
    A2        1.64366  -0.00093  -0.00223   0.00253  -0.00117   1.64250
    A3        1.66090   0.00453  -0.00217   0.03580   0.03344   1.69434
    A4        1.88998   0.00082   0.00009   0.00697   0.00708   1.89706
    A5        1.91534  -0.00086  -0.00678   0.01072   0.00395   1.91930
    A6        1.96806   0.00037   0.00198  -0.00932  -0.00735   1.96071
    A7        1.88661  -0.00010  -0.00064   0.00712   0.00653   1.89314
    A8        1.89755  -0.00210   0.00379  -0.01720  -0.01342   1.88413
    A9        1.90450   0.00182   0.00139   0.00213   0.00351   1.90801
   A10        1.91196   0.00502   0.01657   0.00076   0.01929   1.93125
   A11        1.98138   0.00256   0.01678  -0.01145   0.00715   1.98853
   A12        1.88434  -0.00108  -0.02140   0.02444   0.00239   1.88673
   A13        1.90337  -0.00281   0.01025  -0.02757  -0.01344   1.88993
   A14        1.89513  -0.00217  -0.01098  -0.00227  -0.01385   1.88128
   A15        1.88576  -0.00181  -0.01954   0.01719  -0.00298   1.88278
    D1        2.89094   0.00330   0.04475   0.15699   0.20160   3.09254
    D2       -1.33653   0.00317   0.04035   0.17562   0.21592  -1.12061
    D3        1.21082  -0.00209   0.04778   0.11645   0.16443   1.37526
    D4       -2.13224  -0.00184  -0.04703   0.04301  -0.00204  -2.13428
    D5        0.00000  -0.00204   0.00000   0.00000   0.00000   0.00000
    D6       -0.46581  -0.00065  -0.05016   0.05761   0.00890  -0.45691
         Item               Value     Threshold  Converged?
 Maximum Force            0.009573     0.000450     NO 
 RMS     Force            0.002863     0.000300     NO 
 Maximum Displacement     0.334139     0.001800     NO 
 RMS     Displacement     0.113479     0.001200     NO 
 Predicted change in Energy=-9.899636D-04
 GradGradGradGradGradGradGradGradGradGradGradGradGradGradGradGradGradGrad

 Leave Link  103 at Wed Jan 16 17:58:10 2008, MaxMem=    6291456 cpu:       0.0
 (Enter C:\G03W\l202.exe)
                          Input orientation:                          
 ---------------------------------------------------------------------
 Center     Atomic     Atomic              Coordinates (Angstroms)
 Number     Number      Type              X           Y           Z
 ---------------------------------------------------------------------
    1         15      10151003       -0.415482   -0.187709    0.525976
    2          6      10061003       -0.391398    1.330205   -0.167063
    3          6      10061003        1.110658   -0.812065    0.215254
    4          1      10011000       -0.982492   -0.703728   -0.414602
    5          1      10011000       -1.376039    1.784255   -0.048602
    6          1      10011000        0.342310    1.959141    0.338953
    7          1      10011000       -0.162572    1.295598   -1.235739
    8          1      10011000        1.037513   -1.750102   -0.338626
    9          1      10011000        1.761525   -0.134682   -0.342304
   10          1      10011000        1.590682   -1.026207    1.171871
 ---------------------------------------------------------------------
                    Distance matrix (angstroms):
                    1          2          3          4          5
     1  P    0.000000
     2  C    1.668816   0.000000
     3  C    1.677936   2.644174   0.000000
     4  H    1.213451   2.132499   2.188546   0.000000
     5  H    2.267477   1.090739   3.604741   2.545367   0.000000
     6  H    2.284336   1.090844   2.878410   3.068195   1.770172
     7  H    2.316852   1.093448   2.858101   2.311676   1.766517
     8  H    2.302129   3.399928   1.091808   2.276201   4.289641
     9  H    2.344372   2.609919   1.092404   2.803332   3.689564
    10  H    2.268249   3.357687   1.091511   3.040085   4.264936
                    6          7          8          9         10
     6  H    0.000000
     7  H    1.781811   0.000000
     8  H    3.834176   3.394305   0.000000
     9  H    2.619614   2.558530   1.770250   0.000000
    10  H    3.341330   3.776409   1.763979   1.765427   0.000000
 Stoichiometry    C2H7P
 Framework group  C1[X(C2H7P)]
 Deg. of freedom    24
 Full point group                 C1
 Largest Abelian subgroup         C1      NOp   1
 Largest concise Abelian subgroup C1      NOp   1
                         Standard orientation:                         
 ---------------------------------------------------------------------
 Center     Atomic     Atomic              Coordinates (Angstroms)
 Number     Number      Type              X           Y           Z
 ---------------------------------------------------------------------
    1         15      10151003        0.005653   -0.569216   -0.096508
    2          6      10061003        1.317024    0.457045    0.013220
    3          6      10061003       -1.327112    0.443730    0.018142
    4          1      10011000        0.049476   -0.891567    1.072522
    5          1      10011000        2.230083   -0.139404   -0.003629
    6          1      10011000        1.331617    1.135464   -0.840874
    7          1      10011000        1.312303    1.040036    0.938276
    8          1      10011000       -1.962434    0.150827    0.856366
    9          1      10011000       -1.072522    1.499750    0.133697
   10          1      10011000       -1.912788    0.338478   -0.896900
 ---------------------------------------------------------------------
 Rotational constants (GHZ):     20.2990910      7.9263375      6.3514887
 Leave Link  202 at Wed Jan 16 17:58:10 2008, MaxMem=    6291456 cpu:       0.0
 (Enter C:\G03W\l301.exe)
 Standard basis: Dummy (5D, 7F)
 There are    10 symmetry adapted basis functions of A   symmetry.
 Integral buffers will be    262144 words long.
 Raffenetti 1 integral format.
 Two-electron integral symmetry is turned on.
    10 basis functions,    10 primitive gaussians,    10 cartesian basis functions
     6 alpha electrons        6 beta electrons
       nuclear repulsion energy        17.1344624049 Hartrees.



 Warning!  P  atom    1 may be hypervalent but has no d functions.



 IExCor=   0 DFT=F Ex=HF Corr=None ExCW=0 ScaHFX=  1.000000
[...]
    A3        1.68871   0.00011  -0.00041   0.00157   0.00116   1.68987
    A4        1.90046   0.00008   0.00019   0.00011   0.00030   1.90076
    A5        1.91229  -0.00008  -0.00040   0.00026  -0.00014   1.91215
    A6        1.95631  -0.00004   0.00017  -0.00032  -0.00015   1.95616
    A7        1.89214   0.00003   0.00008   0.00020   0.00028   1.89242
    A8        1.89551   0.00004   0.00006  -0.00026  -0.00020   1.89531
    A9        1.90601  -0.00003  -0.00010   0.00002  -0.00008   1.90594
   A10        1.93433   0.00022  -0.00026   0.00130   0.00103   1.93536
   A11        1.98608  -0.00046  -0.00125  -0.00028  -0.00153   1.98455
   A12        1.87876   0.00007   0.00026   0.00009   0.00035   1.87912
   A13        1.90155   0.00010   0.00046  -0.00039   0.00007   1.90162
   A14        1.88323   0.00003   0.00057  -0.00064  -0.00007   1.88317
   A15        1.87626   0.00005   0.00033  -0.00015   0.00018   1.87644
    D1        3.01842  -0.00001   0.00200  -0.00115   0.00085   3.01927
    D2       -1.19801   0.00003   0.00197  -0.00069   0.00129  -1.19672
    D3        1.30675  -0.00005   0.00244  -0.00267  -0.00024   1.30651
    D4       -2.15015   0.00003   0.00052  -0.00028   0.00024  -2.14991
    D5        0.00000  -0.00333   0.00000   0.00000   0.00000   0.00000
    D6       -0.47060  -0.00001   0.00065  -0.00020   0.00046  -0.47014
         Item               Value     Threshold  Converged?
 Maximum Force            0.000745     0.000450     NO 
 RMS     Force            0.000227     0.000300     YES
 Maximum Displacement     0.004507     0.001800     NO 
 RMS     Displacement     0.001854     0.001200     NO 
 Predicted change in Energy=-1.920077D-06
 GradGradGradGradGradGradGradGradGradGradGradGradGradGradGradGradGradGrad

 Leave Link  103 at Wed Jan 16 17:58:13 2008, MaxMem=    6291456 cpu:       0.0
 (Enter C:\G03W\l202.exe)
                          Input orientation:                          
 ---------------------------------------------------------------------
 Center     Atomic     Atomic              Coordinates (Angstroms)
 Number     Number      Type              X           Y           Z
 ---------------------------------------------------------------------
    1         15      10151003       -0.410179   -0.184078    0.540975
    2          6      10061003       -0.383128    1.325857   -0.161069
    3          6      10061003        1.101510   -0.808235    0.199506
    4          1      10011000       -0.994555   -0.706818   -0.385236
    5          1      10011000       -1.379935    1.763773   -0.095940
    6          1      10011000        0.311944    1.968406    0.381334
    7          1      10011000       -0.088611    1.284721   -1.212755
    8          1      10011000        1.019388   -1.756190   -0.336303
    9          1      10011000        1.736797   -0.130636   -0.374019
   10          1      10011000        1.601475   -1.002096    1.148626
 ---------------------------------------------------------------------
                    Distance matrix (angstroms):
                    1          2          3          4          5
     1  P    0.000000
     2  C    1.665383   0.000000
     3  C    1.670741   2.624598   0.000000
     4  H    1.213514   2.134446   2.178461   0.000000
     5  H    2.267203   1.090704   3.586095   2.517147   0.000000
     6  H    2.275990   1.090960   2.892440   3.074311   1.769780
     7  H    2.310053   1.092921   2.791296   2.339177   1.773213
     8  H    2.298872   3.390689   1.091995   2.271462   4.266692
     9  H    2.334433   2.580853   1.091633   2.791486   3.657886
    10  H    2.255027   3.327659   1.090127   3.029734   4.252973
                    6          7          8          9         10
     6  H    0.000000
     7  H    1.780165   0.000000
     8  H    3.858509   3.353053   0.000000
     9  H    2.647025   2.457403   1.777223   0.000000
    10  H    3.327988   3.696220   1.764228   1.759603   0.000000
 Stoichiometry    C2H7P
 Framework group  C1[X(C2H7P)]
 Deg. of freedom    24
 Full point group                 C1
 Largest Abelian subgroup         C1      NOp   1
 Largest concise Abelian subgroup C1      NOp   1
                         Standard orientation:                         
 ---------------------------------------------------------------------
 Center     Atomic     Atomic              Coordinates (Angstroms)
 Number     Number      Type              X           Y           Z
 ---------------------------------------------------------------------
    1         15      10151003        0.004146   -0.571570   -0.096614
    2          6      10061003        1.309172    0.456995    0.015026
    3          6      10061003       -1.315402    0.446649    0.019138
    4          1      10011000        0.040010   -0.894548    1.072581
    5          1      10011000        2.222594   -0.136148    0.073989
    6          1      10011000        1.360084    1.080720   -0.878602
    7          1      10011000        1.252465    1.098265    0.898221
    8          1      10011000       -1.963676    0.151294    0.846761
    9          1      10011000       -1.048968    1.498855    0.135486
   10          1      10011000       -1.887321    0.353251   -0.904206
 ---------------------------------------------------------------------
 Rotational constants (GHZ):     20.1990646      8.0370991      6.4116261
 Leave Link  202 at Wed Jan 16 17:58:14 2008, MaxMem=    6291456 cpu:       1.0
 (Enter C:\G03W\l301.exe)
 Standard basis: Dummy (5D, 7F)
 There are    10 symmetry adapted basis functions of A   symmetry.
 Integral buffers will be    262144 words long.
 Raffenetti 1 integral format.
 Two-electron integral symmetry is turned on.
    10 basis functions,    10 primitive gaussians,    10 cartesian basis functions
     6 alpha electrons        6 beta electrons
       nuclear repulsion energy        17.1829946681 Hartrees.



 Warning!  P  atom    1 may be hypervalent but has no d functions.



 IExCor=   0 DFT=F Ex=HF Corr=None ExCW=0 ScaHFX=  1.000000
 ScaDFX=  1.000000  1.000000  1.000000  1.000000
 IRadAn=      0 IRanWt=     -1 IRanGd=            0 ICorTp=0
 NAtoms=   10 NActive=   10 NUniq=   10 SFac= 7.50D-01 NAtFMM=   80 NAOKFM=F Big=F
 Leave Link  301 at Wed Jan 16 17:58:14 2008, MaxMem=    6291456 cpu:       0.0
 (Enter C:\G03W\l402.exe)
 Dreiding calculation of energy and first derivatives.
 MO and density RWFs will be updated without deorthogonalization.
 Energy=    0.012009107004 NIter=   0.
 Dipole moment=       0.000000       0.000000       0.000000
 Leave Link  402 at Wed Jan 16 17:58:14 2008, MaxMem=    6291456 cpu:       0.0
 (Enter C:\G03W\l716.exe)
 Dipole        = 0.00000000D+00 0.00000000D+00 0.00000000D+00
 ***** Axes restored to original set *****
 -------------------------------------------------------------------
 Center     Atomic                   Forces (Hartrees/Bohr)
 Number     Number              X              Y              Z
 -------------------------------------------------------------------
    1         15          -0.000695738   -0.000815215   -0.001651909
    2          6           0.000404581    0.000481999    0.000955102
    3          6           0.000916743    0.001039771    0.002214915
    4          1           0.000068231   -0.000003578    0.000052124
    5          1           0.000001674    0.000000261    0.000003392
    6          1          -0.000004242    0.000000707    0.000005443
    7          1           0.000004443    0.000010402   -0.000000062
    8          1          -0.000042018    0.000016430    0.000005092
    9          1          -0.000643614   -0.000741797   -0.001579079
   10          1          -0.000010060    0.000011019   -0.000005017
 -------------------------------------------------------------------
 Cartesian Forces:  Max     0.002214915 RMS     0.000718353
 Leave Link  716 at Wed Jan 16 17:58:14 2008, MaxMem=    6291456 cpu:       0.0
 (Enter C:\G03W\l103.exe)

 GradGradGradGradGradGradGradGradGradGradGradGradGradGradGradGradGradGrad
 Berny optimization.
 Internal  Forces:  Max     0.003531746 RMS     0.000645529
 Search for a local minimum.
 Step number  11 out of a maximum of  40
 All quantities printed in internal units (Hartrees-Bohrs-Radians)
   2   1  0.3896865E-06  0.6965039E-06  0.5594893    
 Update second derivatives using D2CorL and points 10 11
 Trust test= 9.00D-01 RLast= 3.81D-03 DXMaxT set to 6.00D-01
 lowest eigenvalue of the Hessian is  0.3270E-02.
 RFO step:  Lambda= 1.78166258D-08.
 Quartic linear search produced a step of -0.09474.
 Iteration  1 RMS(Cart)=  0.00048339 RMS(Int)=  0.00000012
 Iteration  2 RMS(Cart)=  0.00000012 RMS(Int)=  0.00000001
 Iteration  1 RMS(Cart)=  0.00000010 RMS(Int)=  0.00000004
 Variable       Old X    -DE/DX   Delta X   Delta X   Delta X     New X
                                 (Linear)    (Quad)   (Total)
    R1        3.14712   0.00005   0.00004   0.00013   0.00017   3.14728
    R2        3.15724  -0.00005   0.00012  -0.00035  -0.00023   3.15702
    R3        2.29321  -0.00007  -0.00017  -0.00001  -0.00018   2.29303
    R4        2.06113   0.00000  -0.00001   0.00000   0.00000   2.06113
    R5        2.06162   0.00000   0.00000   0.00000   0.00000   2.06161
    R6        2.06532   0.00000   0.00000   0.00000   0.00000   2.06532
    R7        2.06357  -0.00001  -0.00001  -0.00002  -0.00003   2.06354
    R8        2.06289  -0.00001  -0.00001  -0.00002  -0.00002   2.06286
    R9        2.06004  -0.00001  -0.00001  -0.00003  -0.00004   2.06000
    A1        1.81095   0.00003   0.00012  -0.00006   0.00006   1.81102
    A2        1.64750   0.00004  -0.00001   0.00019   0.00019   1.64769
    A3        1.68987  -0.00006  -0.00011  -0.00030  -0.00041   1.68946
    A4        1.90076   0.00000  -0.00003   0.00001  -0.00001   1.90074
    A5        1.91215  -0.00001   0.00001  -0.00011  -0.00009   1.91206
    A6        1.95616   0.00002   0.00001   0.00012   0.00014   1.95630
    A7        1.89242   0.00000  -0.00003  -0.00002  -0.00005   1.89237
    A8        1.89531   0.00000   0.00002   0.00000   0.00002   1.89533
    A9        1.90594  -0.00001   0.00001  -0.00001  -0.00001   1.90593
   A10        1.93536  -0.00007  -0.00010  -0.00018  -0.00027   1.93509
   A11        1.98455   0.00005   0.00014   0.00013   0.00027   1.98482
   A12        1.87912  -0.00001  -0.00003  -0.00008  -0.00011   1.87900
   A13        1.90162   0.00002  -0.00001   0.00011   0.00010   1.90172
   A14        1.88317   0.00001   0.00001   0.00005   0.00006   1.88323
   A15        1.87644   0.00000  -0.00002  -0.00003  -0.00005   1.87639
    D1        3.01927  -0.00002  -0.00008  -0.00063  -0.00071   3.01855
    D2       -1.19672  -0.00002  -0.00012  -0.00072  -0.00084  -1.19756
    D3        1.30651   0.00003   0.00002  -0.00036  -0.00034   1.30617
    D4       -2.14991  -0.00001  -0.00002  -0.00010  -0.00012  -2.15003
    D5        0.00000  -0.00353   0.00000   0.00000   0.00000   0.00000
    D6       -0.47014   0.00002  -0.00004   0.00002  -0.00003  -0.47017
         Item               Value     Threshold  Converged?
 Maximum Force            0.000072     0.000450     YES
 RMS     Force            0.000031     0.000300     YES
 Maximum Displacement     0.000985     0.001800     YES
 RMS     Displacement     0.000483     0.001200     YES
 Predicted change in Energy=-6.668623D-08
 Optimization completed.
    -- Stationary point found.
                           ----------------------------
                           !   Optimized Parameters   !
                           ! (Angstroms and Degrees)  !
 --------------------------                            --------------------------
 ! Name  Definition              Value          Derivative Info.                !
 --------------------------------------------------------------------------------
 ! R1    R(1,2)                  1.6654         -DE/DX =    0.0                 !
 ! R2    R(1,3)                  1.6707         -DE/DX =   -0.0001              !
 ! R3    R(1,4)                  1.2135         -DE/DX =   -0.0001              !
 ! R4    R(2,5)                  1.0907         -DE/DX =    0.0                 !
 ! R5    R(2,6)                  1.091          -DE/DX =    0.0                 !
 ! R6    R(2,7)                  1.0929         -DE/DX =    0.0                 !
 ! R7    R(3,8)                  1.092          -DE/DX =    0.0                 !
 ! R8    R(3,9)                  1.0916         -DE/DX =    0.0                 !
 ! R9    R(3,10)                 1.0901         -DE/DX =    0.0                 !
 ! A1    A(2,1,3)              103.7601         -DE/DX =    0.0                 !
 ! A2    A(2,1,4)               94.395          -DE/DX =    0.0                 !
 ! A3    A(3,1,4)               96.8225         -DE/DX =   -0.0001              !
 ! A4    A(1,2,5)              108.9053         -DE/DX =    0.0                 !
 ! A5    A(1,2,6)              109.5581         -DE/DX =    0.0                 !
 ! A6    A(1,2,7)              112.0798         -DE/DX =    0.0                 !
 ! A7    A(5,2,6)              108.4279         -DE/DX =    0.0                 !
 ! A8    A(5,2,7)              108.5934         -DE/DX =    0.0                 !
 ! A9    A(6,2,7)              109.202          -DE/DX =    0.0                 !
 ! A10   A(1,3,8)              110.888          -DE/DX =   -0.0001              !
 ! A11   A(1,3,9)              113.7063         -DE/DX =    0.0001              !
 ! A12   A(1,3,10)             107.6655         -DE/DX =    0.0                 !
 ! A13   A(8,3,9)              108.9547         -DE/DX =    0.0                 !
 ! A14   A(8,3,10)             107.8976         -DE/DX =    0.0                 !
 ! A15   A(9,3,10)             107.512          -DE/DX =    0.0                 !
 ! D1    D(3,1,2,5)            172.9913         -DE/DX =    0.0                 !
 ! D2    D(3,1,2,6)            -68.567          -DE/DX =    0.0                 !
 ! D3    D(4,1,2,5)             74.8575         -DE/DX =    0.0                 !
 ! D4    D(2,1,3,8)           -123.1807         -DE/DX =    0.0                 !
 ! D5    D(2,1,3,9)              0.0            -DE/DX =   -0.0035              !
 ! D6    D(4,1,3,8)            -26.937          -DE/DX =    0.0                 !
 --------------------------------------------------------------------------------
 GradGradGradGradGradGradGradGradGradGradGradGradGradGradGradGradGradGrad

 Largest change from initial coordinates is atom    8       0.767 Angstoms.
 Leave Link  103 at Wed Jan 16 17:58:14 2008, MaxMem=    6291456 cpu:       0.0
 (Enter C:\G03W\l202.exe)
                          Input orientation:                          
 ---------------------------------------------------------------------
 Center     Atomic     Atomic              Coordinates (Angstroms)
 Number     Number      Type              X           Y           Z
 ---------------------------------------------------------------------
    1         15      10151003       -0.410179   -0.184078    0.540975
    2          6      10061003       -0.383128    1.325857   -0.161069
    3          6      10061003        1.101510   -0.808235    0.199506
    4          1      10011000       -0.994555   -0.706818   -0.385236
    5          1      10011000       -1.379935    1.763773   -0.095940
    6          1      10011000        0.311944    1.968406    0.381334
    7          1      10011000       -0.088611    1.284721   -1.212755
    8          1      10011000        1.019388   -1.756190   -0.336303
    9          1      10011000        1.736797   -0.130636   -0.374019
   10          1      10011000        1.601475   -1.002096    1.148626
 ---------------------------------------------------------------------
                    Distance matrix (angstroms):
                    1          2          3          4          5
     1  P    0.000000
     2  C    1.665383   0.000000
     3  C    1.670741   2.624598   0.000000
     4  H    1.213514   2.134446   2.178461   0.000000
     5  H    2.267203   1.090704   3.586095   2.517147   0.000000
     6  H    2.275990   1.090960   2.892440   3.074311   1.769780
     7  H    2.310053   1.092921   2.791296   2.339177   1.773213
     8  H    2.298872   3.390689   1.091995   2.271462   4.266692
     9  H    2.334433   2.580853   1.091633   2.791486   3.657886
    10  H    2.255027   3.327659   1.090127   3.029734   4.252973
                    6          7          8          9         10
     6  H    0.000000
     7  H    1.780165   0.000000
     8  H    3.858509   3.353053   0.000000
     9  H    2.647025   2.457403   1.777223   0.000000
    10  H    3.327988   3.696220   1.764228   1.759603   0.000000
 Stoichiometry    C2H7P
 Framework group  C1[X(C2H7P)]
 Deg. of freedom    24
 Full point group                 C1
 Largest Abelian subgroup         C1      NOp   1
 Largest concise Abelian subgroup C1      NOp   1
                         Standard orientation:                         
 ---------------------------------------------------------------------
 Center     Atomic     Atomic              Coordinates (Angstroms)
 Number     Number      Type              X           Y           Z
 ---------------------------------------------------------------------
    1         15      10151003        0.004146   -0.571570   -0.096614
    2          6      10061003        1.309172    0.456995    0.015026
    3          6      10061003       -1.315402    0.446649    0.019138
    4          1      10011000        0.040010   -0.894548    1.072581
    5          1      10011000        2.222594   -0.136148    0.073989
    6          1      10011000        1.360084    1.080720   -0.878602
    7          1      10011000        1.252465    1.098265    0.898221
    8          1      10011000       -1.963676    0.151294    0.846761
    9          1      10011000       -1.048968    1.498855    0.135486
   10          1      10011000       -1.887321    0.353251   -0.904206
 ---------------------------------------------------------------------
 Rotational constants (GHZ):     20.1990646      8.0370991      6.4116261
 Leave Link  202 at Wed Jan 16 17:58:14 2008, MaxMem=    6291456 cpu:       0.0
 (Enter C:\G03W\l9999.exe)
 1|1|UNPC-UNK|FOpt|Dreiding|ZDO|C2H7P1|PCUSER|16-Jan-2008|0||#p Opt=(Mo
 dredun,nomicro) dreiding||dimethylphosphine-ecl||0,1|P,-0.4101791993,-
 0.1840776593,0.5409745658|C,-0.3831281089,1.3258574276,-0.161068909|C,
 1.1015095224,-0.8082348451,0.1995058468|H,-0.9945545412,-0.7068176224,
 -0.3852356355|H,-1.3799348835,1.7637729897,-0.0959403537|H,0.311944068
 1,1.9684056487,0.3813338677|H,-0.0886107346,1.2847210975,-1.2127550471
 |H,1.0193875042,-1.7561895112,-0.3363034262|H,1.7367972093,-0.13063607
 2,-0.3740194034|H,1.6014750635,-1.0020955535,1.1486260945||Version=IA3
 2W-G03RevD.01|HF=0.0120091|RMSD=0.000e+000|RMSF=7.184e-004|Thermal=0.|
 Dipole=0.,0.,0.|PG=C01 [X(C2H7P1)]||@


 THESE ARE THE TIMES THAT TRY MENS SOULS.
 THE SUMMER SOLDIER AND THE SUNSHINE PATRIOT WILL IN THIS CRISIS,
 SHRINK FROM THE SERVICE OF HIS COUNTRY.  BUT HE THAT STANDS NOW,
 DESERVES THE LOVE AND THANKS OF MAN AND WOMAN.
 TYRANNY, LIKE HELL, IS NOT EASILY CONQUERED,
 YET WE HAVE THIS CONSOLATION WITH US,
 THAT THE HARDER THE CONFLICT, THE MORE GLORIOUS THE TRIUMPH.
 WHAT WE OBTAIN TOO CHEAP, WE ESTEEM TOO LIGHTLY, 
 'TIS DEARNESS ONLY THAT GIVES EVERYTHING ITS VALUE.

                                              -- TOM PAINE
 Job cpu time:  0 days  0 hours  0 minutes 12.0 seconds.
 File lengths (MBytes):  RWF=     11 Int=      0 D2E=      0 Chk=      4 Scr=      1
 Normal termination of Gaussian 03 at Wed Jan 16 17:58:15 2008.
