 Entering Link 1 = C:\G03W\l1.exe PID=      3608.
  
 Copyright (c) 1988,1990,1992,1993,1995,1998,2003,2004, Gaussian, Inc.
                  All Rights Reserved.
  
 This is the Gaussian(R) 03 program.  It is based on the
 the Gaussian(R) 98 system (copyright 1998, Gaussian, Inc.),
 the Gaussian(R) 94 system (copyright 1995, Gaussian, Inc.),
 the Gaussian 92(TM) system (copyright 1992, Gaussian, Inc.),
 the Gaussian 90(TM) system (copyright 1990, Gaussian, Inc.),
 the Gaussian 88(TM) system (copyright 1988, Gaussian, Inc.),
 the Gaussian 86(TM) system (copyright 1986, Carnegie Mellon
 University), and the Gaussian 82(TM) system (copyright 1983,
 Carnegie Mellon University). Gaussian is a federally registered
 trademark of Gaussian, Inc.
  
 This software contains proprietary and confidential information,
 including trade secrets, belonging to Gaussian, Inc.
  
 This software is provided under written license and may be
 used, copied, transmitted, or stored only in accord with that
 written license.
  
 The following legend is applicable only to US Government
 contracts under FAR:
  
                    RESTRICTED RIGHTS LEGEND
  
 Use, reproduction and disclosure by the US Government is
 subject to restrictions as set forth in subparagraphs (a)
 and (c) of the Commercial Computer Software - Restricted
 Rights clause in FAR 52.227-19.
  
 Gaussian, Inc.
 340 Quinnipiac St., Bldg. 40, Wallingford CT 06492
  
  
 ---------------------------------------------------------------
 Warning -- This program may not be used in any manner that
 competes with the business of Gaussian, Inc. or will provide
 assistance to any competitor of Gaussian, Inc.  The licensee
 of this program is prohibited from giving any competitor of
 Gaussian, Inc. access to this program.  By using this program,
 the user acknowledges that Gaussian, Inc. is engaged in the
 business of creating and licensing software in the field of
 computational chemistry and represents and warrants to the
 licensee that it is not a competitor of Gaussian, Inc. and that
 it will not use this program in any manner prohibited above.
 ---------------------------------------------------------------
  

 Cite this work as:
 Gaussian 03, Revision D.01,
 M. J. Frisch, G. W. Trucks, H. B. Schlegel, G. E. Scuseria, 
 M. A. Robb, J. R. Cheeseman, J. A. Montgomery, Jr., T. Vreven, 
 K. N. Kudin, J. C. Burant, J. M. Millam, S. S. Iyengar, J. Tomasi, 
 V. Barone, B. Mennucci, M. Cossi, G. Scalmani, N. Rega, 
 G. A. Petersson, H. Nakatsuji, M. Hada, M. Ehara, K. Toyota, 
 R. Fukuda, J. Hasegawa, M. Ishida, T. Nakajima, Y. Honda, O. Kitao, 
 H. Nakai, M. Klene, X. Li, J. E. Knox, H. P. Hratchian, J. B. Cross, 
 V. Bakken, C. Adamo, J. Jaramillo, R. Gomperts, R. E. Stratmann, 
 O. Yazyev, A. J. Austin, R. Cammi, C. Pomelli, J. W. Ochterski, 
 P. Y. Ayala, K. Morokuma, G. A. Voth, P. Salvador, J. J. Dannenberg, 
 V. G. Zakrzewski, S. Dapprich, A. D. Daniels, M. C. Strain, 
 O. Farkas, D. K. Malick, A. D. Rabuck, K. Raghavachari, 
 J. B. Foresman, J. V. Ortiz, Q. Cui, A. G. Baboul, S. Clifford, 
 J. Cioslowski, B. B. Stefanov, G. Liu, A. Liashenko, P. Piskorz, 
 I. Komaromi, R. L. Martin, D. J. Fox, T. Keith, M. A. Al-Laham, 
 C. Y. Peng, A. Nanayakkara, M. Challacombe, P. M. W. Gill, 
 B. Johnson, W. Chen, M. W. Wong, C. Gonzalez, and J. A. Pople, 
 Gaussian, Inc., Wallingford CT, 2004.
 
 ******************************************
 Gaussian 03:  IA32W-G03RevD.01 13-Oct-2005
                13-Dec-2007 
 ******************************************
 --------------
 # opt dreiding
 --------------
 1/6=10,10=10,14=-1,18=4000020,38=1,56=1,64=1/1,3;
 2/9=110,17=6,18=5,40=1/2;
 3/5=30,11=9,16=1,25=1,30=1/1;
 4/20=9,22=1001,24=3/2;
 7/44=-1/16;
 1/6=10,10=10,14=-1,18=4000020,64=1/3(2);
 2/9=110/2;
 99//99;
 2/9=110/2;
 3/5=30,11=9,16=1,25=1,30=1/1;
 4/16=2,20=9,22=1001,24=3/2;
 7/44=-1/16;
 1/6=10,10=10,14=-1,18=4000020,64=1/3(-4);
 2/9=110/2;
 99//99;
 --------------
 ethylamine-ecl
 --------------
 Symbolic Z-matrix:
 Charge =  0 Multiplicity = 1
 C                     0.49404  -1.13123  -0.01642 
 C                     0.45304   0.40477  -0.00242 
 N                    -0.90296   0.89477   0.01958 
 H                    -1.42396   0.55577  -0.78842 
 H                    -1.40196   0.54277   0.83558 
 H                    -0.52796  -1.57623  -0.00542 
 H                     1.01204  -1.51623  -0.92442 
 H                     1.03604  -1.53123   0.87158 
 H                     0.98404   0.80277   0.89358 
 H                     0.96004   0.81777  -0.90642 
 
 Include all MM classes
 MMInit generated parameter data with length LenPar=   952.

 GradGradGradGradGradGradGradGradGradGradGradGradGradGradGradGradGradGrad
 Berny optimization.
 Initialization pass.
 No Z-matrix variables, so optimization will use Cartesian coordinates.
 Trust Radius=1.00D-01 FncErr=1.00D-07 GrdErr=1.00D-07
 Number of steps in this run=   2 maximum allowed number of steps=   2.
 GradGradGradGradGradGradGradGradGradGradGradGradGradGradGradGradGradGrad

                          Input orientation:                          
 ---------------------------------------------------------------------
 Center     Atomic     Atomic              Coordinates (Angstroms)
 Number     Number      Type              X           Y           Z
 ---------------------------------------------------------------------
    1          6      10061003        0.494038   -1.131231   -0.016423
    2          6      10061003        0.453038    0.404769   -0.002423
    3          7      10071003       -0.902962    0.894769    0.019577
    4          1      10011000       -1.423962    0.555769   -0.788423
    5          1      10011000       -1.401962    0.542769    0.835577
    6          1      10011000       -0.527962   -1.576231   -0.005423
    7          1      10011000        1.012038   -1.516231   -0.924423
    8          1      10011000        1.036038   -1.531231    0.871577
    9          1      10011000        0.984038    0.802769    0.893577
   10          1      10011000        0.960038    0.817769   -0.906423
 ---------------------------------------------------------------------
                    Distance matrix (angstroms):
                    1          2          3          4          5
     1  C    0.000000
     2  C    1.536611   0.000000
     3  N    2.461215   1.441985   0.000000
     4  H    2.668460   2.040521   1.019424   0.000000
     5  H    2.668894   2.040175   1.019196   1.624201   0.000000
     6  H    1.114733   2.210595   2.499418   2.441583   2.441581
     7  H    1.114008   2.202909   3.220447   3.200902   3.628288
     8  H    1.114589   2.202694   3.220419   3.628053   3.201034
     9  H    2.192842   1.114980   2.081612   2.947643   2.400825
    10  H    2.192683   1.115721   2.081868   2.401255   2.947750
                    6          7          8          9         10
     6  H    0.000000
     7  H    1.794369   0.000000
     8  H    1.793669   1.796223   0.000000
     9  H    2.958714   2.946807   2.334683   0.000000
    10  H    2.959253   2.334649   2.947009   1.800222   0.000000
 Stoichiometry    C2H7N
 Framework group  C1[X(C2H7N)]
 Deg. of freedom    24
 Full point group                 C1
 Largest Abelian subgroup         C1      NOp   1
 Largest concise Abelian subgroup C1      NOp   1
                         Standard orientation:                         
 ---------------------------------------------------------------------
 Center     Atomic     Atomic              Coordinates (Angstroms)
 Number     Number      Type              X           Y           Z
 ---------------------------------------------------------------------
    1          6      10061003       -1.205889   -0.264309    0.000218
    2          6      10061003        0.061600    0.604395   -0.000208
    3          7      10071003        1.254625   -0.205549    0.000096
    4          1      10011000        1.274228   -0.821588    0.812092
    5          1      10011000        1.274697   -0.820921   -0.812109
    6          1      10011000       -0.965888   -1.352899   -0.000877
    7          1      10011000       -1.834984   -0.065802    0.897908
    8          1      10011000       -1.834776   -0.065697   -0.898315
    9          1      10011000        0.085175    1.262659   -0.899826
   10          1      10011000        0.084908    1.262577    0.900396
 ---------------------------------------------------------------------
 Rotational constants (GHZ):     30.0505245      9.1782596      8.0597875
 Standard basis: Dummy (5D, 7F)
 There are    10 symmetry adapted basis functions of A   symmetry.
 Integral buffers will be    262144 words long.
 Raffenetti 1 integral format.
 Two-electron integral symmetry is turned on.
    10 basis functions,    10 primitive gaussians,    10 cartesian basis functions
     6 alpha electrons        6 beta electrons
       nuclear repulsion energy        18.1410312965 Hartrees.
 NAtoms=   10 NActive=   10 NUniq=   10 SFac= 7.50D-01 NAtFMM=   80 NAOKFM=F Big=F
 Dreiding calculation of energy and first derivatives.
 MO and density RWFs will be updated without deorthogonalization.
 NRF= 0 NRA=   0 NVA=  10 HaveQM=F
 Convergence limit is  0.750E-04 MaxStp=  5000 StMxLn= 1.00D-04 StpMin= 1.00D-06.
 Convergence criteria           0.00011250 0.00007500 0.00045000 0.00030000
  Step  NS  ND Rises OKQ   Scale  Max. Force  RMS Force Max. Disp.  RMS Disp.     Energy   Flag
     1   0   0   F    T  1.00D+00 0.03001991 0.01079691 0.03001991 0.01079691    0.0139122 ----
     2   0   0   F    F  2.72D-01 0.03001991 0.01079691 0.03001991 0.01079691    0.0117952 ----
     3   0   0   F    T  3.69D+00 0.01172264 0.00353197 0.00995252 0.00371616    0.0116944 ----
     4   0   0   F    F -3.15D-01 0.01172264 0.00353197 0.03677043 0.01372965    0.0113207 ----
     5   0   0   F    T  3.40D+00 0.00824903 0.00228951 0.00617676 0.00276892    0.0112193 ----
     6   0   0   F    F -2.57D-02 0.00824903 0.00228951 0.02097965 0.00940474    0.0109590 ----
     7   0   0   F    T  3.34D+00 0.00416637 0.00192035 0.00515491 0.00274071    0.0109588 ----
     8   0   0   F    F -3.57D-01 0.00416637 0.00192035 0.01723393 0.00916276    0.0108766 ----
     9   0   0   F    T  3.57D+00 0.00316681 0.00121869 0.00431198 0.00164829    0.0108400 ----
    10   0   0   F    F  1.25D+00 0.00316681 0.00121869 0.01540602 0.00588907    0.0107164 ----
    11   0   0   F    T  2.56D+00 0.00684651 0.00206559 0.01388117 0.00517709    0.0106615 ----
    12   0   0   F    F -7.52D-02 0.00684651 0.00206559 0.03556350 0.01326368    0.0105106 ----
    13   0   0   F    T  1.11D+01 0.00190934 0.00077346 0.00271073 0.00110587    0.0105096 ----
    14   0   0   T    F  3.71D-01 0.00190934 0.00077346 0.03006676 0.01226607    0.0105765 ----
    15   0   0   F    T  7.41D+00 0.00099223 0.00046227 0.00140672 0.00061441    0.0104728 ----
    16   0   0   T    F  3.62D-01 0.00099223 0.00046227 0.01042358 0.00455272    0.0104909 ----
    17   0   0   F    T  4.97D+00 0.00071893 0.00026403 0.00067747 0.00033177    0.0104642 ----
    18   0   0   F    F -2.43D-01 0.00071893 0.00026403 0.00336702 0.00164892    0.0104607 ----
    19   0   0   F    T  2.29D+00 0.00081372 0.00030742 0.00117827 0.00054483    0.0104603 ----
    20   0   0   F    F -4.14D-02 0.00081372 0.00030742 0.00270031 0.00124862    0.0104572 ----
    21   0   0   F    T  1.01D+01 0.00028570 0.00010189 0.00032102 0.00011829    0.0104572 --++
    22   0   0   T    F  3.52D-01 0.00028570 0.00010189 0.00324818 0.00119686    0.0104585 ----
    23   0   0   F    T  2.87D+00 0.00022601 0.00009792 0.00030608 0.00014673    0.0104566 --++
    24   0   0   F    F -2.29D-01 0.00022601 0.00009792 0.00087903 0.00042140    0.0104563 ----
    25   0   0   F    T  2.51D+01 0.00002895 0.00001270 0.00002991 0.00001294    0.0104563 ====
 Energy=    0.010456292790 NIter=   0.
 Dipole moment=       0.000000       0.000000       0.000000
 ***** Axes restored to original set *****
 -------------------------------------------------------------------
 Center     Atomic                   Forces (Hartrees/Bohr)
 Number     Number              X              Y              Z
 -------------------------------------------------------------------
    1          6           0.000012762   -0.000015349   -0.000005826
    2          6          -0.000015352   -0.000006808    0.000027351
    3          7           0.000010328    0.000019477    0.000011416
    4          1          -0.000020659    0.000008151    0.000000028
    5          1          -0.000013161    0.000011034   -0.000013205
    6          1           0.000026254   -0.000016699   -0.000001457
    7          1          -0.000009003    0.000001906    0.000007453
    8          1          -0.000002314    0.000003886   -0.000002718
    9          1          -0.000000443   -0.000007241   -0.000001345
   10          1           0.000011588    0.000001643   -0.000021695
 -------------------------------------------------------------------
 Cartesian Forces:  Max     0.000027351 RMS     0.000012704

 GradGradGradGradGradGradGradGradGradGradGradGradGradGradGradGradGradGrad
 Berny optimization.
 Search for a local minimum.
 Step number   1 out of a maximum of   2
 All quantities printed in internal units (Hartrees-Bohrs-Radians)
 Second derivative matrix not updated -- unit matrix used.
 RFO step:  Lambda= 0.00000000D+00.
 Linear search not attempted -- first point.
 TrRot=  0.000000  0.000000  0.000000  0.000000  0.000000  0.000000
 Variable       Old X    -DE/DX   Delta X   Delta X   Delta X     New X
                                 (Linear)    (Quad)   (Total)
    X1        0.97258   0.00001   0.00000   0.00001   0.00001   0.97259
    Y1       -2.20047  -0.00002   0.00000  -0.00002  -0.00002  -2.20048
    Z1       -0.03123  -0.00001   0.00000  -0.00001  -0.00001  -0.03124
    X2        0.82975  -0.00002   0.00000  -0.00002  -0.00002   0.82973
    Y2        0.73099  -0.00001   0.00000  -0.00001  -0.00001   0.73098
    Z2       -0.00508   0.00003   0.00000   0.00003   0.00003  -0.00505
    X3       -1.76214   0.00001   0.00000   0.00001   0.00001  -1.76212
    Y3        1.77117   0.00002   0.00000   0.00002   0.00002   1.77119
    Z3        0.03830   0.00001   0.00000   0.00001   0.00001   0.03831
    X4       -2.73660  -0.00002   0.00000  -0.00002  -0.00002  -2.73662
    Y4        1.14786   0.00001   0.00000   0.00001   0.00001   1.14787
    Z4       -1.51533   0.00000   0.00000   0.00000   0.00000  -1.51533
    X5       -2.69455  -0.00001   0.00000  -0.00001  -0.00001  -2.69456
    Y5        1.12248   0.00001   0.00000   0.00001   0.00001   1.12249
    Z5        1.60733  -0.00001   0.00000  -0.00001  -0.00001   1.60732
    X6       -0.90847   0.00003   0.00000   0.00003   0.00003  -0.90845
    Y6       -3.04670  -0.00002   0.00000  -0.00002  -0.00002  -3.04671
    Z6       -0.01258   0.00000   0.00000   0.00000   0.00000  -0.01259
    X7        1.95720  -0.00001   0.00000  -0.00001  -0.00001   1.95720
    Y7       -2.85525   0.00000   0.00000   0.00000   0.00000  -2.85525
    Z7       -1.72228   0.00001   0.00000   0.00001   0.00001  -1.72227
    X8        2.00272   0.00000   0.00000   0.00000   0.00000   2.00272
    Y8       -2.88291   0.00000   0.00000   0.00000   0.00000  -2.88291
    Z8        1.62129   0.00000   0.00000   0.00000   0.00000   1.62129
    X9        1.83679   0.00000   0.00000   0.00000   0.00000   1.83679
    Y9        1.45210  -0.00001   0.00000  -0.00001  -0.00001   1.45210
    Z9        1.64873   0.00000   0.00000   0.00000   0.00000   1.64873
   X10        1.79223   0.00001   0.00000   0.00001   0.00001   1.79224
   Y10        1.47958   0.00000   0.00000   0.00000   0.00000   1.47958
   Z10       -1.67305  -0.00002   0.00000  -0.00002  -0.00002  -1.67307
         Item               Value     Threshold  Converged?
 Maximum Force            0.000027     0.000450     YES
 RMS     Force            0.000013     0.000300     YES
 Maximum Displacement     0.000027     0.001800     YES
 RMS     Displacement     0.000013     0.001200     YES
 Predicted change in Energy=-2.420889D-09
 Optimization completed.
    -- Stationary point found.
 GradGradGradGradGradGradGradGradGradGradGradGradGradGradGradGradGradGrad

                          Input orientation:                          
 ---------------------------------------------------------------------
 Center     Atomic     Atomic              Coordinates (Angstroms)
 Number     Number      Type              X           Y           Z
 ---------------------------------------------------------------------
    1          6      10061003        0.514665   -1.164436   -0.016528
    2          6      10061003        0.439084    0.386821   -0.002689
    3          7      10071003       -0.932482    0.937262    0.020266
    4          1      10011000       -1.448148    0.607423   -0.801879
    5          1      10011000       -1.425893    0.593991    0.850564
    6          1      10011000       -0.480743   -1.612242   -0.006660
    7          1      10011000        1.035708   -1.510933   -0.911389
    8          1      10011000        1.059795   -1.525572    0.857951
    9          1      10011000        0.971988    0.768420    0.872470
   10          1      10011000        0.948409    0.782959   -0.885337
 ---------------------------------------------------------------------
                    Distance matrix (angstroms):
                    1          2          3          4          5
     1  C    0.000000
     2  C    1.553159   0.000000
     3  N    2.552004   1.478075   0.000000
     4  H    2.758423   2.061314   1.025002   0.000000
     5  H    2.758564   2.061334   1.025029   1.652648   0.000000
     6  H    1.091542   2.200534   2.589356   2.548561   2.548648
     7  H    1.091935   2.187045   3.276494   3.266338   3.687093
     8  H    1.091924   2.187060   3.276649   3.687069   3.266687
     9  H    2.176096   1.093393   2.093267   2.947274   2.404317
    10  H    2.176077   1.093346   2.093246   2.404426   2.947265
                    6          7          8          9         10
     6  H    0.000000
     7  H    1.768734   0.000000
     8  H    1.768705   1.769564   0.000000
     9  H    2.924183   2.895109   2.295717   0.000000
    10  H    2.924301   2.295700   2.894957   1.758025   0.000000
 Stoichiometry    C2H7N
 Framework group  C1[X(C2H7N)]
 Deg. of freedom    24
 Full point group                 C1
 Largest Abelian subgroup         C1      NOp   1
 Largest concise Abelian subgroup C1      NOp   1
                         Standard orientation:                         
 ---------------------------------------------------------------------
 Center     Atomic     Atomic              Coordinates (Angstroms)
 Number     Number      Type              X           Y           Z
 ---------------------------------------------------------------------
    1          6      10061003       -1.246372   -0.270691   -0.000011
    2          6      10061003        0.048238    0.587381    0.000018
    3          7      10071003        1.304405   -0.191561    0.000023
    4          1      10011000        1.332120   -0.797539    0.826250
    5          1      10011000        1.332277   -0.797314   -0.826397
    6          1      10011000       -1.017359   -1.337938   -0.000236
    7          1      10011000       -1.847209   -0.050949    0.884879
    8          1      10011000       -1.847400   -0.050654   -0.884685
    9          1      10011000        0.052783    1.237598   -0.879018
   10          1      10011000        0.052761    1.237583    0.879007
 ---------------------------------------------------------------------
 Rotational constants (GHZ):     31.1725734      8.6489220      7.7014144
 1|1|UNPC-UNK|FOpt|Dreiding|ZDO|C2H7N1|PCUSER|13-Dec-2007|0||# opt drei
 ding||ethylamine-ecl||0,1|C,0.5146652497,-1.1644363704,-0.016527651|C,
 0.4390839653,0.3868211452,-0.0026890181|N,-0.9324817411,0.9372620092,0
 .0202663876|H,-1.4481479467,0.6074230722,-0.8018791838|H,-1.4258925264
 ,0.5939906807,0.8505639826|H,-0.4807425892,-1.6122423043,-0.0066595627
 |H,1.0357081715,-1.5109326019,-0.9113888471|H,1.0597947053,-1.52557184
 32,0.8579509685|H,0.9719884639,0.7684198008,0.8724695652|H,0.948408847
 6,0.7829587118,-0.8853374412||Version=IA32W-G03RevD.01|HF=0.0104563|RM
 SD=0.000e+000|RMSF=1.270e-005|Thermal=0.|Dipole=0.,0.,0.|PG=C01 [X(C2H
 7N1)]||@


 Standing in the middle of the road is very dangerous;
 you get knocked down by the traffic from both sides.
                                -- Margaret Thatcher
 Job cpu time:  0 days  0 hours  0 minutes  2.0 seconds.
 File lengths (MBytes):  RWF=     11 Int=      0 D2E=      0 Chk=      4 Scr=      1
 Normal termination of Gaussian 03 at Thu Dec 13 16:25:02 2007.
