 Entering Link 1 = C:\G03W\l1.exe PID=      2808.
  
 Copyright (c) 1988,1990,1992,1993,1995,1998,2003,2004, Gaussian, Inc.
                  All Rights Reserved.
  
 This is the Gaussian(R) 03 program.  It is based on the
 the Gaussian(R) 98 system (copyright 1998, Gaussian, Inc.),
 the Gaussian(R) 94 system (copyright 1995, Gaussian, Inc.),
 the Gaussian 92(TM) system (copyright 1992, Gaussian, Inc.),
 the Gaussian 90(TM) system (copyright 1990, Gaussian, Inc.),
 the Gaussian 88(TM) system (copyright 1988, Gaussian, Inc.),
 the Gaussian 86(TM) system (copyright 1986, Carnegie Mellon
 University), and the Gaussian 82(TM) system (copyright 1983,
 Carnegie Mellon University). Gaussian is a federally registered
 trademark of Gaussian, Inc.
  
 This software contains proprietary and confidential information,
 including trade secrets, belonging to Gaussian, Inc.
  
 This software is provided under written license and may be
 used, copied, transmitted, or stored only in accord with that
 written license.
  
 The following legend is applicable only to US Government
 contracts under FAR:
  
                    RESTRICTED RIGHTS LEGEND
  
 Use, reproduction and disclosure by the US Government is
 subject to restrictions as set forth in subparagraphs (a)
 and (c) of the Commercial Computer Software - Restricted
 Rights clause in FAR 52.227-19.
  
 Gaussian, Inc.
 340 Quinnipiac St., Bldg. 40, Wallingford CT 06492
  
  
 ---------------------------------------------------------------
 Warning -- This program may not be used in any manner that
 competes with the business of Gaussian, Inc. or will provide
 assistance to any competitor of Gaussian, Inc.  The licensee
 of this program is prohibited from giving any competitor of
 Gaussian, Inc. access to this program.  By using this program,
 the user acknowledges that Gaussian, Inc. is engaged in the
 business of creating and licensing software in the field of
 computational chemistry and represents and warrants to the
 licensee that it is not a competitor of Gaussian, Inc. and that
 it will not use this program in any manner prohibited above.
 ---------------------------------------------------------------
  

 Cite this work as:
 Gaussian 03, Revision D.01,
 M. J. Frisch, G. W. Trucks, H. B. Schlegel, G. E. Scuseria, 
 M. A. Robb, J. R. Cheeseman, J. A. Montgomery, Jr., T. Vreven, 
 K. N. Kudin, J. C. Burant, J. M. Millam, S. S. Iyengar, J. Tomasi, 
 V. Barone, B. Mennucci, M. Cossi, G. Scalmani, N. Rega, 
 G. A. Petersson, H. Nakatsuji, M. Hada, M. Ehara, K. Toyota, 
 R. Fukuda, J. Hasegawa, M. Ishida, T. Nakajima, Y. Honda, O. Kitao, 
 H. Nakai, M. Klene, X. Li, J. E. Knox, H. P. Hratchian, J. B. Cross, 
 V. Bakken, C. Adamo, J. Jaramillo, R. Gomperts, R. E. Stratmann, 
 O. Yazyev, A. J. Austin, R. Cammi, C. Pomelli, J. W. Ochterski, 
 P. Y. Ayala, K. Morokuma, G. A. Voth, P. Salvador, J. J. Dannenberg, 
 V. G. Zakrzewski, S. Dapprich, A. D. Daniels, M. C. Strain, 
 O. Farkas, D. K. Malick, A. D. Rabuck, K. Raghavachari, 
 J. B. Foresman, J. V. Ortiz, Q. Cui, A. G. Baboul, S. Clifford, 
 J. Cioslowski, B. B. Stefanov, G. Liu, A. Liashenko, P. Piskorz, 
 I. Komaromi, R. L. Martin, D. J. Fox, T. Keith, M. A. Al-Laham, 
 C. Y. Peng, A. Nanayakkara, M. Challacombe, P. M. W. Gill, 
 B. Johnson, W. Chen, M. W. Wong, C. Gonzalez, and J. A. Pople, 
 Gaussian, Inc., Wallingford CT, 2004.
 
 ******************************************
 Gaussian 03:  IA32W-G03RevD.01 13-Oct-2005
                13-Dec-2007 
 ******************************************
 --------------
 # opt dreiding
 --------------
 1/6=10,10=10,14=-1,18=4000020,38=1,56=1,64=1/1,3;
 2/9=110,17=6,18=5,40=1/2;
 3/5=30,11=9,16=1,25=1,30=1/1;
 4/20=9,22=1001,24=3/2;
 7/44=-1/16;
 1/6=10,10=10,14=-1,18=4000020,64=1/3(2);
 2/9=110/2;
 99//99;
 2/9=110/2;
 3/5=30,11=9,16=1,25=1,30=1/1;
 4/16=2,20=9,22=1001,24=3/2;
 7/44=-1/16;
 1/6=10,10=10,14=-1,18=4000020,64=1/3(-4);
 2/9=110/2;
 99//99;
 -----------------------
 methylformate O-CH3 ecl
 -----------------------
 Symbolic Z-matrix:
 Charge =  0 Multiplicity = 1
 C                    -0.94175  -0.07356   0.00322 
 O                    -0.98975   0.98144  -0.58478 
 O                     0.17625  -0.73056   0.41222 
 C                     1.43925  -0.14756   0.14022 
 H                    -1.84675  -0.66056   0.29322 
 H                     2.03525  -0.86056  -0.47778 
 H                     1.36225   0.82244  -0.40178 
 H                     1.97225   0.01844   1.10622 
 
 I=    1 IAn=  6 Valence= 6.
          JB=  1 J=    2 IAn=  8 IBT= 2 Dist= 1.21D+00
          JB=  2 J=    3 IAn=  8 IBT=12 Dist= 1.36D+00
          JB=  3 J=    5 IAn=  1 IBT= 1 Dist= 1.12D+00
 I=    3 IAn=  8 Valence=24.
          JB=  1 J=    1 IAn=  6 IBT=12 Dist= 1.36D+00
          JB=  2 J=    4 IAn=  6 IBT= 1 Dist= 1.42D+00
 Include all MM classes
 MMInit generated parameter data with length LenPar=   655.

 GradGradGradGradGradGradGradGradGradGradGradGradGradGradGradGradGradGrad
 Berny optimization.
 Initialization pass.
 No Z-matrix variables, so optimization will use Cartesian coordinates.
 Trust Radius=1.00D-01 FncErr=1.00D-07 GrdErr=1.00D-07
 Number of steps in this run=   2 maximum allowed number of steps=   2.
 GradGradGradGradGradGradGradGradGradGradGradGradGradGradGradGradGradGrad

                          Input orientation:                          
 ---------------------------------------------------------------------
 Center     Atomic     Atomic              Coordinates (Angstroms)
 Number     Number      Type              X           Y           Z
 ---------------------------------------------------------------------
    1          6      10061000       -0.941750   -0.073563    0.003219
    2          8      10081002       -0.989750    0.981438   -0.584781
    3          8      10081003        0.176250   -0.730563    0.412219
    4          6      10061003        1.439250   -0.147563    0.140219
    5          1      10011000       -1.846750   -0.660563    0.293219
    6          1      10011000        2.035250   -0.860563   -0.477781
    7          1      10011000        1.362250    0.822438   -0.401781
    8          1      10011000        1.972250    0.018438    1.106219
 ---------------------------------------------------------------------
                    Distance matrix (angstroms):
                    1          2          3          4          5
     1  C    0.000000
     2  O    1.208749   0.000000
     3  O    1.359726   2.298806   0.000000
     4  C    2.386086   2.774943   1.417407   0.000000
     5  H    1.117002   2.049755   2.027706   3.329320   0.000000
     6  H    3.116610   3.543309   2.065159   1.116024   3.962873
     7  H    2.505046   2.364461   2.116837   1.113819   3.602776
     8  H    3.117125   3.544051   2.065975   1.115707   3.963177
                    6          7          8
     6  H    0.000000
     7  H    1.814165   0.000000
     8  H    1.812641   1.814547   0.000000
 Stoichiometry    C2H4O2
 Framework group  C1[X(C2H4O2)]
 Deg. of freedom    18
 Full point group                 C1
 Largest Abelian subgroup         C1      NOp   1
 Largest concise Abelian subgroup C1      NOp   1
                         Standard orientation:                         
 ---------------------------------------------------------------------
 Center     Atomic     Atomic              Coordinates (Angstroms)
 Number     Number      Type              X           Y           Z
 ---------------------------------------------------------------------
    1          6      10061000       -0.839532    0.433013   -0.000272
    2          8      10081002       -1.361101   -0.657418    0.000129
    3          8      10081003        0.493566    0.700787    0.000349
    4          6      10061003        1.400758   -0.388269   -0.000305
    5          1      10011000       -1.412805    1.391685   -0.000809
    6          1      10011000        2.047093   -0.314267    0.906493
    7          1      10011000        0.890738   -1.378457    0.000108
    8          1      10011000        2.047900   -0.314380   -0.906147
 ---------------------------------------------------------------------
 Rotational constants (GHZ):     20.9074255      6.4288956      5.0806470
 Standard basis: Dummy (5D, 7F)
 There are     8 symmetry adapted basis functions of A   symmetry.
 Integral buffers will be    262144 words long.
 Raffenetti 1 integral format.
 Two-electron integral symmetry is turned on.
     8 basis functions,     8 primitive gaussians,     8 cartesian basis functions
     6 alpha electrons        6 beta electrons
       nuclear repulsion energy        17.4831730875 Hartrees.
 NAtoms=    8 NActive=    8 NUniq=    8 SFac= 7.50D-01 NAtFMM=   80 NAOKFM=F Big=F
 Dreiding calculation of energy and first derivatives.
 MO and density RWFs will be updated without deorthogonalization.
 NRF= 0 NRA=   0 NVA=   8 HaveQM=F
 Convergence limit is  0.750E-04 MaxStp=  5000 StMxLn= 1.00D-04 StpMin= 1.00D-06.
 Convergence criteria           0.00011250 0.00007500 0.00045000 0.00030000
  Step  NS  ND Rises OKQ   Scale  Max. Force  RMS Force Max. Disp.  RMS Disp.     Energy   Flag
     1   0   0   F    T  1.00D+00 0.11994206 0.03065688 0.11994206 0.03065688    0.0282219 ----
     2   0   0   F    F -2.19D-01 0.11994206 0.03065688 0.11994206 0.03065688    0.0201180 ----
     3   0   0   F    T  2.07D+00 0.02980301 0.01091957 0.03095599 0.01159157    0.0194308 ----
     4   0   0   F    F -4.10D-01 0.02980301 0.01091957 0.06394644 0.02394495    0.0185317 ----
     5   0   0   F    T  1.62D+00 0.02244801 0.00716974 0.02627121 0.00872809    0.0176883 ----
     6   0   0   F    F  2.09D-01 0.02244801 0.00716974 0.04249772 0.01411903    0.0165194 ----
     7   0   0   F    T  3.10D+00 0.01188983 0.00440096 0.01111255 0.00551082    0.0164834 ----
     8   0   0   F    F -4.06D-01 0.01188983 0.00440096 0.03443083 0.01707459    0.0162570 ----
     9   0   0   F    T  3.94D+00 0.00624754 0.00218604 0.00637997 0.00257470    0.0160548 ----
    10   0   0   F    F -4.10D-01 0.00624754 0.00218604 0.02512214 0.01013830    0.0159860 ----
    11   0   0   F    T  2.79D+00 0.00476125 0.00161627 0.00458852 0.00214544    0.0159214 ----
    12   0   0   T    F  3.35D-01 0.00476125 0.00161627 0.01279639 0.00598316    0.0160074 ----
    13   0   0   F    T  1.61D+00 0.00324491 0.00097467 0.00254759 0.00124875    0.0158921 ----
    14   0   0   F    F  1.35D+00 0.00324491 0.00097467 0.00409313 0.00200633    0.0158633 ----
    15   0   0   F    T  3.82D+00 0.00216465 0.00083373 0.00245320 0.00123784    0.0158490 ----
    16   0   0   F    F -4.00D-01 0.00216465 0.00083373 0.00936350 0.00472466    0.0158384 ----
    17   0   0   F    T  2.84D+00 0.00152125 0.00065082 0.00222689 0.00099737    0.0158299 ----
    18   0   0   F    F -2.82D-01 0.00152125 0.00065082 0.00633091 0.00283548    0.0158211 ----
    19   0   0   F    T  2.93D+00 0.00142766 0.00046732 0.00146797 0.00069550    0.0158195 ----
    20   0   0   T    F  3.40D-01 0.00142766 0.00046732 0.00429973 0.00203713    0.0158268 ----
    21   0   0   F    T  2.80D+00 0.00055243 0.00020677 0.00056888 0.00024745    0.0158169 ---+
    22   0   0   T    F  4.50D-01 0.00055243 0.00020677 0.00159117 0.00069213    0.0158172 ----
    23   0   0   F    T  1.53D+00 0.00040931 0.00015277 0.00071994 0.00020395    0.0158163 ---+
    24   0   0   F    F  5.47D+00 0.00040931 0.00015277 0.00109983 0.00031157    0.0158155 ----
    25   0   0   F    T  2.27D+01 0.00018713 0.00007419 0.00021598 0.00008873    0.0158135 -+++
    26   0   0   T    F  4.08D-02 0.00018713 0.00007419 0.00490355 0.00201442    0.0158472 -+--
    27   0   0   F    T  1.23D+00 0.00012655 0.00005136 0.00019740 0.00006671    0.0158135 -+++
    28   0   0   F    F  1.84D+00 0.00012655 0.00005136 0.00024336 0.00008224    0.0158134 -+++
    29   0   0   F    T  2.20D+00 0.00015970 0.00005897 0.00035184 0.00010587    0.0158133 -+++
    30   0   0   F    F -2.57D-01 0.00015970 0.00005897 0.00077551 0.00023337    0.0158133 -+-+
    31   0   0   F    T  4.87D+00 0.00006120 0.00002733 0.00008997 0.00003559    0.0158133 ====
 Energy=    0.015813272240 NIter=   0.
 Dipole moment=       0.000000       0.000000       0.000000
 ***** Axes restored to original set *****
 -------------------------------------------------------------------
 Center     Atomic                   Forces (Hartrees/Bohr)
 Number     Number              X              Y              Z
 -------------------------------------------------------------------
    1          6           0.000062010    0.000030833   -0.000013728
    2          8          -0.000003702   -0.000012200    0.000005134
    3          8           0.000008593   -0.000019310    0.000004365
    4          6           0.000015878    0.000052005   -0.000029546
    5          1          -0.000066941   -0.000027719    0.000018042
    6          1          -0.000015585   -0.000025671   -0.000002727
    7          1           0.000022019    0.000013544   -0.000006781
    8          1          -0.000022272   -0.000011482    0.000025241
 -------------------------------------------------------------------
 Cartesian Forces:  Max     0.000066941 RMS     0.000027334

 GradGradGradGradGradGradGradGradGradGradGradGradGradGradGradGradGradGrad
 Berny optimization.
 Search for a local minimum.
 Step number   1 out of a maximum of   2
 All quantities printed in internal units (Hartrees-Bohrs-Radians)
 Second derivative matrix not updated -- unit matrix used.
 RFO step:  Lambda=-1.79321927D-08.
 Linear search not attempted -- first point.
 TrRot=  0.000000  0.000000  0.000000  0.000000  0.000000  0.000000
 Variable       Old X    -DE/DX   Delta X   Delta X   Delta X     New X
                                 (Linear)    (Quad)   (Total)
    X1       -1.84073   0.00006   0.00000   0.00006   0.00006  -1.84067
    Y1       -0.24157   0.00003   0.00000   0.00003   0.00003  -0.24154
    Z1        0.06058  -0.00001   0.00000  -0.00001  -0.00001   0.06057
    X2       -1.97522   0.00000   0.00000   0.00000   0.00000  -1.97523
    Y2        1.82263  -0.00001   0.00000  -0.00001  -0.00001   1.82261
    Z2       -1.09155   0.00001   0.00000   0.00001   0.00001  -1.09155
    X3        0.33856   0.00001   0.00000   0.00001   0.00001   0.33857
    Y3       -1.39631  -0.00002   0.00000  -0.00002  -0.00002  -1.39633
    Z3        0.78821   0.00000   0.00000   0.00000   0.00000   0.78822
    X4        2.75772   0.00002   0.00000   0.00002   0.00002   2.75774
    Y4       -0.26555   0.00005   0.00000   0.00005   0.00005  -0.26550
    Z4        0.25823  -0.00003   0.00000  -0.00003  -0.00003   0.25820
    X5       -3.49835  -0.00007   0.00000  -0.00007  -0.00007  -3.49841
    Y5       -1.12773  -0.00003   0.00000  -0.00003  -0.00003  -1.12775
    Z5        0.48714   0.00002   0.00000   0.00002   0.00002   0.48716
    X6        3.85883  -0.00002   0.00000  -0.00002  -0.00002   3.85881
    Y6       -1.58831  -0.00003   0.00000  -0.00003  -0.00003  -1.58833
    Z6       -0.87444   0.00000   0.00000   0.00000   0.00000  -0.87444
    X7        2.67812   0.00002   0.00000   0.00002   0.00002   2.67814
    Y7        1.53641   0.00001   0.00000   0.00001   0.00001   1.53643
    Z7       -0.74489  -0.00001   0.00000  -0.00001  -0.00001  -0.74490
    X8        3.74143  -0.00002   0.00000  -0.00002  -0.00002   3.74141
    Y8        0.03116  -0.00001   0.00000  -0.00001  -0.00001   0.03114
    Z8        2.04410   0.00003   0.00000   0.00003   0.00003   2.04412
         Item               Value     Threshold  Converged?
 Maximum Force            0.000067     0.000450     YES
 RMS     Force            0.000027     0.000300     YES
 Maximum Displacement     0.000067     0.001800     YES
 RMS     Displacement     0.000027     0.001200     YES
 Predicted change in Energy=-8.966096D-09
 Optimization completed.
    -- Stationary point found.
 GradGradGradGradGradGradGradGradGradGradGradGradGradGradGradGradGradGrad

                          Input orientation:                          
 ---------------------------------------------------------------------
 Center     Atomic     Atomic              Coordinates (Angstroms)
 Number     Number      Type              X           Y           Z
 ---------------------------------------------------------------------
    1          6      10061000       -0.974074   -0.127832    0.032060
    2          8      10081002       -1.045244    0.964493   -0.577624
    3          8      10081003        0.179156   -0.738896    0.417104
    4          6      10061003        1.459323   -0.140522    0.136648
    5          1      10011000       -1.851246   -0.596767    0.257783
    6          1      10011000        2.042002   -0.840497   -0.462732
    7          1      10011000        1.417200    0.813036   -0.394180
    8          1      10011000        1.979881    0.016487    1.081690
 ---------------------------------------------------------------------
                    Distance matrix (angstroms):
                    1          2          3          4          5
     1  C    0.000000
     2  O    1.252978   0.000000
     3  O    1.360734   2.321675   0.000000
     4  C    2.435677   2.829152   1.440671   0.000000
     5  H    1.019942   1.945527   2.041597   3.344055   0.000000
     6  H    3.138379   3.578027   2.062675   1.090291   3.966854
     7  H    2.604823   2.473908   2.144627   1.092166   3.618748
     8  H    3.138217   3.578187   2.062738   1.090292   3.966414
                    6          7          8
     6  H    0.000000
     7  H    1.768968   0.000000
     8  H    1.767348   1.768980   0.000000
 Stoichiometry    C2H4O2
 Framework group  C1[X(C2H4O2)]
 Deg. of freedom    18
 Full point group                 C1
 Largest Abelian subgroup         C1      NOp   1
 Largest concise Abelian subgroup C1      NOp   1
                         Standard orientation:                         
 ---------------------------------------------------------------------
 Center     Atomic     Atomic              Coordinates (Angstroms)
 Number     Number      Type              X           Y           Z
 ---------------------------------------------------------------------
    1          6      10061000       -0.849476   -0.463797    0.000178
    2          8      10081002       -1.382907    0.669960   -0.000106
    3          8      10081003        0.490316   -0.701612   -0.000264
    4          6      10061003        1.432211    0.388511    0.000114
    5          1      10011000       -1.469506   -1.273639    0.000648
    6          1      10011000        2.064212    0.296994   -0.883591
    7          1      10011000        0.985385    1.385092    0.000391
    8          1      10011000        2.064226    0.296488    0.883757
 ---------------------------------------------------------------------
 Rotational constants (GHZ):     20.7087440      6.2268021      4.9344716
 1|1|UNPC-UNK|FOpt|Dreiding|ZDO|C2H4O2|PCUSER|13-Dec-2007|0||# opt drei
 ding||methylformate O-CH3 ecl||0,1|C,-0.9740737761,-0.1278323763,0.032
 059738|O,-1.0452439209,0.9644927684,-0.5776239564|O,0.1791563966,-0.73
 88960495,0.417104253|C,1.4593234399,-0.1405224841,0.1366484713|H,-1.85
 12460401,-0.5967673175,0.25778277|H,2.0420022776,-0.8404967759,-0.4627
 316156|H,1.4172001823,0.8130356408,-0.3941796462|H,1.9798814406,0.0164
 865941,1.0816899859||Version=IA32W-G03RevD.01|HF=0.0158133|RMSD=0.000e
 +000|RMSF=2.733e-005|Thermal=0.|Dipole=0.,0.,0.|PG=C01 [X(C2H4O2)]||@


 Standing in the middle of the road is very dangerous;
 you get knocked down by the traffic from both sides.
                                -- Margaret Thatcher
 Job cpu time:  0 days  0 hours  0 minutes  3.0 seconds.
 File lengths (MBytes):  RWF=     11 Int=      0 D2E=      0 Chk=      4 Scr=      1
 Normal termination of Gaussian 03 at Thu Dec 13 16:25:25 2007.
