 Entering Link 1 = C:\G03W\l1.exe PID=      3144.
  
 Copyright (c) 1988,1990,1992,1993,1995,1998,2003,2004, Gaussian, Inc.
                  All Rights Reserved.
  
 This is the Gaussian(R) 03 program.  It is based on the
 the Gaussian(R) 98 system (copyright 1998, Gaussian, Inc.),
 the Gaussian(R) 94 system (copyright 1995, Gaussian, Inc.),
 the Gaussian 92(TM) system (copyright 1992, Gaussian, Inc.),
 the Gaussian 90(TM) system (copyright 1990, Gaussian, Inc.),
 the Gaussian 88(TM) system (copyright 1988, Gaussian, Inc.),
 the Gaussian 86(TM) system (copyright 1986, Carnegie Mellon
 University), and the Gaussian 82(TM) system (copyright 1983,
 Carnegie Mellon University). Gaussian is a federally registered
 trademark of Gaussian, Inc.
  
 This software contains proprietary and confidential information,
 including trade secrets, belonging to Gaussian, Inc.
  
 This software is provided under written license and may be
 used, copied, transmitted, or stored only in accord with that
 written license.
  
 The following legend is applicable only to US Government
 contracts under FAR:
  
                    RESTRICTED RIGHTS LEGEND
  
 Use, reproduction and disclosure by the US Government is
 subject to restrictions as set forth in subparagraphs (a)
 and (c) of the Commercial Computer Software - Restricted
 Rights clause in FAR 52.227-19.
  
 Gaussian, Inc.
 340 Quinnipiac St., Bldg. 40, Wallingford CT 06492
  
  
 ---------------------------------------------------------------
 Warning -- This program may not be used in any manner that
 competes with the business of Gaussian, Inc. or will provide
 assistance to any competitor of Gaussian, Inc.  The licensee
 of this program is prohibited from giving any competitor of
 Gaussian, Inc. access to this program.  By using this program,
 the user acknowledges that Gaussian, Inc. is engaged in the
 business of creating and licensing software in the field of
 computational chemistry and represents and warrants to the
 licensee that it is not a competitor of Gaussian, Inc. and that
 it will not use this program in any manner prohibited above.
 ---------------------------------------------------------------
  

 Cite this work as:
 Gaussian 03, Revision D.01,
 M. J. Frisch, G. W. Trucks, H. B. Schlegel, G. E. Scuseria, 
 M. A. Robb, J. R. Cheeseman, J. A. Montgomery, Jr., T. Vreven, 
 K. N. Kudin, J. C. Burant, J. M. Millam, S. S. Iyengar, J. Tomasi, 
 V. Barone, B. Mennucci, M. Cossi, G. Scalmani, N. Rega, 
 G. A. Petersson, H. Nakatsuji, M. Hada, M. Ehara, K. Toyota, 
 R. Fukuda, J. Hasegawa, M. Ishida, T. Nakajima, Y. Honda, O. Kitao, 
 H. Nakai, M. Klene, X. Li, J. E. Knox, H. P. Hratchian, J. B. Cross, 
 V. Bakken, C. Adamo, J. Jaramillo, R. Gomperts, R. E. Stratmann, 
 O. Yazyev, A. J. Austin, R. Cammi, C. Pomelli, J. W. Ochterski, 
 P. Y. Ayala, K. Morokuma, G. A. Voth, P. Salvador, J. J. Dannenberg, 
 V. G. Zakrzewski, S. Dapprich, A. D. Daniels, M. C. Strain, 
 O. Farkas, D. K. Malick, A. D. Rabuck, K. Raghavachari, 
 J. B. Foresman, J. V. Ortiz, Q. Cui, A. G. Baboul, S. Clifford, 
 J. Cioslowski, B. B. Stefanov, G. Liu, A. Liashenko, P. Piskorz, 
 I. Komaromi, R. L. Martin, D. J. Fox, T. Keith, M. A. Al-Laham, 
 C. Y. Peng, A. Nanayakkara, M. Challacombe, P. M. W. Gill, 
 B. Johnson, W. Chen, M. W. Wong, C. Gonzalez, and J. A. Pople, 
 Gaussian, Inc., Wallingford CT, 2004.
 
 ******************************************
 Gaussian 03:  IA32W-G03RevD.01 13-Oct-2005
                09-Apr-2008 
 ******************************************
 --------------
 # opt dreiding
 --------------
 1/6=10,10=10,14=-1,18=4000020,38=1,56=1,64=1/1,3;
 2/9=110,17=6,18=5,40=1/2;
 3/5=30,11=9,16=1,25=1,30=1/1;
 4/20=9,22=1001,24=3/2;
 7/44=-1/16;
 1/6=10,10=10,14=-1,18=4000020,64=1/3(2);
 2/9=110/2;
 99//99;
 2/9=110/2;
 3/5=30,11=9,16=1,25=1,30=1/1;
 4/16=2,20=9,22=1001,24=3/2;
 7/44=-1/16;
 1/6=10,10=10,14=-1,18=4000020,64=1/3(-4);
 2/9=110/2;
 99//99;
 ----------------
 N-Me-acetamide-E
 ----------------
 Symbolic Z-matrix:
 Charge =  0 Multiplicity = 1
 C                     0.8376   -1.29938   0.15013 
 C                    -0.4104   -0.46238  -0.07688 
 O                    -1.4774   -0.99138  -0.27388 
 N                    -0.3164    0.91463  -0.05588 
 H                    -1.1964    1.41063  -0.21588 
 C                     0.9166    1.62663   0.17313 
 H                     1.2716   -1.09338   1.15513 
 H                     0.5986   -2.38638   0.10313 
 H                     1.5996   -1.08838  -0.63288 
 H                     0.7026    2.71863   0.13713 
 H                     1.3326    1.38663   1.17713 
 H                     1.6626    1.39163  -0.61988 
 
 Include all MM classes
 MMInit generated parameter data with length LenPar=  1117.

 GradGradGradGradGradGradGradGradGradGradGradGradGradGradGradGradGradGrad
 Berny optimization.
 Initialization pass.
 No Z-matrix variables, so optimization will use Cartesian coordinates.
 Trust Radius=1.00D-01 FncErr=1.00D-07 GrdErr=1.00D-07
 Number of steps in this run=   2 maximum allowed number of steps=   2.
 GradGradGradGradGradGradGradGradGradGradGradGradGradGradGradGradGradGrad

                          Input orientation:                          
 ---------------------------------------------------------------------
 Center     Atomic     Atomic              Coordinates (Angstroms)
 Number     Number      Type              X           Y           Z
 ---------------------------------------------------------------------
    1          6      10061003        0.837600   -1.299375    0.150125
    2          6      10061002       -0.410400   -0.462375   -0.076875
    3          8      10081002       -1.477400   -0.991375   -0.273875
    4          7      10071000       -0.316400    0.914625   -0.055875
    5          1      10011000       -1.196400    1.410625   -0.215875
    6          6      10061003        0.916600    1.626625    0.173125
    7          1      10011000        1.271600   -1.093375    1.155125
    8          1      10011000        0.598600   -2.386375    0.103125
    9          1      10011000        1.599600   -1.088375   -0.632875
   10          1      10011000        0.702600    2.718625    0.137125
   11          1      10011000        1.332600    1.386625    1.177125
   12          1      10011000        1.662600    1.391625   -0.619875
 ---------------------------------------------------------------------
                    Distance matrix (angstroms):
                    1          2          3          4          5
     1  C    0.000000
     2  C    1.519737   0.000000
     3  O    2.373576   1.207120   0.000000
     4  N    2.505184   1.380364   2.242383   0.000000
     5  H    3.408110   2.035988   2.419076   1.022749   0.000000
     6  C    2.927157   2.487438   3.575608   1.442107   2.159339
     7  H    1.113920   2.178327   3.099911   2.832019   3.773683
     8  H    1.113956   2.179967   2.529413   3.429155   4.212006
     9  H    1.112769   2.177409   3.099390   2.831253   3.773129
    10  H    4.020288   3.376881   4.322664   2.080871   2.332740
    11  H    2.917936   2.833614   3.956815   2.112410   2.887363
    12  H    2.918048   2.833636   3.957020   2.112360   2.887466
                    6          7          8          9         10
     6  C    0.000000
     7  H    2.913546   0.000000
     8  H    4.026188   1.797632   0.000000
     9  H    2.913306   1.817843   1.796803   0.000000
    10  H    1.113353   3.986406   5.106172   3.986321   0.000000
    11  H    1.112956   2.480848   3.990960   3.077826   1.803531
    12  H    1.113818   3.078755   3.991004   2.480834   1.804322
                   11         12
    11  H    0.000000
    12  H    1.827056   0.000000
 Stoichiometry    C3H7NO
 Framework group  C1[X(C3H7NO)]
 Deg. of freedom    30
 Full point group                 C1
 Largest Abelian subgroup         C1      NOp   1
 Largest concise Abelian subgroup C1      NOp   1
                         Standard orientation:                         
 ---------------------------------------------------------------------
 Center     Atomic     Atomic              Coordinates (Angstroms)
 Number     Number      Type              X           Y           Z
 ---------------------------------------------------------------------
    1          6      10061003        0.807943    1.326543   -0.000122
    2          6      10061002        0.596890   -0.178469   -0.000204
    3          8      10081002        1.540638   -0.931116    0.000248
    4          7      10071000       -0.687973   -0.682980   -0.000290
    5          1      10011000       -0.751736   -1.703740   -0.000028
    6          6      10061003       -1.869593    0.143729    0.000241
    7          1      10011000        0.358348    1.786445    0.909368
    8          1      10011000        1.894187    1.573466   -0.000203
    9          1      10011000        0.358494    1.786048   -0.908475
   10          1      10011000       -2.762549   -0.521241    0.000515
   11          1      10011000       -1.908746    0.779036    0.913217
   12          1      10011000       -1.908724    0.778957   -0.913839
 ---------------------------------------------------------------------
 Rotational constants (GHZ):      8.6602701      4.1632799      2.9204052
 Standard basis: Dummy (5D, 7F)
 There are    12 symmetry adapted basis functions of A   symmetry.
 Integral buffers will be    262144 words long.
 Raffenetti 1 integral format.
 Two-electron integral symmetry is turned on.
    12 basis functions,    12 primitive gaussians,    12 cartesian basis functions
     8 alpha electrons        8 beta electrons
       nuclear repulsion energy        28.3986124746 Hartrees.
 NAtoms=   12 NActive=   12 NUniq=   12 SFac= 7.50D-01 NAtFMM=   80 NAOKFM=F Big=F
 Dreiding calculation of energy and first derivatives.
 MO and density RWFs will be updated without deorthogonalization.
 NRF= 0 NRA=   0 NVA=  12 HaveQM=F
 Convergence limit is  0.750E-04 MaxStp=  5000 StMxLn= 1.00D-04 StpMin= 1.00D-06.
 Convergence criteria           0.00011250 0.00007500 0.00045000 0.00030000
  Step  NS  ND Rises OKQ   Scale  Max. Force  RMS Force Max. Disp.  RMS Disp.     Energy   Flag
     1   0   0   F    T  1.00D+00 0.05456540 0.01653699 0.05456540 0.01653699    0.0229433 ----
     2   0   0   F    F -1.19D-01 0.05456540 0.01653699 0.05456540 0.01653699    0.0186931 ----
     3   0   0   F    T  1.63D+00 0.02166113 0.00802209 0.02350866 0.00891615    0.0186142 ----
     4   0   0   F    F  6.77D-01 0.02166113 0.00802209 0.03840850 0.01456723    0.0159577 ----
     5   0   0   F    T  3.90D+00 0.01787010 0.00510812 0.01926951 0.00626990    0.0154401 ----
     6   0   0   T    F  4.03D-01 0.01787010 0.00510812 0.07510010 0.02443603    0.0163195 ----
     7   0   0   F    T  3.81D+00 0.00805972 0.00227064 0.00635026 0.00258563    0.0147022 ----
     8   0   0   F    F -2.13D-02 0.00805972 0.00227064 0.02419248 0.00985042    0.0143578 ----
     9   0   0   F    T  3.37D+00 0.00715005 0.00201592 0.00697850 0.00286187    0.0143576 ----
    10   0   0   F    F -1.89D-01 0.00715005 0.00201592 0.02350765 0.00964046    0.0141686 ----
    11   0   0   F    T  3.73D+00 0.00352640 0.00146035 0.00563017 0.00209447    0.0141578 ----
    12   0   0   F    F -3.48D-01 0.00352640 0.00146035 0.02102026 0.00781973    0.0140910 ----
    13   0   0   F    T  4.03D+00 0.00223720 0.00093244 0.00305972 0.00126429    0.0140643 ----
    14   0   0   F    F -4.62D-01 0.00223720 0.00093244 0.01233706 0.00509774    0.0140553 ----
    15   0   0   F    T  1.26D+00 0.00325582 0.00113160 0.00599745 0.00217778    0.0140303 ----
    16   0   0   F    F  1.55D+00 0.00325582 0.00113160 0.00755950 0.00274499    0.0139837 ----
    17   0   0   F    T  2.69D+00 0.00313650 0.00116673 0.00778062 0.00259896    0.0139564 ----
    18   0   0   F    F  6.55D-01 0.00313650 0.00116673 0.02096344 0.00700242    0.0138647 ----
    19   0   0   F    T  5.40D+00 0.00245917 0.00098366 0.00562608 0.00214737    0.0138478 ----
    20   0   0   T    F  3.84D-01 0.00245917 0.00098366 0.03036887 0.01159126    0.0139045 ----
    21   0   0   F    T  5.29D+00 0.00155263 0.00053653 0.00217351 0.00084125    0.0138117 ----
    22   0   0   T    F  4.95D-01 0.00155263 0.00053653 0.01150134 0.00445158    0.0138123 ----
    23   0   0   F    T  1.98D+00 0.00246971 0.00057167 0.00292552 0.00111261    0.0137981 ----
    24   0   0   F    F  7.22D-01 0.00246971 0.00057167 0.00579072 0.00220228    0.0137816 ----
    25   0   0   F    T  5.96D+00 0.00126124 0.00038502 0.00134447 0.00063654    0.0137781 ----
    26   0   0   T    F  1.67D-01 0.00126124 0.00038502 0.00800818 0.00379146    0.0138413 ----
    27   0   0   F    T  2.98D+00 0.00038821 0.00017151 0.00045546 0.00021291    0.0137754 ---+
    28   0   0   F    F -1.26D-01 0.00038821 0.00017151 0.00135740 0.00063453    0.0137741 ----
    29   0   0   F    T  1.68D+00 0.00067147 0.00019267 0.00070696 0.00033061    0.0137741 ----
    30   0   0   F    F  1.78D+00 0.00067147 0.00019267 0.00118552 0.00055440    0.0137722 ----
    31   0   0   F    T  1.68D+01 0.00018377 0.00007615 0.00016637 0.00009206    0.0137709 --++
    32   0   0   T    F  2.30D-01 0.00018377 0.00007615 0.00278969 0.00154363    0.0137751 ----
    33   0   0   F    T  4.11D+00 0.00013091 0.00006163 0.00020999 0.00008623    0.0137705 -+++
    34   0   0   T    F  4.34D-01 0.00013091 0.00006163 0.00086377 0.00035469    0.0137706 -+--
    35   0   0   F    T  1.61D+00 0.00024529 0.00005795 0.00025614 0.00009577    0.0137704 -+++
    36   0   0   F    F  9.00D-01 0.00024529 0.00005795 0.00041183 0.00015397    0.0137703 -+++
    37   0   0   F    T  2.93D+00 0.00016357 0.00005420 0.00027585 0.00009976    0.0137702 -+++
    38   0   0   T    F  4.50D-01 0.00016357 0.00005420 0.00080879 0.00029249    0.0137703 -+-+
    39   0   0   F    T  3.90D+00 0.00007143 0.00002552 0.00009055 0.00003376    0.0137702 ====
 Energy=    0.013770160725 NIter=   0.
 Dipole moment=       0.000000       0.000000       0.000000
 ***** Axes restored to original set *****
 -------------------------------------------------------------------
 Center     Atomic                   Forces (Hartrees/Bohr)
 Number     Number              X              Y              Z
 -------------------------------------------------------------------
    1          6           0.000004619    0.000003752    0.000006030
    2          6           0.000003602   -0.000081125    0.000003843
    3          8          -0.000009811    0.000016648   -0.000003237
    4          7           0.000033105    0.000043161    0.000001412
    5          1          -0.000070404   -0.000008831   -0.000010763
    6          6           0.000045936    0.000014493    0.000005232
    7          1           0.000014951   -0.000000326    0.000002262
    8          1          -0.000032002    0.000000025   -0.000006105
    9          1           0.000019316   -0.000000917   -0.000002097
   10          1          -0.000027587    0.000044088   -0.000005483
   11          1           0.000007420   -0.000015516    0.000024803
   12          1           0.000010853   -0.000015451   -0.000015898
 -------------------------------------------------------------------
 Cartesian Forces:  Max     0.000081125 RMS     0.000025521

 GradGradGradGradGradGradGradGradGradGradGradGradGradGradGradGradGradGrad
 Berny optimization.
 Search for a local minimum.
 Step number   1 out of a maximum of   2
 All quantities printed in internal units (Hartrees-Bohrs-Radians)
 Second derivative matrix not updated -- unit matrix used.
 RFO step:  Lambda=-2.34472256D-08.
 Linear search not attempted -- first point.
 TrRot=  0.000000  0.000000  0.000000  0.000000  0.000000  0.000000
 Variable       Old X    -DE/DX   Delta X   Delta X   Delta X     New X
                                 (Linear)    (Quad)   (Total)
    X1        1.53157   0.00000   0.00000   0.00000   0.00000   1.53157
    Y1       -2.50029   0.00000   0.00000   0.00000   0.00000  -2.50029
    Z1        0.27453   0.00001   0.00000   0.00001   0.00001   0.27454
    X2       -0.63964   0.00000   0.00000   0.00000   0.00000  -0.63964
    Y2       -0.86869  -0.00008   0.00000  -0.00008  -0.00008  -0.86877
    Z2       -0.11981   0.00000   0.00000   0.00000   0.00000  -0.11981
    X3       -2.68913  -0.00001   0.00000  -0.00001  -0.00001  -2.68914
    Y3       -1.87798   0.00002   0.00000   0.00002   0.00002  -1.87796
    Z3       -0.49903   0.00000   0.00000   0.00000   0.00000  -0.49903
    X4       -0.53722   0.00003   0.00000   0.00003   0.00003  -0.53719
    Y4        1.66965   0.00004   0.00000   0.00004   0.00004   1.66969
    Z4       -0.09399   0.00000   0.00000   0.00000   0.00000  -0.09399
    X5       -2.10358  -0.00007   0.00000  -0.00007  -0.00007  -2.10365
    Y5        2.60518  -0.00001   0.00000  -0.00001  -0.00001   2.60517
    Z5       -0.37929  -0.00001   0.00000  -0.00001  -0.00001  -0.37930
    X6        1.69488   0.00005   0.00000   0.00005   0.00005   1.69493
    Y6        3.14203   0.00001   0.00000   0.00001   0.00001   3.14204
    Z6        0.32006   0.00001   0.00000   0.00001   0.00001   0.32006
    X7        2.34808   0.00001   0.00000   0.00001   0.00001   2.34810
    Y7       -2.14222   0.00000   0.00000   0.00000   0.00000  -2.14222
    Z7        2.13356   0.00000   0.00000   0.00000   0.00000   2.13356
    X8        1.01736  -0.00003   0.00000  -0.00003  -0.00003   1.01733
    Y8       -4.49827   0.00000   0.00000   0.00000   0.00000  -4.49827
    Z8        0.17438  -0.00001   0.00000  -0.00001  -0.00001   0.17437
    X9        2.95526   0.00002   0.00000   0.00002   0.00002   2.95528
    Y9       -2.13283   0.00000   0.00000   0.00000   0.00000  -2.13283
    Z9       -1.17076   0.00000   0.00000   0.00000   0.00000  -1.17076
   X10        1.25989  -0.00003   0.00000  -0.00003  -0.00003   1.25986
   Y10        5.15904   0.00004   0.00000   0.00004   0.00004   5.15909
   Z10        0.24618  -0.00001   0.00000  -0.00001  -0.00001   0.24618
   X11        2.49433   0.00001   0.00000   0.00001   0.00001   2.49434
   Y11        2.72751  -0.00002   0.00000  -0.00002  -0.00002   2.72749
   Z11        2.17598   0.00002   0.00000   0.00002   0.00002   2.17600
   X12        3.10175   0.00001   0.00000   0.00001   0.00001   3.10176
   Y12        2.73726  -0.00002   0.00000  -0.00002  -0.00002   2.73724
   Z12       -1.13334  -0.00002   0.00000  -0.00002  -0.00002  -1.13336
         Item               Value     Threshold  Converged?
 Maximum Force            0.000081     0.000450     YES
 RMS     Force            0.000026     0.000300     YES
 Maximum Displacement     0.000081     0.001800     YES
 RMS     Displacement     0.000026     0.001200     YES
 Predicted change in Energy=-1.172361D-08
 Optimization completed.
    -- Stationary point found.
 GradGradGradGradGradGradGradGradGradGradGradGradGradGradGradGradGradGrad

                          Input orientation:                          
 ---------------------------------------------------------------------
 Center     Atomic     Atomic              Coordinates (Angstroms)
 Number     Number      Type              X           Y           Z
 ---------------------------------------------------------------------
    1          6      10061003        0.810471   -1.323098    0.145277
    2          6      10061002       -0.338484   -0.459692   -0.063402
    3          8      10081002       -1.423027   -0.993783   -0.264073
    4          7      10071000       -0.284285    0.883541   -0.049737
    5          1      10011000       -1.113164    1.378603   -0.200713
    6          6      10061003        0.896894    1.662688    0.169368
    7          1      10011000        1.242551   -1.133612    1.129030
    8          1      10011000        0.538366   -2.380380    0.092276
    9          1      10011000        1.563857   -1.128646   -0.619538
   10          1      10011000        0.666704    2.730048    0.130274
   11          1      10011000        1.319945    1.443334    1.151478
   12          1      10011000        1.641374    1.448495   -0.599739
 ---------------------------------------------------------------------
                    Distance matrix (angstroms):
                    1          2          3          4          5
     1  C    0.000000
     2  C    1.452279   0.000000
     3  O    2.294456   1.225461   0.000000
     4  N    2.470987   1.344396   2.206132   0.000000
     5  H    3.334557   1.999578   2.393375   0.977200   0.000000
     6  C    2.987134   2.466746   3.553412   1.431873   2.063491
     7  H    1.091040   2.091825   3.010912   2.790990   3.691725
     8  H    1.093022   2.117108   2.428312   3.368992   4.116230
     9  H    1.091029   2.091815   3.010983   2.790914   3.691634
    10  H    4.055723   3.349978   4.288286   2.084795   2.259178
    11  H    2.987499   2.801397   3.932838   2.080827   2.784355
    12  H    2.987838   2.801548   3.932931   2.080826   2.784167
                    6          7          8          9         10
     6  C    0.000000
     7  H    2.976529   0.000000
     8  H    4.059666   1.767814   0.000000
     9  H    2.976367   1.777850   1.767809   0.000000
    10  H    1.092599   4.031994   5.112181   4.031950   0.000000
    11  H    1.091618   2.578205   4.043954   3.132263   1.767828
    12  H    1.091629   3.132886   4.044230   2.578383   1.767845
                   11         12
    11  H    0.000000
    12  H    1.780478   0.000000
 Stoichiometry    C3H7NO
 Framework group  C1[X(C3H7NO)]
 Deg. of freedom    30
 Full point group                 C1
 Largest Abelian subgroup         C1      NOp   1
 Largest concise Abelian subgroup C1      NOp   1
                         Standard orientation:                         
 ---------------------------------------------------------------------
 Center     Atomic     Atomic              Coordinates (Angstroms)
 Number     Number      Type              X           Y           Z
 ---------------------------------------------------------------------
    1          6      10061003       -0.899188    1.258016    0.000004
    2          6      10061002       -0.561820   -0.154535    0.000007
    3          8      10081002       -1.485056   -0.960382   -0.000007
    4          7      10071000        0.696052   -0.629042   -0.000009
    5          1      10011000        0.821789   -1.598120    0.000072
    6          6      10061003        1.883299    0.171398   -0.000003
    7          1      10011000       -0.486675    1.737496   -0.888983
    8          1      10011000       -1.980611    1.416828    0.000114
    9          1      10011000       -0.486485    1.737539    0.888867
   10          1      10011000        2.774085   -0.461271   -0.000254
   11          1      10011000        1.916009    0.802482   -0.890112
   12          1      10011000        1.916232    0.802121    0.890366
 ---------------------------------------------------------------------
 Rotational constants (GHZ):      9.2161247      4.1592422      2.9734566
 1|1|UNPC-UNK|FOpt|Dreiding|ZDO|C3H7N1O1|PCUSER|09-Apr-2008|0||# opt dr
 eiding||N-Me-acetamide-E||0,1|C,0.81047093,-1.3230979595,0.1452765516|
 C,-0.3384844005,-0.4596916327,-0.0634015477|O,-1.4230270154,-0.9937825
 615,-0.2640728809|N,-0.2842851365,0.8835414789,-0.0497374389|H,-1.1131
 642561,1.3786033191,-0.2007131307|C,0.8968935665,1.6626884345,0.169367
 6117|H,1.2425505548,-1.1336116152,1.129029564|H,0.5383659133,-2.380380
 3236,0.0922759761|H,1.563857279,-1.1286461564,-0.6195377753|H,0.666703
 955,2.7300478751,0.1302735228|H,1.3199448006,1.4433341242,1.1514780865
 |H,1.6413738093,1.4484950173,-0.5997385393||Version=IA32W-G03RevD.01|H
 F=0.0137702|RMSD=0.000e+000|RMSF=2.552e-005|Thermal=0.|Dipole=0.,0.,0.
 |PG=C01 [X(C3H7N1O1)]||@


 THEORY:  SUPPOSITION WHICH HAS SCIENTIFIC BASIS,
          BUT NOT EXPERIMENTALLY PROVEN.
 FACT:    A THEORY WHICH HAS BEEN PROVEN BY ENOUGH 
          MONEY TO PAY FOR THE EXPERIMENTS.

                          --  THE WIZARD OF ID
 Job cpu time:  0 days  0 hours  0 minutes  2.0 seconds.
 File lengths (MBytes):  RWF=     11 Int=      0 D2E=      0 Chk=      4 Scr=      1
 Normal termination of Gaussian 03 at Wed Apr 09 19:58:10 2008.
