 Entering Gaussian System, Link 0=g09
 Input=2_methylthiane_ax.gjf
 Output=2_methylthiane_ax.out
 Initial command:
 /usr/local/g09/l1.exe /home/scratch/stylianakis/Gau-2678.inp -scrdir=/home/scratch/stylianakis/
 Entering Link 1 = /usr/local/g09/l1.exe PID=      2679.
  
 Copyright (c) 1988,1990,1992,1993,1995,1998,2003,2009, Gaussian, Inc.
                  All Rights Reserved.
  
 This is part of the Gaussian(R) 09 program.  It is based on
 the Gaussian(R) 03 system (copyright 2003, Gaussian, Inc.),
 the Gaussian(R) 98 system (copyright 1998, Gaussian, Inc.),
 the Gaussian(R) 94 system (copyright 1995, Gaussian, Inc.),
 the Gaussian 92(TM) system (copyright 1992, Gaussian, Inc.),
 the Gaussian 90(TM) system (copyright 1990, Gaussian, Inc.),
 the Gaussian 88(TM) system (copyright 1988, Gaussian, Inc.),
 the Gaussian 86(TM) system (copyright 1986, Carnegie Mellon
 University), and the Gaussian 82(TM) system (copyright 1983,
 Carnegie Mellon University). Gaussian is a federally registered
 trademark of Gaussian, Inc.
  
 This software contains proprietary and confidential information,
 including trade secrets, belonging to Gaussian, Inc.
  
 This software is provided under written license and may be
 used, copied, transmitted, or stored only in accord with that
 written license.
  
 The following legend is applicable only to US Government
 contracts under FAR:
  
                    RESTRICTED RIGHTS LEGEND
  
 Use, reproduction and disclosure by the US Government is
 subject to restrictions as set forth in subparagraphs (a)
 and (c) of the Commercial Computer Software - Restricted
 Rights clause in FAR 52.227-19.
  
 Gaussian, Inc.
 340 Quinnipiac St., Bldg. 40, Wallingford CT 06492
  
  
 ---------------------------------------------------------------
 Warning -- This program may not be used in any manner that
 competes with the business of Gaussian, Inc. or will provide
 assistance to any competitor of Gaussian, Inc.  The licensee
 of this program is prohibited from giving any competitor of
 Gaussian, Inc. access to this program.  By using this program,
 the user acknowledges that Gaussian, Inc. is engaged in the
 business of creating and licensing software in the field of
 computational chemistry and represents and warrants to the
 licensee that it is not a competitor of Gaussian, Inc. and that
 it will not use this program in any manner prohibited above.
 ---------------------------------------------------------------
  

 Cite this work as:
 Gaussian 09, Revision A.01,
 M. J. Frisch, G. W. Trucks, H. B. Schlegel, G. E. Scuseria, 
 M. A. Robb, J. R. Cheeseman, G. Scalmani, V. Barone, B. Mennucci, 
 G. A. Petersson, H. Nakatsuji, M. Caricato, X. Li, H. P. Hratchian, 
 A. F. Izmaylov, J. Bloino, G. Zheng, J. L. Sonnenberg, M. Hada, 
 M. Ehara, K. Toyota, R. Fukuda, J. Hasegawa, M. Ishida, T. Nakajima, 
 Y. Honda, O. Kitao, H. Nakai, T. Vreven, J. A. Montgomery, Jr., 
 J. E. Peralta, F. Ogliaro, M. Bearpark, J. J. Heyd, E. Brothers, 
 K. N. Kudin, V. N. Staroverov, R. Kobayashi, J. Normand, 
 K. Raghavachari, A. Rendell, J. C. Burant, S. S. Iyengar, J. Tomasi, 
 M. Cossi, N. Rega, J. M. Millam, M. Klene, J. E. Knox, J. B. Cross, 
 V. Bakken, C. Adamo, J. Jaramillo, R. Gomperts, R. E. Stratmann, 
 O. Yazyev, A. J. Austin, R. Cammi, C. Pomelli, J. W. Ochterski, 
 R. L. Martin, K. Morokuma, V. G. Zakrzewski, G. A. Voth, 
 P. Salvador, J. J. Dannenberg, S. Dapprich, A. D. Daniels, 
 O. Farkas, J. B. Foresman, J. V. Ortiz, J. Cioslowski, 
 and D. J. Fox, Gaussian, Inc., Wallingford CT, 2009.
 
 ******************************************
 Gaussian 09:  EM64L-G09RevA.01  8-May-2009
                15-Mar-2016 
 ******************************************
 %mem=16000Mb
 %nproc=8
 Will use up to    8 processors via shared memory.
 -------------
 # mp2/cc-pVTZ
 -------------
 1/38=1/1;
 2/12=2,17=6,18=5,40=1/2;
 3/5=16,6=1,11=9,16=1,25=1,30=1/1,2,3;
 4//1;
 5/5=2,38=5/2;
 8/10=1/1;
 9/16=-3/6;
 6/7=2,8=2,9=2,10=2/1;
 99/5=1,9=1/99;
 ------------------------------
 2_methylthiane_ax_single_point
 ------------------------------
 Symbolic Z-matrix:
 Charge =  0 Multiplicity = 1
 c
 c                    1    cc2
 c                    2    cc3      1    ccc3
 c                    3    cc4      2    ccc4     1    dih4     0
 s                    4    sc5      3    scc5     2    dih5     0
 c                    5    cs6      4    csc6     3    dih6     0
 c                    6    cc7      5    ccs7     4    dih7     0
 h                    3    hc8      4    hcc8     5    dih8     0
 h                    3    hc9      4    hcc9     5    dih9     0
 h                    4    hc10     3    hcc10    2    dih10    0
 h                    4    hc11     3    hcc11    2    dih11    0
 h                    2    hc12     3    hcc12    4    dih12    0
 h                    2    hc13     3    hcc13    4    dih13    0
 h                    6    hc14     5    hcs14    4    dih14    0
 h                    1    hc15     2    hcc15    3    dih15    0
 h                    1    hc16     2    hcc16    3    dih16    0
 h                    7    hc17     6    hcc17    5    dih17    0
 h                    7    hc18     6    hcc18    5    dih18    0
 h                    7    hc19     6    hcc19    5    dih19    0
       Variables:
  cc2                   1.53842                  
  cc3                   1.53667                  
  ccc3                113.148                    
  cc4                   1.53088                  
  ccc4                112.784                    
  dih4                -59.679                    
  sc5                   1.83979                  
  scc5                112.814                    
  dih5                 59.985                    
  cs6                   1.85353                  
  csc6                 99.717                    
  dih6                -52.849                    
  cc7                   1.5341                   
  ccs7                112.507                    
  dih7                -77.869                    
  hc8                   1.0976                   
  hcc8                109.061                    
  dih8                -62.005                    
  hc9                   1.09864                  
  hcc9                108.696                    
  dih9               -178.387                    
  hc10                  1.0963                   
  hcc10               110.785                    
  dih10               -63.231                    
  hc11                  1.09414                  
  hcc11               111.175                    
  dih11               177.581                    
  hc12                  1.09679                  
  hcc12               109.298                    
  dih12               178.963                    
  hc13                  1.09872                  
  hcc13               109.329                    
  dih13                63.282                    
  hc14                  1.09613                  
  hcs14               102.522                    
  dih14               166.108                    
  hc15                  1.0989                   
  hcc15               109.291                    
  dih15              -178.238                    
  hc16                  1.09701                  
  hcc16               108.944                    
  dih16               -61.86                     
  hc17                  1.09337                  
  hcc17               110.748                    
  dih17               -56.771                    
  hc18                  1.0977                   
  hcc18               110.142                    
  dih18              -176.527                    
  hc19                  1.09421                  
  hcc19               112.2                      
  dih19                63.605                    
 
                          Input orientation:                          
 ---------------------------------------------------------------------
 Center     Atomic      Atomic             Coordinates (Angstroms)
 Number     Number       Type             X           Y           Z
 ---------------------------------------------------------------------
      1          6           0        0.000000    0.000000    0.000000
      2          6           0        0.000000    0.000000    1.538418
      3          6           0        1.412953    0.000000    2.142493
      4          6           0        2.238179   -1.218359    1.720360
      5         16           0        2.467052   -1.328339   -0.101817
      6          6           0        0.699305   -1.211402   -0.646777
      7          6           0       -0.059540   -2.532365   -0.466041
      8          1           0        1.941979    0.913192    1.840952
      9          1           0        1.343130    0.015361    3.238806
     10          1           0        1.781496   -2.144274    2.089122
     11          1           0        3.251652   -1.170404    2.129895
     12          1           0       -0.545045    0.883956    1.891242
     13          1           0       -0.556135   -0.869909    1.914128
     14          1           0        0.794261   -1.014888   -1.720954
     15          1           0       -1.036708    0.031892   -0.363039
     16          1           0        0.489358    0.914948   -0.356138
     17          1           0        0.439941   -3.342721   -1.003908
     18          1           0       -1.081015   -2.437994   -0.856705
     19          1           0       -0.132792   -2.826581    0.585329
 ---------------------------------------------------------------------
                    Distance matrix (angstroms):
                    1          2          3          4          5
     1  C    0.000000
     2  C    1.538418   0.000000
     3  C    2.566459   1.536666   0.000000
     4  C    3.074652   2.554789   1.530880   0.000000
     5  S    2.803782   3.246722   2.812924   1.839785   0.000000
     6  C    1.541052   2.594532   3.123590   2.823388   1.853533
     7  C    2.575580   3.230213   3.922443   3.433143   2.822410
     8  H    2.827420   2.167194   1.097595   2.155409   3.012394
     9  H    3.506295   2.166923   1.098642   2.151478   3.772068
    10  H    3.483686   2.841639   2.176369   1.096295   2.436380
    11  H    4.059500   3.506128   2.179638   1.094142   2.370882
    12  H    2.157602   1.096785   2.162929   3.492172   4.235477
    13  H    2.174837   1.098720   2.164763   2.822615   3.662493
    14  H    2.150008   3.504905   4.042153   3.737505   2.349060
    15  H    1.098898   2.165945   3.504218   4.077813   3.767598
    16  H    1.097012   2.160080   2.816614   3.452712   3.001381
    17  H    3.517835   4.222647   4.692587   3.894638   2.996778
    18  H    2.801134   3.584553   4.599878   4.375594   3.793411
    19  H    2.889603   2.985896   3.578219   3.081587   3.078325
                    6          7          8          9         10
     6  C    0.000000
     7  C    1.534097   0.000000
     8  H    3.499562   4.604363   0.000000
     9  H    4.125193   4.710019   1.765989   0.000000
    10  H    3.086508   3.173150   3.071716   2.485551   0.000000
    11  H    3.771746   4.422422   2.477923   2.505630   1.763929
    12  H    3.518589   4.178965   2.487704   2.477013   3.823889
    13  H    2.872452   2.945433   3.070078   2.479049   2.668174
    14  H    1.096126   2.146281   4.209742   5.095282   4.094731
    15  H    2.154072   2.746066   3.808784   4.317081   4.323316
    16  H    2.156366   3.492468   2.633879   3.802869   4.124046
    17  H    2.176541   1.093370   5.334992   5.485716   3.578111
    18  H    2.172127   1.097696   5.257974   5.354310   4.118026
    19  H    2.195284   1.094215   4.457260   4.158837   2.528129
                   11         12         13         14         15
    11  H    0.000000
    12  H    4.323455   0.000000
    13  H    3.825716   1.754049   0.000000
    14  H    4.570776   4.295034   3.880518   0.000000
    15  H    5.103946   2.459579   2.495933   2.508412   0.000000
    16  H    4.261376   2.474200   3.071299   2.383266   1.763154
    17  H    4.737658   5.216981   3.952455   2.461403   3.738879
    18  H    5.412816   4.344402   3.226748   2.507752   2.519127
    19  H    4.072232   3.955180   2.402810   3.075809   3.144412
                   16         17         18         19
    16  H    0.000000
    17  H    4.306947   0.000000
    18  H    3.736155   1.775812   0.000000
    19  H    3.908001   1.766379   1.769064   0.000000
 Stoichiometry    C6H12S
 Framework group  C1[X(C6H12S)]
 Deg. of freedom    51
 Full point group                 C1      NOp   1
 Largest Abelian subgroup         C1      NOp   1
 Largest concise Abelian subgroup C1      NOp   1
                         Standard orientation:                         
 ---------------------------------------------------------------------
 Center     Atomic      Atomic             Coordinates (Angstroms)
 Number     Number       Type             X           Y           Z
 ---------------------------------------------------------------------
      1          6           0       -0.220321    1.355554   -0.768682
      2          6           0        1.021472    1.474062    0.131671
      3          6           0        1.893782    0.208994    0.127242
      4          6           0        1.139611   -1.032847    0.609582
      5         16           0       -0.326517   -1.425684   -0.430109
      6          6           0       -1.186464    0.215829   -0.391271
      7          6           0       -1.939043    0.453543    0.924240
      8          1           0        2.272705    0.026943   -0.886656
      9          1           0        2.767747    0.363849    0.774713
     10          1           0        0.827980   -0.917401    1.654293
     11          1           0        1.771240   -1.924628    0.555566
     12          1           0        1.620839    2.328810   -0.204635
     13          1           0        0.717705    1.702739    1.162505
     14          1           0       -1.924749    0.116437   -1.195354
     15          1           0       -0.778925    2.301536   -0.743071
     16          1           0        0.104651    1.206760   -1.805836
     17          1           0       -2.661633   -0.346384    1.107102
     18          1           0       -2.483075    1.405991    0.881698
     19          1           0       -1.264430    0.495483    1.784731
 ---------------------------------------------------------------------
 Rotational constants (GHZ):      2.5626155      2.2665856      1.5414176
 Standard basis: CC-pVTZ (5D, 7F)
 There are   382 symmetry adapted basis functions of A   symmetry.
 Integral buffers will be    131072 words long.
 Raffenetti 1 integral format.
 Two-electron integral symmetry is turned on.
   382 basis functions,   610 primitive gaussians,   429 cartesian basis functions
    32 alpha electrons       32 beta electrons
       nuclear repulsion energy       395.8063125050 Hartrees.
 NAtoms=   19 NActive=   19 NUniq=   19 SFac= 7.50D-01 NAtFMM=   80 NAOKFM=F Big=F
 One-electron integrals computed using PRISM.
 NBasis=   382 RedAO= T  NBF=   382
 NBsUse=   382 1.00D-06 NBFU=   382
 Harris functional with IExCor=  205 diagonalized for initial guess.
 ExpMin= 1.03D-01 ExpMax= 3.74D+05 ExpMxC= 1.18D+03 IAcc=2 IRadAn=         0 AccDes= 0.00D+00
 HarFok:  IExCor=  205 AccDes= 0.00D+00 IRadAn=         0 IDoV= 1
 ScaDFX=  1.000000  1.000000  1.000000  1.000000
 FoFCou: FMM=F IPFlag=           0 FMFlag=      100000 FMFlg1=           0
         NFxFlg=           0 DoJE=T BraDBF=F KetDBF=T FulRan=T
         Omega=  0.000000  0.000000  1.000000  0.000000  0.000000 ICntrl=     500 IOpCl=  0
         NMat0=    1 NMatS0=    1 NMatT0=    0 NMatD0=    1 NMtDS0=    0 NMtDT0=    0
         I1Cent=           4 NGrid=           0.
 Petite list used in FoFCou.
 Initial guess orbital symmetries:
       Occupied  (A) (A) (A) (A) (A) (A) (A) (A) (A) (A) (A) (A)
                 (A) (A) (A) (A) (A) (A) (A) (A) (A) (A) (A) (A)
                 (A) (A) (A) (A) (A) (A) (A) (A)
       Virtual   (A) (A) (A) (A) (A) (A) (A) (A) (A) (A) (A) (A)
                 (A) (A) (A) (A) (A) (A) (A) (A) (A) (A) (A) (A)
                 (A) (A) (A) (A) (A) (A) (A) (A) (A) (A) (A) (A)
                 (A) (A) (A) (A) (A) (A) (A) (A) (A) (A) (A) (A)
                 (A) (A) (A) (A) (A) (A) (A) (A) (A) (A) (A) (A)
                 (A) (A) (A) (A) (A) (A) (A) (A) (A) (A) (A) (A)
                 (A) (A) (A) (A) (A) (A) (A) (A) (A) (A) (A) (A)
                 (A) (A) (A) (A) (A) (A) (A) (A) (A) (A) (A) (A)
                 (A) (A) (A) (A) (A) (A) (A) (A) (A) (A) (A) (A)
                 (A) (A) (A) (A) (A) (A) (A) (A) (A) (A) (A) (A)
                 (A) (A) (A) (A) (A) (A) (A) (A) (A) (A) (A) (A)
                 (A) (A) (A) (A) (A) (A) (A) (A) (A) (A) (A) (A)
                 (A) (A) (A) (A) (A) (A) (A) (A) (A) (A) (A) (A)
                 (A) (A) (A) (A) (A) (A) (A) (A) (A) (A) (A) (A)
                 (A) (A) (A) (A) (A) (A) (A) (A) (A) (A) (A) (A)
                 (A) (A) (A) (A) (A) (A) (A) (A) (A) (A) (A) (A)
                 (A) (A) (A) (A) (A) (A) (A) (A) (A) (A) (A) (A)
                 (A) (A) (A) (A) (A) (A) (A) (A) (A) (A) (A) (A)
                 (A) (A) (A) (A) (A) (A) (A) (A) (A) (A) (A) (A)
                 (A) (A) (A) (A) (A) (A) (A) (A) (A) (A) (A) (A)
                 (A) (A) (A) (A) (A) (A) (A) (A) (A) (A) (A) (A)
                 (A) (A) (A) (A) (A) (A) (A) (A) (A) (A) (A) (A)
                 (A) (A) (A) (A) (A) (A) (A) (A) (A) (A) (A) (A)
                 (A) (A) (A) (A) (A) (A) (A) (A) (A) (A) (A) (A)
                 (A) (A) (A) (A) (A) (A) (A) (A) (A) (A) (A) (A)
                 (A) (A) (A) (A) (A) (A) (A) (A) (A) (A) (A) (A)
                 (A) (A) (A) (A) (A) (A) (A) (A) (A) (A) (A) (A)
                 (A) (A) (A) (A) (A) (A) (A) (A) (A) (A) (A) (A)
                 (A) (A) (A) (A) (A) (A) (A) (A) (A) (A) (A) (A)
                 (A) (A)
 The electronic state of the initial guess is 1-A.
 Requested convergence on RMS density matrix=1.00D-08 within 128 cycles.
 Requested convergence on MAX density matrix=1.00D-06.
 Requested convergence on             energy=1.00D-06.
 No special actions if energy rises.
 Integral accuracy reduced to 1.0D-05 until final iterations.
 Initial convergence to 1.0D-05 achieved.  Increase integral accuracy.
 SCF Done:  E(RHF) =  -631.826576067     A.U. after   13 cycles
             Convg  =    0.2960D-08             -V/T =  2.0008
 ExpMin= 1.03D-01 ExpMax= 3.74D+05 ExpMxC= 1.18D+03 IAcc=3 IRadAn=         5 AccDes= 0.00D+00
 HarFok:  IExCor=  205 AccDes= 0.00D+00 IRadAn=         5 IDoV=-2
 ScaDFX=  1.000000  1.000000  1.000000  1.000000
 Range of M.O.s used for correlation:    12   382
 NBasis=   382 NAE=    32 NBE=    32 NFC=    11 NFV=     0
 NROrb=    371 NOA=    21 NOB=    21 NVA=   350 NVB=   350

 **** Warning!!: The largest alpha MO coefficient is  0.12019607D+02

 Fully direct method using O(OVN) memory.
 JobTyp=1 Pass  1:  I=   1 to  21 NPSUse=  8 ParTrn=T ParDer=T DoDerP=F.
 Spin components of T(2) and E(2):
     alpha-alpha T2 =       0.5069387986D-01 E2=     -0.1403686933D+00
     alpha-beta  T2 =       0.3029210356D+00 E2=     -0.9377069993D+00
     beta-beta   T2 =       0.5069387986D-01 E2=     -0.1403686933D+00
 ANorm=    0.1185035356D+01
 E2 =    -0.1218444386D+01 EUMP2 =    -0.63304502045312D+03

 **********************************************************************

            Population analysis using the SCF density.

 **********************************************************************

 Orbital symmetries:
       Occupied  (A) (A) (A) (A) (A) (A) (A) (A) (A) (A) (A) (A)
                 (A) (A) (A) (A) (A) (A) (A) (A) (A) (A) (A) (A)
                 (A) (A) (A) (A) (A) (A) (A) (A)
       Virtual   (A) (A) (A) (A) (A) (A) (A) (A) (A) (A) (A) (A)
                 (A) (A) (A) (A) (A) (A) (A) (A) (A) (A) (A) (A)
                 (A) (A) (A) (A) (A) (A) (A) (A) (A) (A) (A) (A)
                 (A) (A) (A) (A) (A) (A) (A) (A) (A) (A) (A) (A)
                 (A) (A) (A) (A) (A) (A) (A) (A) (A) (A) (A) (A)
                 (A) (A) (A) (A) (A) (A) (A) (A) (A) (A) (A) (A)
                 (A) (A) (A) (A) (A) (A) (A) (A) (A) (A) (A) (A)
                 (A) (A) (A) (A) (A) (A) (A) (A) (A) (A) (A) (A)
                 (A) (A) (A) (A) (A) (A) (A) (A) (A) (A) (A) (A)
                 (A) (A) (A) (A) (A) (A) (A) (A) (A) (A) (A) (A)
                 (A) (A) (A) (A) (A) (A) (A) (A) (A) (A) (A) (A)
                 (A) (A) (A) (A) (A) (A) (A) (A) (A) (A) (A) (A)
                 (A) (A) (A) (A) (A) (A) (A) (A) (A) (A) (A) (A)
                 (A) (A) (A) (A) (A) (A) (A) (A) (A) (A) (A) (A)
                 (A) (A) (A) (A) (A) (A) (A) (A) (A) (A) (A) (A)
                 (A) (A) (A) (A) (A) (A) (A) (A) (A) (A) (A) (A)
                 (A) (A) (A) (A) (A) (A) (A) (A) (A) (A) (A) (A)
                 (A) (A) (A) (A) (A) (A) (A) (A) (A) (A) (A) (A)
                 (A) (A) (A) (A) (A) (A) (A) (A) (A) (A) (A) (A)
                 (A) (A) (A) (A) (A) (A) (A) (A) (A) (A) (A) (A)
                 (A) (A) (A) (A) (A) (A) (A) (A) (A) (A) (A) (A)
                 (A) (A) (A) (A) (A) (A) (A) (A) (A) (A) (A) (A)
                 (A) (A) (A) (A) (A) (A) (A) (A) (A) (A) (A) (A)
                 (A) (A) (A) (A) (A) (A) (A) (A) (A) (A) (A) (A)
                 (A) (A) (A) (A) (A) (A) (A) (A) (A) (A) (A) (A)
                 (A) (A) (A) (A) (A) (A) (A) (A) (A) (A) (A) (A)
                 (A) (A) (A) (A) (A) (A) (A) (A) (A) (A) (A) (A)
                 (A) (A) (A) (A) (A) (A) (A) (A) (A) (A) (A) (A)
                 (A) (A) (A) (A) (A) (A) (A) (A) (A) (A) (A) (A)
                 (A) (A)
 The electronic state is 1-A.
 Alpha  occ. eigenvalues --  -91.93186 -11.26051 -11.25232 -11.22750 -11.22714
 Alpha  occ. eigenvalues --  -11.22537 -11.21959  -8.93286  -6.61403  -6.61310
 Alpha  occ. eigenvalues --   -6.61227  -1.11709  -1.03872  -1.00265  -0.92704
 Alpha  occ. eigenvalues --   -0.83668  -0.82088  -0.72948  -0.65059  -0.61492
 Alpha  occ. eigenvalues --   -0.60800  -0.57905  -0.56364  -0.55594  -0.52001
 Alpha  occ. eigenvalues --   -0.50526  -0.49452  -0.48024  -0.46454  -0.42869
 Alpha  occ. eigenvalues --   -0.40378  -0.32989
 Alpha virt. eigenvalues --    0.13253   0.15086   0.16000   0.17340   0.17477
 Alpha virt. eigenvalues --    0.19574   0.20471   0.21234   0.22759   0.23438
 Alpha virt. eigenvalues --    0.23866   0.24490   0.25114   0.26900   0.31438
 Alpha virt. eigenvalues --    0.32430   0.34245   0.36367   0.36661   0.38616
 Alpha virt. eigenvalues --    0.40013   0.40954   0.41029   0.42759   0.44132
 Alpha virt. eigenvalues --    0.44602   0.46163   0.46737   0.48792   0.49043
 Alpha virt. eigenvalues --    0.52847   0.55423   0.56275   0.57899   0.58657
 Alpha virt. eigenvalues --    0.59148   0.59631   0.61221   0.62553   0.63029
 Alpha virt. eigenvalues --    0.63541   0.64172   0.65261   0.65793   0.66474
 Alpha virt. eigenvalues --    0.67232   0.67898   0.68038   0.68832   0.69596
 Alpha virt. eigenvalues --    0.69940   0.71068   0.73133   0.74905   0.80550
 Alpha virt. eigenvalues --    0.81581   0.84169   0.84582   0.89242   0.91368
 Alpha virt. eigenvalues --    0.93283   0.95182   0.97412   0.97973   0.99041
 Alpha virt. eigenvalues --    0.99714   1.01684   1.07091   1.08104   1.10403
 Alpha virt. eigenvalues --    1.11880   1.12878   1.14646   1.15199   1.17569
 Alpha virt. eigenvalues --    1.19090   1.19989   1.21502   1.23011   1.24115
 Alpha virt. eigenvalues --    1.24615   1.25839   1.27123   1.28523   1.29229
 Alpha virt. eigenvalues --    1.30691   1.31304   1.33263   1.34587   1.35129
 Alpha virt. eigenvalues --    1.36172   1.37373   1.37951   1.39169   1.41405
 Alpha virt. eigenvalues --    1.42255   1.43985   1.45904   1.46138   1.47149
 Alpha virt. eigenvalues --    1.48392   1.50129   1.51345   1.52118   1.54313
 Alpha virt. eigenvalues --    1.54684   1.55806   1.57532   1.59799   1.60177
 Alpha virt. eigenvalues --    1.61996   1.63415   1.64254   1.66299   1.67695
 Alpha virt. eigenvalues --    1.68028   1.69232   1.70950   1.74775   1.77502
 Alpha virt. eigenvalues --    1.78164   1.78471   1.80301   1.82956   1.85124
 Alpha virt. eigenvalues --    1.88654   1.90480   1.91415   1.95375   1.96192
 Alpha virt. eigenvalues --    2.03559   2.05558   2.09743   2.10588   2.15189
 Alpha virt. eigenvalues --    2.19790   2.22099   2.24805   2.25163   2.34482
 Alpha virt. eigenvalues --    2.40849   2.43097   2.46459   2.57447   2.58747
 Alpha virt. eigenvalues --    2.61751   2.63087   2.64347   2.68510   2.69773
 Alpha virt. eigenvalues --    2.74848   2.75881   2.76393   2.78082   2.78985
 Alpha virt. eigenvalues --    2.81130   2.83010   2.84460   2.87022   2.89144
 Alpha virt. eigenvalues --    2.90369   2.92974   2.95297   2.95990   2.96720
 Alpha virt. eigenvalues --    2.98759   2.99588   3.00793   3.01345   3.02918
 Alpha virt. eigenvalues --    3.03386   3.04383   3.09197   3.10006   3.12091
 Alpha virt. eigenvalues --    3.13289   3.16617   3.18451   3.20805   3.23352
 Alpha virt. eigenvalues --    3.23683   3.25737   3.26896   3.28515   3.30705
 Alpha virt. eigenvalues --    3.33052   3.34226   3.35155   3.35969   3.37215
 Alpha virt. eigenvalues --    3.38201   3.41382   3.42491   3.42713   3.43716
 Alpha virt. eigenvalues --    3.45215   3.46274   3.47058   3.47765   3.48971
 Alpha virt. eigenvalues --    3.50306   3.51546   3.53097   3.53627   3.53889
 Alpha virt. eigenvalues --    3.55794   3.56863   3.58891   3.61971   3.64443
 Alpha virt. eigenvalues --    3.65885   3.66577   3.67440   3.68276   3.69054
 Alpha virt. eigenvalues --    3.71130   3.73743   3.75744   3.76977   3.78032
 Alpha virt. eigenvalues --    3.79580   3.82145   3.82671   3.83428   3.85497
 Alpha virt. eigenvalues --    3.85860   3.86723   3.89666   3.91460   3.93620
 Alpha virt. eigenvalues --    3.95478   3.96638   3.98528   4.00160   4.00926
 Alpha virt. eigenvalues --    4.02820   4.03342   4.05345   4.06994   4.07789
 Alpha virt. eigenvalues --    4.09132   4.10440   4.11900   4.11979   4.14920
 Alpha virt. eigenvalues --    4.15741   4.18326   4.20600   4.21090   4.24122
 Alpha virt. eigenvalues --    4.24681   4.27542   4.28037   4.28829   4.32098
 Alpha virt. eigenvalues --    4.32390   4.33577   4.34177   4.34789   4.35483
 Alpha virt. eigenvalues --    4.37124   4.39909   4.41669   4.42573   4.42721
 Alpha virt. eigenvalues --    4.43552   4.46034   4.47699   4.49048   4.50291
 Alpha virt. eigenvalues --    4.51268   4.52317   4.54385   4.55305   4.57549
 Alpha virt. eigenvalues --    4.58176   4.59393   4.62300   4.64914   4.65770
 Alpha virt. eigenvalues --    4.66734   4.70149   4.71494   4.74114   4.75747
 Alpha virt. eigenvalues --    4.77039   4.79012   4.80920   4.85492   4.87827
 Alpha virt. eigenvalues --    4.92211   4.95003   4.97929   5.00667   5.03028
 Alpha virt. eigenvalues --    5.06443   5.09474   5.12479   5.14526   5.18413
 Alpha virt. eigenvalues --    5.18639   5.20917   5.23048   5.24826   5.25087
 Alpha virt. eigenvalues --    5.29823   5.30111   5.32375   5.32755   5.34788
 Alpha virt. eigenvalues --    5.37916   5.41050   5.42032   5.44417   5.50374
 Alpha virt. eigenvalues --    5.53857   5.55172   5.56077   5.58239   5.60278
 Alpha virt. eigenvalues --    5.62970   5.64223   5.65549   5.70324   5.70741
 Alpha virt. eigenvalues --    5.73555   5.76317   5.77625   5.79405   5.81513
 Alpha virt. eigenvalues --    5.81868   5.84952   5.89458   5.90940   5.97495
 Alpha virt. eigenvalues --    6.04014   6.09426   6.19638   6.29537   6.30258
 Alpha virt. eigenvalues --    6.35862   6.40122   6.45365   6.47020  11.75663
 Alpha virt. eigenvalues --   12.47903  13.03204  13.42252  13.49488  14.13440
          Condensed to atoms (all electrons):
              1          2          3          4          5          6
     1  C    4.899287   0.335395  -0.035315  -0.007128  -0.060028   0.341613
     2  C    0.335395   4.894277   0.340335  -0.033763  -0.000264  -0.030166
     3  C   -0.035315   0.340335   4.898288   0.335374  -0.061243  -0.002722
     4  C   -0.007128  -0.033763   0.335374   4.842276   0.287902  -0.030282
     5  S   -0.060028  -0.000264  -0.061243   0.287902  15.847256   0.306322
     6  C    0.341613  -0.030166  -0.002722  -0.030282   0.306322   4.905940
     7  C   -0.048285  -0.003805   0.001530  -0.002007  -0.070539   0.327718
     8  H   -0.002046  -0.035178   0.415989  -0.036581   0.003988  -0.000515
     9  H    0.006013  -0.040133   0.428976  -0.035768   0.007017  -0.000787
    10  H    0.001749  -0.004614  -0.043020   0.426462  -0.041594  -0.002013
    11  H   -0.000803   0.005732  -0.032206   0.427824  -0.029046   0.003091
    12  H   -0.034833   0.435856  -0.035393   0.005845  -0.000936   0.005502
    13  H   -0.036449   0.423602  -0.039097  -0.002133   0.000590  -0.002275
    14  H   -0.035555   0.006279  -0.001168   0.003996  -0.032462   0.439300
    15  H    0.429523  -0.041590   0.006046  -0.000851   0.006939  -0.035451
    16  H    0.427152  -0.033611  -0.002955  -0.000152   0.003796  -0.040122
    17  H    0.006476  -0.000311   0.000148  -0.000055   0.001691  -0.033822
    18  H   -0.002422  -0.000113   0.000045  -0.000402   0.007422  -0.036916
    19  H   -0.002731   0.000874  -0.000953   0.001716  -0.003131  -0.028650
              7          8          9         10         11         12
     1  C   -0.048285  -0.002046   0.006013   0.001749  -0.000803  -0.034833
     2  C   -0.003805  -0.035178  -0.040133  -0.004614   0.005732   0.435856
     3  C    0.001530   0.415989   0.428976  -0.043020  -0.032206  -0.035393
     4  C   -0.002007  -0.036581  -0.035768   0.426462   0.427824   0.005845
     5  S   -0.070539   0.003988   0.007017  -0.041594  -0.029046  -0.000936
     6  C    0.327718  -0.000515  -0.000787  -0.002013   0.003091   0.005502
     7  C    4.860701   0.000199  -0.000042   0.001458  -0.000118  -0.000171
     8  H    0.000199   0.579067  -0.029461   0.007128  -0.004398  -0.004546
     9  H   -0.000042  -0.029461   0.574657  -0.002675  -0.006118  -0.005407
    10  H    0.001458   0.007128  -0.002675   0.578086  -0.029831  -0.000128
    11  H   -0.000118  -0.004398  -0.006118  -0.029831   0.541424  -0.000233
    12  H   -0.000171  -0.004546  -0.005407  -0.000128  -0.000233   0.560596
    13  H   -0.001014   0.006605  -0.004808   0.001654  -0.000080  -0.031190
    14  H   -0.036857  -0.000174   0.000071  -0.000197  -0.000138  -0.000207
    15  H   -0.003958  -0.000045  -0.000208  -0.000050   0.000071  -0.005631
    16  H    0.007131   0.002413  -0.000057   0.000187  -0.000087  -0.005372
    17  H    0.421951   0.000002  -0.000009   0.000102  -0.000037   0.000030
    18  H    0.414705  -0.000007  -0.000014  -0.000127   0.000019  -0.000055
    19  H    0.411882  -0.000079   0.000071  -0.001973   0.000046   0.000099
             13         14         15         16         17         18
     1  C   -0.036449  -0.035555   0.429523   0.427152   0.006476  -0.002422
     2  C    0.423602   0.006279  -0.041590  -0.033611  -0.000311  -0.000113
     3  C   -0.039097  -0.001168   0.006046  -0.002955   0.000148   0.000045
     4  C   -0.002133   0.003996  -0.000851  -0.000152  -0.000055  -0.000402
     5  S    0.000590  -0.032462   0.006939   0.003796   0.001691   0.007422
     6  C   -0.002275   0.439300  -0.035451  -0.040122  -0.033822  -0.036916
     7  C   -0.001014  -0.036857  -0.003958   0.007131   0.421951   0.414705
     8  H    0.006605  -0.000174  -0.000045   0.002413   0.000002  -0.000007
     9  H   -0.004808   0.000071  -0.000208  -0.000057  -0.000009  -0.000014
    10  H    0.001654  -0.000197  -0.000050   0.000187   0.000102  -0.000127
    11  H   -0.000080  -0.000138   0.000071  -0.000087  -0.000037   0.000019
    12  H   -0.031190  -0.000207  -0.005631  -0.005372   0.000030  -0.000055
    13  H    0.589373  -0.000297  -0.003930   0.006247   0.000060   0.000467
    14  H   -0.000297   0.551470  -0.005345  -0.006895  -0.005089  -0.005396
    15  H   -0.003930  -0.005345   0.574229  -0.027642  -0.000186   0.001053
    16  H    0.006247  -0.006895  -0.027642   0.561528  -0.000236  -0.000039
    17  H    0.000060  -0.005089  -0.000186  -0.000236   0.548631  -0.026706
    18  H    0.000467  -0.005396   0.001053  -0.000039  -0.026706   0.586364
    19  H   -0.003374   0.005872   0.000388  -0.000370  -0.028569  -0.034416
             19
     1  C   -0.002731
     2  C    0.000874
     3  C   -0.000953
     4  C    0.001716
     5  S   -0.003131
     6  C   -0.028650
     7  C    0.411882
     8  H   -0.000079
     9  H    0.000071
    10  H   -0.001973
    11  H    0.000046
    12  H    0.000099
    13  H   -0.003374
    14  H    0.005872
    15  H    0.000388
    16  H   -0.000370
    17  H   -0.028569
    18  H   -0.034416
    19  H    0.591834
 Mulliken atomic charges:
              1
     1  C   -0.181612
     2  C   -0.218804
     3  C   -0.172658
     4  C   -0.182270
     5  S   -0.173680
     6  C   -0.085766
     7  C   -0.280478
     8  H    0.097639
     9  H    0.108683
    10  H    0.109397
    11  H    0.124886
    12  H    0.116173
    13  H    0.096048
    14  H    0.122793
    15  H    0.106637
    16  H    0.109083
    17  H    0.115929
    18  H    0.096536
    19  H    0.091464
 Sum of Mulliken atomic charges =   0.00000
 Mulliken charges with hydrogens summed into heavy atoms:
              1
     1  C    0.034108
     2  C   -0.006583
     3  C    0.033665
     4  C    0.052013
     5  S   -0.173680
     6  C    0.037027
     7  C    0.023451
 Sum of Mulliken charges with hydrogens summed into heavy atoms =   0.00000
 Electronic spatial extent (au):  <R**2>=            924.5170
 Charge=              0.0000 electrons
 Dipole moment (field-independent basis, Debye):
    X=              0.5213    Y=              1.7497    Z=              0.7326  Tot=              1.9672
 Quadrupole moment (field-independent basis, Debye-Ang):
   XX=            -50.5916   YY=            -55.7282   ZZ=            -53.3859
   XY=             -2.2161   XZ=              1.2096   YZ=             -1.6414
 Traceless Quadrupole moment (field-independent basis, Debye-Ang):
   XX=              2.6436   YY=             -2.4930   ZZ=             -0.1506
   XY=             -2.2161   XZ=              1.2096   YZ=             -1.6414
 Octapole moment (field-independent basis, Debye-Ang**2):
  XXX=             -1.1514  YYY=              4.5808  ZZZ=              1.6637  XYY=              4.9035
  XXY=             -1.3597  XXZ=             -1.8595  XZZ=             -0.0191  YZZ=              1.6425
  YYZ=              1.4896  XYZ=             -1.0540
 Hexadecapole moment (field-independent basis, Debye-Ang**3):
 XXXX=           -586.1426 YYYY=           -497.0515 ZZZZ=           -212.5524 XXXY=             -0.7790
 XXXZ=              6.1906 YYYX=            -15.0222 YYYZ=             -4.3162 ZZZX=              3.7725
 ZZZY=             -3.7249 XXYY=           -175.3716 XXZZ=           -132.5509 YYZZ=           -123.1808
 XXYZ=             -0.7550 YYXZ=              0.6873 ZZXY=              1.8777
 N-N= 3.958063125050D+02 E-N=-2.283032642363D+03  KE= 6.313431872730D+02
 1\1\GINC-ROCK\SP\RMP2-FC\CC-pVTZ\C6H12S1\STYLIANAKIS\15-Mar-2016\0\\# 
 mp2/cc-pVTZ\\2_methylthiane_ax_single_point\\0,1\C\C,1,1.538418\C,2,1.
 536666,1,113.148\C,3,1.53088,2,112.784,1,-59.679,0\S,4,1.839785,3,112.
 814,2,59.985,0\C,5,1.853533,4,99.717,3,-52.849,0\C,6,1.534097,5,112.50
 7,4,-77.869,0\H,3,1.097595,4,109.061,5,-62.005,0\H,3,1.098642,4,108.69
 6,5,-178.387,0\H,4,1.096295,3,110.785,2,-63.231,0\H,4,1.094142,3,111.1
 75,2,177.581,0\H,2,1.096785,3,109.298,4,178.963,0\H,2,1.09872,3,109.32
 9,4,63.282,0\H,6,1.096126,5,102.522,4,166.108,0\H,1,1.098898,2,109.291
 ,3,-178.238,0\H,1,1.097012,2,108.944,3,-61.86,0\H,7,1.09337,6,110.748,
 5,-56.771,0\H,7,1.097696,6,110.142,5,-176.527,0\H,7,1.094215,6,112.2,5
 ,63.605,0\\Version=EM64L-G09RevA.01\State=1-A\HF=-631.8265761\MP2=-633
 .0450205\RMSD=2.960e-09\PG=C01 [X(C6H12S1)]\\@


 THE RARE EARTHS PERPLEX US IN OUR RESEARCHES,
 BAFFLE US IN OUR SPECULATIONS, AND HAUNT US IN OUR
 VERY DREAMS.  THEY STRETCH LIKE AN UNKNOWN BEFORE US,
 MOCKING, MYSTIFYING, AND MURMURING STRANGE REVELATIONS
 AND POSSIBILITIES.  -- SIR WILLIAM CROOKE, 1832-1919
 Job cpu time:  0 days  1 hours 55 minutes 52.2 seconds.
 File lengths (MBytes):  RWF=     82 Int=      0 D2E=      0 Chk=      7 Scr=      1
 Normal termination of Gaussian 09 at Tue Mar 15 21:46:29 2016.
