 Entering Gaussian System, Link 0=g09
 Input=ethanethiol_g.gjf
 Output=ethanethiol_g.out
 Initial command:
 /usr/local/g09/l1.exe /home/scratch/stylianakis/Gau-4340.inp -scrdir=/home/scratch/stylianakis/
 Entering Link 1 = /usr/local/g09/l1.exe PID=      4341.
  
 Copyright (c) 1988,1990,1992,1993,1995,1998,2003,2009, Gaussian, Inc.
                  All Rights Reserved.
  
 This is part of the Gaussian(R) 09 program.  It is based on
 the Gaussian(R) 03 system (copyright 2003, Gaussian, Inc.),
 the Gaussian(R) 98 system (copyright 1998, Gaussian, Inc.),
 the Gaussian(R) 94 system (copyright 1995, Gaussian, Inc.),
 the Gaussian 92(TM) system (copyright 1992, Gaussian, Inc.),
 the Gaussian 90(TM) system (copyright 1990, Gaussian, Inc.),
 the Gaussian 88(TM) system (copyright 1988, Gaussian, Inc.),
 the Gaussian 86(TM) system (copyright 1986, Carnegie Mellon
 University), and the Gaussian 82(TM) system (copyright 1983,
 Carnegie Mellon University). Gaussian is a federally registered
 trademark of Gaussian, Inc.
  
 This software contains proprietary and confidential information,
 including trade secrets, belonging to Gaussian, Inc.
  
 This software is provided under written license and may be
 used, copied, transmitted, or stored only in accord with that
 written license.
  
 The following legend is applicable only to US Government
 contracts under FAR:
  
                    RESTRICTED RIGHTS LEGEND
  
 Use, reproduction and disclosure by the US Government is
 subject to restrictions as set forth in subparagraphs (a)
 and (c) of the Commercial Computer Software - Restricted
 Rights clause in FAR 52.227-19.
  
 Gaussian, Inc.
 340 Quinnipiac St., Bldg. 40, Wallingford CT 06492
  
  
 ---------------------------------------------------------------
 Warning -- This program may not be used in any manner that
 competes with the business of Gaussian, Inc. or will provide
 assistance to any competitor of Gaussian, Inc.  The licensee
 of this program is prohibited from giving any competitor of
 Gaussian, Inc. access to this program.  By using this program,
 the user acknowledges that Gaussian, Inc. is engaged in the
 business of creating and licensing software in the field of
 computational chemistry and represents and warrants to the
 licensee that it is not a competitor of Gaussian, Inc. and that
 it will not use this program in any manner prohibited above.
 ---------------------------------------------------------------
  

 Cite this work as:
 Gaussian 09, Revision A.01,
 M. J. Frisch, G. W. Trucks, H. B. Schlegel, G. E. Scuseria, 
 M. A. Robb, J. R. Cheeseman, G. Scalmani, V. Barone, B. Mennucci, 
 G. A. Petersson, H. Nakatsuji, M. Caricato, X. Li, H. P. Hratchian, 
 A. F. Izmaylov, J. Bloino, G. Zheng, J. L. Sonnenberg, M. Hada, 
 M. Ehara, K. Toyota, R. Fukuda, J. Hasegawa, M. Ishida, T. Nakajima, 
 Y. Honda, O. Kitao, H. Nakai, T. Vreven, J. A. Montgomery, Jr., 
 J. E. Peralta, F. Ogliaro, M. Bearpark, J. J. Heyd, E. Brothers, 
 K. N. Kudin, V. N. Staroverov, R. Kobayashi, J. Normand, 
 K. Raghavachari, A. Rendell, J. C. Burant, S. S. Iyengar, J. Tomasi, 
 M. Cossi, N. Rega, J. M. Millam, M. Klene, J. E. Knox, J. B. Cross, 
 V. Bakken, C. Adamo, J. Jaramillo, R. Gomperts, R. E. Stratmann, 
 O. Yazyev, A. J. Austin, R. Cammi, C. Pomelli, J. W. Ochterski, 
 R. L. Martin, K. Morokuma, V. G. Zakrzewski, G. A. Voth, 
 P. Salvador, J. J. Dannenberg, S. Dapprich, A. D. Daniels, 
 O. Farkas, J. B. Foresman, J. V. Ortiz, J. Cioslowski, 
 and D. J. Fox, Gaussian, Inc., Wallingford CT, 2009.
 
 ******************************************
 Gaussian 09:  EM64L-G09RevA.01  8-May-2009
                15-Mar-2016 
 ******************************************
 %mem=16000Mb
 %nproc=8
 Will use up to    8 processors via shared memory.
 -------------
 # mp2/cc-pVTZ
 -------------
 1/38=1/1;
 2/12=2,17=6,18=5,40=1/2;
 3/5=16,6=1,11=9,16=1,25=1,30=1/1,2,3;
 4//1;
 5/5=2,38=5/2;
 8/10=1/1;
 9/16=-3/6;
 6/7=2,8=2,9=2,10=2/1;
 99/5=1,9=1/99;
 --------------------------
 ethanethiol_g_single_point
 --------------------------
 Symbolic Z-matrix:
 Charge =  0 Multiplicity = 1
 c
 c                    1    cc2
 s                    2    sc3      1    scc3
 h                    3    hs4      2    hsc4     1    dih4     0
 h                    2    hc5      3    hcs5     4    dih5     0
 h                    2    hc6      3    hcs6     4    dih6     0
 h                    1    hc7      2    hcc7     3    dih7     0
 h                    1    hc8      2    hcc8     3    dih8     0
 h                    1    hc9      2    hcc9     3    dih9     0
       Variables:
  cc2                   1.52692                  
  sc3                   1.84504                  
  scc3                114.334                    
  hs4                   1.34937                  
  hsc4                 96.733                    
  dih4                -61.7                      
  hc5                   1.09423                  
  hcs5                103.957                    
  dih5                177.388                    
  hc6                   1.09372                  
  hcs6                108.824                    
  dih6                 63.439                    
  hc7                   1.09531                  
  hcc7                111.266                    
  dih7                 63.195                    
  hc8                   1.09391                  
  hcc8                111.14                     
  dih8                -57.145                    
  hc9                   1.09701                  
  hcc9                110.188                    
  dih9               -177.374                    
 
                          Input orientation:                          
 ---------------------------------------------------------------------
 Center     Atomic      Atomic             Coordinates (Angstroms)
 Number     Number       Type             X           Y           Z
 ---------------------------------------------------------------------
      1          6           0        0.000000    0.000000    0.000000
      2          6           0        0.000000    0.000000    1.526921
      3         16           0        1.681126    0.000000    2.287180
      4          1           0        2.087056   -1.179894    1.773502
      5          1           0       -0.465264    0.911086    1.915238
      6          1           0       -0.567067   -0.846562    1.924406
      7          1           0        0.460301   -0.911043   -0.397266
      8          1           0        0.553525    0.857094   -0.394517
      9          1           0       -1.028536    0.047173   -0.378581
 ---------------------------------------------------------------------
                    Distance matrix (angstroms):
                    1          2          3          4          5
     1  C    0.000000
     2  C    1.526921   0.000000
     3  S    2.838551   1.845041   0.000000
     4  H    2.982157   2.410136   1.349368   0.000000
     5  H    2.171332   1.094229   2.361229   3.302517   0.000000
     6  H    2.177514   1.093721   2.429535   2.679226   1.760617
     7  H    1.095307   2.178158   3.086529   2.725958   3.086179
     8  H    1.093912   2.175529   3.032753   3.346841   2.525037
     9  H    1.097012   2.165883   3.801417   3.980461   2.515000
                    6          7          8          9
     6  H    0.000000
     7  H    2.539646   0.000000
     8  H    3.087972   1.770595   0.000000
     9  H    2.513058   1.770640   1.777398   0.000000
 Stoichiometry    C2H6S
 Framework group  C1[X(C2H6S)]
 Deg. of freedom    21
 Full point group                 C1      NOp   1
 Largest Abelian subgroup         C1      NOp   1
 Largest concise Abelian subgroup C1      NOp   1
                         Standard orientation:                         
 ---------------------------------------------------------------------
 Center     Atomic      Atomic             Coordinates (Angstroms)
 Number     Number       Type             X           Y           Z
 ---------------------------------------------------------------------
      1          6           0       -1.652078   -0.352044   -0.053744
      2          6           0       -0.504634    0.644844    0.091431
      3         16           0        1.175057   -0.099077   -0.080027
      4          1           0        1.085596   -0.936440    0.974304
      5          1           0       -0.541908    1.397998   -0.701479
      6          1           0       -0.559052    1.177410    1.045180
      7          1           0       -1.624802   -1.107372    0.738994
      8          1           0       -1.604617   -0.870874   -1.015620
      9          1           0       -2.615848    0.167705    0.012927
 ---------------------------------------------------------------------
 Rotational constants (GHZ):     28.8467730      5.1678583      4.7458114
 Standard basis: CC-pVTZ (5D, 7F)
 There are   178 symmetry adapted basis functions of A   symmetry.
 Integral buffers will be    131072 words long.
 Raffenetti 1 integral format.
 Two-electron integral symmetry is turned on.
   178 basis functions,   300 primitive gaussians,   199 cartesian basis functions
    17 alpha electrons       17 beta electrons
       nuclear repulsion energy       106.4210093366 Hartrees.
 NAtoms=    9 NActive=    9 NUniq=    9 SFac= 7.50D-01 NAtFMM=   80 NAOKFM=F Big=F
 One-electron integrals computed using PRISM.
 NBasis=   178 RedAO= T  NBF=   178
 NBsUse=   178 1.00D-06 NBFU=   178
 Harris functional with IExCor=  205 diagonalized for initial guess.
 ExpMin= 1.03D-01 ExpMax= 3.74D+05 ExpMxC= 1.18D+03 IAcc=2 IRadAn=         0 AccDes= 0.00D+00
 HarFok:  IExCor=  205 AccDes= 0.00D+00 IRadAn=         0 IDoV= 1
 ScaDFX=  1.000000  1.000000  1.000000  1.000000
 FoFCou: FMM=F IPFlag=           0 FMFlag=      100000 FMFlg1=           0
         NFxFlg=           0 DoJE=T BraDBF=F KetDBF=T FulRan=T
         Omega=  0.000000  0.000000  1.000000  0.000000  0.000000 ICntrl=     500 IOpCl=  0
         NMat0=    1 NMatS0=    1 NMatT0=    0 NMatD0=    1 NMtDS0=    0 NMtDT0=    0
         I1Cent=           4 NGrid=           0.
 Petite list used in FoFCou.
 Initial guess orbital symmetries:
       Occupied  (A) (A) (A) (A) (A) (A) (A) (A) (A) (A) (A) (A)
                 (A) (A) (A) (A) (A)
       Virtual   (A) (A) (A) (A) (A) (A) (A) (A) (A) (A) (A) (A)
                 (A) (A) (A) (A) (A) (A) (A) (A) (A) (A) (A) (A)
                 (A) (A) (A) (A) (A) (A) (A) (A) (A) (A) (A) (A)
                 (A) (A) (A) (A) (A) (A) (A) (A) (A) (A) (A) (A)
                 (A) (A) (A) (A) (A) (A) (A) (A) (A) (A) (A) (A)
                 (A) (A) (A) (A) (A) (A) (A) (A) (A) (A) (A) (A)
                 (A) (A) (A) (A) (A) (A) (A) (A) (A) (A) (A) (A)
                 (A) (A) (A) (A) (A) (A) (A) (A) (A) (A) (A) (A)
                 (A) (A) (A) (A) (A) (A) (A) (A) (A) (A) (A) (A)
                 (A) (A) (A) (A) (A) (A) (A) (A) (A) (A) (A) (A)
                 (A) (A) (A) (A) (A) (A) (A) (A) (A) (A) (A) (A)
                 (A) (A) (A) (A) (A) (A) (A) (A) (A) (A) (A) (A)
                 (A) (A) (A) (A) (A) (A) (A) (A) (A) (A) (A) (A)
                 (A) (A) (A) (A) (A)
 The electronic state of the initial guess is 1-A.
 Requested convergence on RMS density matrix=1.00D-08 within 128 cycles.
 Requested convergence on MAX density matrix=1.00D-06.
 Requested convergence on             energy=1.00D-06.
 No special actions if energy rises.
 Keep R1 ints in memory in canonical form, NReq=202154863.
 SCF Done:  E(RHF) =  -476.804728893     A.U. after   12 cycles
             Convg  =    0.4465D-08             -V/T =  2.0004
 ExpMin= 1.03D-01 ExpMax= 3.74D+05 ExpMxC= 1.18D+03 IAcc=3 IRadAn=         5 AccDes= 0.00D+00
 HarFok:  IExCor=  205 AccDes= 0.00D+00 IRadAn=         5 IDoV=-2
 ScaDFX=  1.000000  1.000000  1.000000  1.000000
 Range of M.O.s used for correlation:     8   178
 NBasis=   178 NAE=    17 NBE=    17 NFC=     7 NFV=     0
 NROrb=    171 NOA=    10 NOB=    10 NVA=   161 NVB=   161

 **** Warning!!: The largest alpha MO coefficient is  0.11976434D+02

 Fully in-core method, ICMem=   418253266.
 JobTyp=1 Pass  1 fully in-core, NPsUse=  8.
 Spin components of T(2) and E(2):
     alpha-alpha T2 =       0.2221359366D-01 E2=     -0.5862732761D-01
     alpha-beta  T2 =       0.1424646452D+00 E2=     -0.4212065070D+00
     beta-beta   T2 =       0.2221359366D-01 E2=     -0.5862732761D-01
 ANorm=    0.1089445654D+01
 E2 =    -0.5384611622D+00 EUMP2 =    -0.47734319005481D+03

 **********************************************************************

            Population analysis using the SCF density.

 **********************************************************************

 Orbital symmetries:
       Occupied  (A) (A) (A) (A) (A) (A) (A) (A) (A) (A) (A) (A)
                 (A) (A) (A) (A) (A)
       Virtual   (A) (A) (A) (A) (A) (A) (A) (A) (A) (A) (A) (A)
                 (A) (A) (A) (A) (A) (A) (A) (A) (A) (A) (A) (A)
                 (A) (A) (A) (A) (A) (A) (A) (A) (A) (A) (A) (A)
                 (A) (A) (A) (A) (A) (A) (A) (A) (A) (A) (A) (A)
                 (A) (A) (A) (A) (A) (A) (A) (A) (A) (A) (A) (A)
                 (A) (A) (A) (A) (A) (A) (A) (A) (A) (A) (A) (A)
                 (A) (A) (A) (A) (A) (A) (A) (A) (A) (A) (A) (A)
                 (A) (A) (A) (A) (A) (A) (A) (A) (A) (A) (A) (A)
                 (A) (A) (A) (A) (A) (A) (A) (A) (A) (A) (A) (A)
                 (A) (A) (A) (A) (A) (A) (A) (A) (A) (A) (A) (A)
                 (A) (A) (A) (A) (A) (A) (A) (A) (A) (A) (A) (A)
                 (A) (A) (A) (A) (A) (A) (A) (A) (A) (A) (A) (A)
                 (A) (A) (A) (A) (A) (A) (A) (A) (A) (A) (A) (A)
                 (A) (A) (A) (A) (A)
 The electronic state is 1-A.
 Alpha  occ. eigenvalues --  -91.94733 -11.26574 -11.22821  -8.94908  -6.63038
 Alpha  occ. eigenvalues --   -6.62934  -6.62839  -1.06468  -0.94019  -0.82120
 Alpha  occ. eigenvalues --   -0.63343  -0.58811  -0.55232  -0.52260  -0.49564
 Alpha  occ. eigenvalues --   -0.44337  -0.35494
 Alpha virt. eigenvalues --    0.12570   0.16393   0.17318   0.19405   0.19770
 Alpha virt. eigenvalues --    0.22595   0.23597   0.30027   0.35401   0.37268
 Alpha virt. eigenvalues --    0.39409   0.40277   0.42547   0.42806   0.44633
 Alpha virt. eigenvalues --    0.46829   0.53690   0.55139   0.58023   0.58724
 Alpha virt. eigenvalues --    0.61684   0.63415   0.63916   0.65768   0.65995
 Alpha virt. eigenvalues --    0.67088   0.69260   0.80662   0.83304   0.88877
 Alpha virt. eigenvalues --    0.89638   0.90728   0.94517   1.00906   1.05573
 Alpha virt. eigenvalues --    1.08171   1.10420   1.13244   1.15438   1.22919
 Alpha virt. eigenvalues --    1.23929   1.25579   1.27359   1.31123   1.32091
 Alpha virt. eigenvalues --    1.34236   1.34627   1.36605   1.42945   1.46723
 Alpha virt. eigenvalues --    1.47895   1.49874   1.53526   1.57951   1.59068
 Alpha virt. eigenvalues --    1.67169   1.72437   1.75823   1.80603   1.86256
 Alpha virt. eigenvalues --    1.92072   1.94943   1.98068   2.02294   2.07379
 Alpha virt. eigenvalues --    2.09655   2.16158   2.17752   2.25547   2.26257
 Alpha virt. eigenvalues --    2.30129   2.37205   2.53467   2.55069   2.60499
 Alpha virt. eigenvalues --    2.64202   2.68872   2.71006   2.76670   2.80867
 Alpha virt. eigenvalues --    2.88307   2.91430   2.92192   2.96371   3.06542
 Alpha virt. eigenvalues --    3.10266   3.11513   3.15149   3.19835   3.27157
 Alpha virt. eigenvalues --    3.29692   3.31156   3.32409   3.35801   3.39390
 Alpha virt. eigenvalues --    3.42641   3.45198   3.47732   3.49504   3.57277
 Alpha virt. eigenvalues --    3.59999   3.61651   3.62622   3.65380   3.72692
 Alpha virt. eigenvalues --    3.75177   3.76161   3.80016   3.84532   3.87337
 Alpha virt. eigenvalues --    3.88740   3.91374   3.98299   4.03975   4.05129
 Alpha virt. eigenvalues --    4.05461   4.11737   4.12386   4.16594   4.17656
 Alpha virt. eigenvalues --    4.21151   4.22363   4.28918   4.30843   4.35539
 Alpha virt. eigenvalues --    4.35734   4.39441   4.40191   4.45471   4.46390
 Alpha virt. eigenvalues --    4.47999   4.52778   4.57994   4.58195   4.66480
 Alpha virt. eigenvalues --    4.70564   4.73621   4.81976   4.93462   5.06446
 Alpha virt. eigenvalues --    5.12352   5.16433   5.17216   5.20375   5.27450
 Alpha virt. eigenvalues --    5.32940   5.39883   5.54365   5.57182   5.64918
 Alpha virt. eigenvalues --    5.67034   5.67680   5.73320   5.80224   5.84950
 Alpha virt. eigenvalues --    6.03219   6.25645   6.26505   6.29172  12.34768
 Alpha virt. eigenvalues --   13.91437
          Condensed to atoms (all electrons):
              1          2          3          4          5          6
     1  C    4.815496   0.339879  -0.059151  -0.005322  -0.032958  -0.034669
     2  C    0.339879   4.800805   0.288953  -0.022324   0.416701   0.423374
     3  S   -0.059151   0.288953  15.656263   0.366011  -0.032975  -0.036326
     4  H   -0.005322  -0.022324   0.366011   0.575788   0.004057  -0.004746
     5  H   -0.032958   0.416701  -0.032975   0.004057   0.577040  -0.033783
     6  H   -0.034669   0.423374  -0.036326  -0.004746  -0.033783   0.571797
     7  H    0.412310  -0.032997  -0.002298   0.002355   0.006205  -0.004640
     8  H    0.413501  -0.034173   0.002030  -0.000472  -0.004432   0.006685
     9  H    0.411854  -0.034596   0.007263  -0.000188  -0.005722  -0.002460
              7          8          9
     1  C    0.412310   0.413501   0.411854
     2  C   -0.032997  -0.034173  -0.034596
     3  S   -0.002298   0.002030   0.007263
     4  H    0.002355  -0.000472  -0.000188
     5  H    0.006205  -0.004432  -0.005722
     6  H   -0.004640   0.006685  -0.002460
     7  H    0.590257  -0.030146  -0.030698
     8  H   -0.030146   0.570941  -0.028125
     9  H   -0.030698  -0.028125   0.585662
 Mulliken atomic charges:
              1
     1  C   -0.260940
     2  C   -0.145620
     3  S   -0.189770
     4  H    0.084840
     5  H    0.105867
     6  H    0.114768
     7  H    0.089653
     8  H    0.104191
     9  H    0.097011
 Sum of Mulliken atomic charges =   0.00000
 Mulliken charges with hydrogens summed into heavy atoms:
              1
     1  C    0.029915
     2  C    0.075014
     3  S   -0.104929
 Sum of Mulliken charges with hydrogens summed into heavy atoms =   0.00000
 Electronic spatial extent (au):  <R**2>=            304.3969
 Charge=              0.0000 electrons
 Dipole moment (field-independent basis, Debye):
    X=             -1.6343    Y=              0.1358    Z=              0.7179  Tot=              1.7902
 Quadrupole moment (field-independent basis, Debye-Ang):
   XX=            -29.5171   YY=            -27.3320   ZZ=            -27.1777
   XY=             -1.3525   XZ=              0.7191   YZ=             -1.7088
 Traceless Quadrupole moment (field-independent basis, Debye-Ang):
   XX=             -1.5082   YY=              0.6770   ZZ=              0.8312
   XY=             -1.3525   XZ=              0.7191   YZ=             -1.7088
 Octapole moment (field-independent basis, Debye-Ang**2):
  XXX=             -2.7137  YYY=              0.7143  ZZZ=              1.1951  XYY=             -0.1788
  XXY=             -1.9890  XXZ=              0.6033  XZZ=             -0.3413  YZZ=              0.1870
  YYZ=              0.9641  XYZ=             -1.9766
 Hexadecapole moment (field-independent basis, Debye-Ang**3):
 XXXX=           -302.9000 YYYY=            -79.2653 ZZZZ=            -50.5918 XXXY=             -9.2860
 XXXZ=              0.2111 YYYX=             -1.7719 YYYZ=             -3.2508 ZZZX=              1.3977
 ZZZY=             -1.9259 XXYY=            -63.4612 XXZZ=            -60.0546 YYZZ=            -19.2323
 XXYZ=             -2.5755 YYXZ=              0.9879 ZZXY=             -0.1717
 N-N= 1.064210093366D+02 E-N=-1.343672766579D+03  KE= 4.766112158824D+02
 1\1\GINC-ROCK\SP\RMP2-FC\CC-pVTZ\C2H6S1\STYLIANAKIS\15-Mar-2016\0\\# m
 p2/cc-pVTZ\\ethanethiol_g_single_point\\0,1\C\C,1,1.526921\S,2,1.84504
 1,1,114.334\H,3,1.349368,2,96.733,1,-61.7,0\H,2,1.094229,3,103.957,4,1
 77.388,0\H,2,1.093721,3,108.824,4,63.439,0\H,1,1.095307,2,111.266,3,63
 .195,0\H,1,1.093912,2,111.14,3,-57.145,0\H,1,1.097012,2,110.188,3,-177
 .374,0\\Version=EM64L-G09RevA.01\State=1-A\HF=-476.8047289\MP2=-477.34
 31901\RMSD=4.465e-09\PG=C01 [X(C2H6S1)]\\@


 THE ONLY TROUBLE WITH A SURE THING IS THE UNCERTAINTY.
     -- FROM A TEABAG (BELONGING TO W.H.?)
 Job cpu time:  0 days  0 hours  8 minutes  1.3 seconds.
 File lengths (MBytes):  RWF=     15 Int=      0 D2E=      0 Chk=      2 Scr=      1
 Normal termination of Gaussian 09 at Tue Mar 15 23:06:07 2016.
