 Entering Gaussian System, Link 0=g09
 Input=s_methylthianium_eq_sp.gjf
 Output=s_methylthianium_eq_sp.out
 Initial command:
 /usr/local/g09/l1.exe /home/scratch/stylianakis/Gau-22918.inp -scrdir=/home/scratch/stylianakis/
 Entering Link 1 = /usr/local/g09/l1.exe PID=     22919.
  
 Copyright (c) 1988,1990,1992,1993,1995,1998,2003,2009, Gaussian, Inc.
                  All Rights Reserved.
  
 This is part of the Gaussian(R) 09 program.  It is based on
 the Gaussian(R) 03 system (copyright 2003, Gaussian, Inc.),
 the Gaussian(R) 98 system (copyright 1998, Gaussian, Inc.),
 the Gaussian(R) 94 system (copyright 1995, Gaussian, Inc.),
 the Gaussian 92(TM) system (copyright 1992, Gaussian, Inc.),
 the Gaussian 90(TM) system (copyright 1990, Gaussian, Inc.),
 the Gaussian 88(TM) system (copyright 1988, Gaussian, Inc.),
 the Gaussian 86(TM) system (copyright 1986, Carnegie Mellon
 University), and the Gaussian 82(TM) system (copyright 1983,
 Carnegie Mellon University). Gaussian is a federally registered
 trademark of Gaussian, Inc.
  
 This software contains proprietary and confidential information,
 including trade secrets, belonging to Gaussian, Inc.
  
 This software is provided under written license and may be
 used, copied, transmitted, or stored only in accord with that
 written license.
  
 The following legend is applicable only to US Government
 contracts under FAR:
  
                    RESTRICTED RIGHTS LEGEND
  
 Use, reproduction and disclosure by the US Government is
 subject to restrictions as set forth in subparagraphs (a)
 and (c) of the Commercial Computer Software - Restricted
 Rights clause in FAR 52.227-19.
  
 Gaussian, Inc.
 340 Quinnipiac St., Bldg. 40, Wallingford CT 06492
  
  
 ---------------------------------------------------------------
 Warning -- This program may not be used in any manner that
 competes with the business of Gaussian, Inc. or will provide
 assistance to any competitor of Gaussian, Inc.  The licensee
 of this program is prohibited from giving any competitor of
 Gaussian, Inc. access to this program.  By using this program,
 the user acknowledges that Gaussian, Inc. is engaged in the
 business of creating and licensing software in the field of
 computational chemistry and represents and warrants to the
 licensee that it is not a competitor of Gaussian, Inc. and that
 it will not use this program in any manner prohibited above.
 ---------------------------------------------------------------
  

 Cite this work as:
 Gaussian 09, Revision A.01,
 M. J. Frisch, G. W. Trucks, H. B. Schlegel, G. E. Scuseria, 
 M. A. Robb, J. R. Cheeseman, G. Scalmani, V. Barone, B. Mennucci, 
 G. A. Petersson, H. Nakatsuji, M. Caricato, X. Li, H. P. Hratchian, 
 A. F. Izmaylov, J. Bloino, G. Zheng, J. L. Sonnenberg, M. Hada, 
 M. Ehara, K. Toyota, R. Fukuda, J. Hasegawa, M. Ishida, T. Nakajima, 
 Y. Honda, O. Kitao, H. Nakai, T. Vreven, J. A. Montgomery, Jr., 
 J. E. Peralta, F. Ogliaro, M. Bearpark, J. J. Heyd, E. Brothers, 
 K. N. Kudin, V. N. Staroverov, R. Kobayashi, J. Normand, 
 K. Raghavachari, A. Rendell, J. C. Burant, S. S. Iyengar, J. Tomasi, 
 M. Cossi, N. Rega, J. M. Millam, M. Klene, J. E. Knox, J. B. Cross, 
 V. Bakken, C. Adamo, J. Jaramillo, R. Gomperts, R. E. Stratmann, 
 O. Yazyev, A. J. Austin, R. Cammi, C. Pomelli, J. W. Ochterski, 
 R. L. Martin, K. Morokuma, V. G. Zakrzewski, G. A. Voth, 
 P. Salvador, J. J. Dannenberg, S. Dapprich, A. D. Daniels, 
 O. Farkas, J. B. Foresman, J. V. Ortiz, J. Cioslowski, 
 and D. J. Fox, Gaussian, Inc., Wallingford CT, 2009.
 
 ******************************************
 Gaussian 09:  EM64L-G09RevA.01  8-May-2009
                27-Apr-2016 
 ******************************************
 %mem=16000Mb
 %nproc=8
 Will use up to    8 processors via shared memory.
 -------------
 # mp2/cc-pVTZ
 -------------
 1/38=1/1;
 2/12=2,17=6,18=5,40=1/2;
 3/5=16,6=1,11=9,16=1,25=1,30=1/1,2,3;
 4//1;
 5/5=2,38=5/2;
 8/10=1/1;
 9/16=-3/6;
 6/7=2,8=2,9=2,10=2/1;
 99/5=1,9=1/99;
 -----------------------------------
 s_methylthianium_eq_sp_single_point
 -----------------------------------
 Symbolic Z-matrix:
 Charge =  1 Multiplicity = 1
 c
 c                    1    cc2
 c                    2    cc3      1    ccc3
 c                    3    cc4      2    ccc4     1    dih4     0
 s                    4    sc5      3    scc5     2    dih5     0
 c                    5    cs6      4    csc6     3    dih6     0
 c                    5    cs7      4    csc7     3    dih7     0
 h                    3    hc8      4    hcc8     5    dih8     0
 h                    3    hc9      4    hcc9     5    dih9     0
 h                    4    hc10     3    hcc10    2    dih10    0
 h                    4    hc11     3    hcc11    2    dih11    0
 h                    2    hc12     3    hcc12    4    dih12    0
 h                    2    hc13     3    hcc13    4    dih13    0
 h                    6    hc14     5    hcs14    4    dih14    0
 h                    1    hc15     2    hcc15    3    dih15    0
 h                    6    hc16     5    hcs16    4    dih16    0
 h                    1    hc17     2    hcc17    3    dih17    0
 h                    7    hc18     5    hcs18    4    dih18    0
 h                    7    hc19     5    hcs19    4    dih19    0
 h                    7    hc20     5    hcs20    4    dih20    0
       Variables:
  cc2                   1.53745                  
  cc3                   1.53745                  
  ccc3                113.288                    
  cc4                   1.53412                  
  ccc4                113.438                    
  dih4                -60.152                    
  sc5                   1.84506                  
  scc5                109.452                    
  dih5                 61.323                    
  cs6                   1.84506                  
  csc6                 99.548                    
  dih6                -56.575                    
  cs7                   1.82189                  
  csc7                103.714                    
  dih7               -163.343                    
  hc8                   1.09688                  
  hcc8                109.721                    
  dih8                -62.834                    
  hc9                   1.09557                  
  hcc9                106.48                     
  dih9               -177.486                    
  hc10                  1.09479                  
  hcc10               112.281                    
  dih10               -57.767                    
  hc11                  1.09309                  
  hcc11               112.41                     
  dih11               178.328                    
  hc12                  1.09388                  
  hcc12               108.859                    
  dih12               178.59                     
  hc13                  1.09806                  
  hcc13               109.609                    
  dih13                62.612                    
  hc14                  1.09479                  
  hcs14               107.334                    
  dih14               -65.529                    
  hc15                  1.09557                  
  hcc15               110.048                    
  dih15               179.318                    
  hc16                  1.09309                  
  hcs16               105.597                    
  dih16               177.797                    
  hc17                  1.09688                  
  hcc17               110.53                     
  dih17               -63.563                    
  hc18                  1.09148                  
  hcs18               110.517                    
  dih18                51.806                    
  hc19                  1.09187                  
  hcs19               107.435                    
  dih19               172.979                    
  hc20                  1.09187                  
  hcs20               107.435                    
  dih20               -69.368                    
 
                          Input orientation:                          
 ---------------------------------------------------------------------
 Center     Atomic      Atomic             Coordinates (Angstroms)
 Number     Number       Type             X           Y           Z
 ---------------------------------------------------------------------
      1          6           0        0.000000    0.000000    0.000000
      2          6           0        0.000000    0.000000    1.537453
      3          6           0        1.412196    0.000000    2.145290
      4          6           0        2.249645   -1.220827    1.743077
      5         16           0        2.470228   -1.238142   -0.088668
      6          6           0        0.700504   -1.220787   -0.610217
      7          6           0        3.008186   -2.942389   -0.442843
      8          1           0        1.946334    0.919800    1.877323
      9          1           0        1.350304   -0.012256    3.239043
     10          1           0        1.769324   -2.164049    2.022705
     11          1           0        3.259438   -1.189291    2.160403
     12          1           0       -0.537138    0.884894    1.891036
     13          1           0       -0.559798   -0.869815    1.905940
     14          1           0        0.253748   -2.164007   -0.279591
     15          1           0       -1.029113   -0.012250   -0.375570
     16          1           0        0.716377   -1.189232   -1.702732
     17          1           0        0.457329    0.919792   -0.384673
     18          1           0        2.322414   -3.661621    0.008547
     19          1           0        3.036038   -3.057765   -1.528246
     20          1           0        4.016164   -3.057811   -0.039304
 ---------------------------------------------------------------------
                    Distance matrix (angstroms):
                    1          2          3          4          5
     1  C    0.000000
     2  C    1.537453   0.000000
     3  C    2.568379   1.537454   0.000000
     4  C    3.096714   2.567801   1.534117   0.000000
     5  S    2.764576   3.206133   2.764597   1.845060   0.000000
     6  C    1.534077   2.567784   3.096716   2.817416   1.845057
     7  C    4.231187   4.650635   4.231225   2.883991   1.821894
     8  H    2.856324   2.179394   1.096878   2.166173   2.965856
     9  H    3.509255   2.172298   1.095571   2.123058   3.718963
    10  H    3.450355   2.837091   2.196742   1.094792   2.409661
    11  H    4.087259   3.525112   2.197031   1.093086   2.384022
    12  H    2.155823   1.093881   2.155826   3.496014   4.179804
    13  H    2.168539   1.098060   2.168555   2.835967   3.646256
    14  H    2.196699   2.837069   3.450359   2.994057   2.409660
    15  H    1.095571   2.172298   3.509256   4.086511   3.718939
    16  H    2.196990   3.525091   4.087263   3.771672   2.384027
    17  H    1.096878   2.179389   2.856309   3.510266   2.965815
    18  H    4.336029   4.597676   4.336085   2.995224   2.429928
    19  H    4.571978   5.288285   5.047936   3.833315   2.388211
    20  H    5.047903   5.288284   4.572013   3.109980   2.388211
                    6          7          8          9         10
     6  C    0.000000
     7  C    2.883977   0.000000
     8  H    3.510279   4.628953   0.000000
     9  H    4.086513   4.989042   1.754498   0.000000
    10  H    2.994060   2.866970   3.092345   2.507044   0.000000
    11  H    3.771667   3.148550   2.500529   2.488709   1.785933
    12  H    3.495986   5.715278   2.483755   2.486852   3.825331
    13  H    2.835947   4.747932   3.079649   2.482148   2.667112
    14  H    1.094792   2.866959   4.126377   4.267698   2.756362
    15  H    2.123016   4.988990   3.846755   4.327476   4.267693
    16  H    1.093086   3.148534   4.333313   5.119402   3.992223
    17  H    2.166122   4.628898   2.708091   3.846743   4.126363
    18  H    2.995185   1.091481   4.962175   4.969806   2.570109
    19  H    3.109981   1.091873   5.348493   5.902869   3.874602
    20  H    3.833301   1.091873   4.876376   5.208625   3.177889
                   11         12         13         14         15
    11  H    0.000000
    12  H    4.334604   0.000000
    13  H    3.841013   1.754919   0.000000
    14  H    3.992219   3.825300   2.667084   0.000000
    15  H    5.119399   2.486848   2.482129   2.506991   0.000000
    16  H    4.625038   4.334567   3.840985   1.785930   2.488650
    17  H    4.333296   2.483754   3.079635   3.092298   1.754508
    18  H    3.408946   5.691362   4.438629   2.570068   4.969727
    19  H    4.140922   6.324843   5.432384   3.177905   5.208577
    20  H    2.983741   6.324847   5.432378   3.874584   5.902824
                   16         17         18         19         20
    16  H    0.000000
    17  H    2.500474   0.000000
    18  H    3.408891   4.962107   0.000000
    19  H    2.983737   4.876316   1.798787   0.000000
    20  H    4.140915   5.348449   1.798796   1.782581   0.000000
 Stoichiometry    C6H13S(1+)
 Framework group  C1[X(C6H13S)]
 Deg. of freedom    54
 Full point group                 C1      NOp   1
 Largest Abelian subgroup         C1      NOp   1
 Largest concise Abelian subgroup C1      NOp   1
                         Standard orientation:                         
 ---------------------------------------------------------------------
 Center     Atomic      Atomic             Coordinates (Angstroms)
 Number     Number       Type             X           Y           Z
 ---------------------------------------------------------------------
      1          6           0       -1.431422   -1.284195   -0.163826
      2          6           0       -2.088909   -0.000017    0.367548
      3          6           0       -1.431465    1.284184   -0.163829
      4          6           0        0.051953    1.408715    0.206953
      5         16           0        0.989470    0.000012   -0.528482
      6          6           0        0.051961   -1.408701    0.206936
      7          6           0        2.561661   -0.000002    0.392123
      8          1           0       -1.548058    1.354045   -1.252253
      9          1           0       -1.931708    2.163724    0.256222
     10          1           0        0.213241    1.378184    1.289368
     11          1           0        0.509638    2.312526   -0.203518
     12          1           0       -3.145282   -0.000036    0.083553
     13          1           0       -2.063393   -0.000027    1.465312
     14          1           0        0.213243   -1.378179    1.289353
     15          1           0       -1.931638   -2.163752    0.256222
     16          1           0        0.509648   -2.312512   -0.203534
     17          1           0       -1.547997   -1.354046   -1.252252
     18          1           0        2.375235   -0.000035    1.467566
     19          1           0        3.116447   -0.891283    0.092096
     20          1           0        3.116439    0.891298    0.092136
 ---------------------------------------------------------------------
 Rotational constants (GHZ):      3.5705008      1.7477257      1.3274427
 Standard basis: CC-pVTZ (5D, 7F)
 There are   396 symmetry adapted basis functions of A   symmetry.
 Integral buffers will be    131072 words long.
 Raffenetti 1 integral format.
 Two-electron integral symmetry is turned on.
   396 basis functions,   627 primitive gaussians,   444 cartesian basis functions
    32 alpha electrons       32 beta electrons
       nuclear repulsion energy       408.5200636924 Hartrees.
 NAtoms=   20 NActive=   20 NUniq=   20 SFac= 7.50D-01 NAtFMM=   80 NAOKFM=F Big=F
 One-electron integrals computed using PRISM.
 NBasis=   396 RedAO= T  NBF=   396
 NBsUse=   396 1.00D-06 NBFU=   396
 Harris functional with IExCor=  205 diagonalized for initial guess.
 ExpMin= 1.03D-01 ExpMax= 3.74D+05 ExpMxC= 1.18D+03 IAcc=2 IRadAn=         0 AccDes= 0.00D+00
 HarFok:  IExCor=  205 AccDes= 0.00D+00 IRadAn=         0 IDoV= 1
 ScaDFX=  1.000000  1.000000  1.000000  1.000000
 FoFCou: FMM=F IPFlag=           0 FMFlag=      100000 FMFlg1=           0
         NFxFlg=           0 DoJE=T BraDBF=F KetDBF=T FulRan=T
         Omega=  0.000000  0.000000  1.000000  0.000000  0.000000 ICntrl=     500 IOpCl=  0
         NMat0=    1 NMatS0=    1 NMatT0=    0 NMatD0=    1 NMtDS0=    0 NMtDT0=    0
         I1Cent=           4 NGrid=           0.
 Petite list used in FoFCou.
 Initial guess orbital symmetries:
       Occupied  (A) (A) (A) (A) (A) (A) (A) (A) (A) (A) (A) (A)
                 (A) (A) (A) (A) (A) (A) (A) (A) (A) (A) (A) (A)
                 (A) (A) (A) (A) (A) (A) (A) (A)
       Virtual   (A) (A) (A) (A) (A) (A) (A) (A) (A) (A) (A) (A)
                 (A) (A) (A) (A) (A) (A) (A) (A) (A) (A) (A) (A)
                 (A) (A) (A) (A) (A) (A) (A) (A) (A) (A) (A) (A)
                 (A) (A) (A) (A) (A) (A) (A) (A) (A) (A) (A) (A)
                 (A) (A) (A) (A) (A) (A) (A) (A) (A) (A) (A) (A)
                 (A) (A) (A) (A) (A) (A) (A) (A) (A) (A) (A) (A)
                 (A) (A) (A) (A) (A) (A) (A) (A) (A) (A) (A) (A)
                 (A) (A) (A) (A) (A) (A) (A) (A) (A) (A) (A) (A)
                 (A) (A) (A) (A) (A) (A) (A) (A) (A) (A) (A) (A)
                 (A) (A) (A) (A) (A) (A) (A) (A) (A) (A) (A) (A)
                 (A) (A) (A) (A) (A) (A) (A) (A) (A) (A) (A) (A)
                 (A) (A) (A) (A) (A) (A) (A) (A) (A) (A) (A) (A)
                 (A) (A) (A) (A) (A) (A) (A) (A) (A) (A) (A) (A)
                 (A) (A) (A) (A) (A) (A) (A) (A) (A) (A) (A) (A)
                 (A) (A) (A) (A) (A) (A) (A) (A) (A) (A) (A) (A)
                 (A) (A) (A) (A) (A) (A) (A) (A) (A) (A) (A) (A)
                 (A) (A) (A) (A) (A) (A) (A) (A) (A) (A) (A) (A)
                 (A) (A) (A) (A) (A) (A) (A) (A) (A) (A) (A) (A)
                 (A) (A) (A) (A) (A) (A) (A) (A) (A) (A) (A) (A)
                 (A) (A) (A) (A) (A) (A) (A) (A) (A) (A) (A) (A)
                 (A) (A) (A) (A) (A) (A) (A) (A) (A) (A) (A) (A)
                 (A) (A) (A) (A) (A) (A) (A) (A) (A) (A) (A) (A)
                 (A) (A) (A) (A) (A) (A) (A) (A) (A) (A) (A) (A)
                 (A) (A) (A) (A) (A) (A) (A) (A) (A) (A) (A) (A)
                 (A) (A) (A) (A) (A) (A) (A) (A) (A) (A) (A) (A)
                 (A) (A) (A) (A) (A) (A) (A) (A) (A) (A) (A) (A)
                 (A) (A) (A) (A) (A) (A) (A) (A) (A) (A) (A) (A)
                 (A) (A) (A) (A) (A) (A) (A) (A) (A) (A) (A) (A)
                 (A) (A) (A) (A) (A) (A) (A) (A) (A) (A) (A) (A)
                 (A) (A) (A) (A) (A) (A) (A) (A) (A) (A) (A) (A)
                 (A) (A) (A) (A)
 The electronic state of the initial guess is 1-A.
 Requested convergence on RMS density matrix=1.00D-08 within 128 cycles.
 Requested convergence on MAX density matrix=1.00D-06.
 Requested convergence on             energy=1.00D-06.
 No special actions if energy rises.
 Integral accuracy reduced to 1.0D-05 until final iterations.
 Initial convergence to 1.0D-05 achieved.  Increase integral accuracy.
 SCF Done:  E(RHF) =  -632.185004704     A.U. after   11 cycles
             Convg  =    0.8490D-08             -V/T =  2.0009
 ExpMin= 1.03D-01 ExpMax= 3.74D+05 ExpMxC= 1.18D+03 IAcc=3 IRadAn=         5 AccDes= 0.00D+00
 HarFok:  IExCor=  205 AccDes= 0.00D+00 IRadAn=         5 IDoV=-2
 ScaDFX=  1.000000  1.000000  1.000000  1.000000
 Range of M.O.s used for correlation:    12   396
 NBasis=   396 NAE=    32 NBE=    32 NFC=    11 NFV=     0
 NROrb=    385 NOA=    21 NOB=    21 NVA=   364 NVB=   364

 **** Warning!!: The largest alpha MO coefficient is  0.10987903D+02

 Fully direct method using O(OVN) memory.
 JobTyp=1 Pass  1:  I=   1 to  21 NPSUse=  8 ParTrn=T ParDer=T DoDerP=F.
 Spin components of T(2) and E(2):
     alpha-alpha T2 =       0.4868361260D-01 E2=     -0.1367503331D+00
     alpha-beta  T2 =       0.2969456684D+00 E2=     -0.9333794969D+00
     beta-beta   T2 =       0.4868361260D-01 E2=     -0.1367503331D+00
 ANorm=    0.1180810270D+01
 E2 =    -0.1206880163D+01 EUMP2 =    -0.63339188486673D+03

 **********************************************************************

            Population analysis using the SCF density.

 **********************************************************************

 Orbital symmetries:
       Occupied  (A) (A) (A) (A) (A) (A) (A) (A) (A) (A) (A) (A)
                 (A) (A) (A) (A) (A) (A) (A) (A) (A) (A) (A) (A)
                 (A) (A) (A) (A) (A) (A) (A) (A)
       Virtual   (A) (A) (A) (A) (A) (A) (A) (A) (A) (A) (A) (A)
                 (A) (A) (A) (A) (A) (A) (A) (A) (A) (A) (A) (A)
                 (A) (A) (A) (A) (A) (A) (A) (A) (A) (A) (A) (A)
                 (A) (A) (A) (A) (A) (A) (A) (A) (A) (A) (A) (A)
                 (A) (A) (A) (A) (A) (A) (A) (A) (A) (A) (A) (A)
                 (A) (A) (A) (A) (A) (A) (A) (A) (A) (A) (A) (A)
                 (A) (A) (A) (A) (A) (A) (A) (A) (A) (A) (A) (A)
                 (A) (A) (A) (A) (A) (A) (A) (A) (A) (A) (A) (A)
                 (A) (A) (A) (A) (A) (A) (A) (A) (A) (A) (A) (A)
                 (A) (A) (A) (A) (A) (A) (A) (A) (A) (A) (A) (A)
                 (A) (A) (A) (A) (A) (A) (A) (A) (A) (A) (A) (A)
                 (A) (A) (A) (A) (A) (A) (A) (A) (A) (A) (A) (A)
                 (A) (A) (A) (A) (A) (A) (A) (A) (A) (A) (A) (A)
                 (A) (A) (A) (A) (A) (A) (A) (A) (A) (A) (A) (A)
                 (A) (A) (A) (A) (A) (A) (A) (A) (A) (A) (A) (A)
                 (A) (A) (A) (A) (A) (A) (A) (A) (A) (A) (A) (A)
                 (A) (A) (A) (A) (A) (A) (A) (A) (A) (A) (A) (A)
                 (A) (A) (A) (A) (A) (A) (A) (A) (A) (A) (A) (A)
                 (A) (A) (A) (A) (A) (A) (A) (A) (A) (A) (A) (A)
                 (A) (A) (A) (A) (A) (A) (A) (A) (A) (A) (A) (A)
                 (A) (A) (A) (A) (A) (A) (A) (A) (A) (A) (A) (A)
                 (A) (A) (A) (A) (A) (A) (A) (A) (A) (A) (A) (A)
                 (A) (A) (A) (A) (A) (A) (A) (A) (A) (A) (A) (A)
                 (A) (A) (A) (A) (A) (A) (A) (A) (A) (A) (A) (A)
                 (A) (A) (A) (A) (A) (A) (A) (A) (A) (A) (A) (A)
                 (A) (A) (A) (A) (A) (A) (A) (A) (A) (A) (A) (A)
                 (A) (A) (A) (A) (A) (A) (A) (A) (A) (A) (A) (A)
                 (A) (A) (A) (A) (A) (A) (A) (A) (A) (A) (A) (A)
                 (A) (A) (A) (A) (A) (A) (A) (A) (A) (A) (A) (A)
                 (A) (A) (A) (A) (A) (A) (A) (A) (A) (A) (A) (A)
                 (A) (A) (A) (A)
 The electronic state is 1-A.
 Alpha  occ. eigenvalues --  -92.21831 -11.44810 -11.44809 -11.44608 -11.39201
 Alpha  occ. eigenvalues --  -11.39201 -11.37709  -9.21557  -6.89644  -6.89629
 Alpha  occ. eigenvalues --   -6.89532  -1.32556  -1.22692  -1.19956  -1.12661
 Alpha  occ. eigenvalues --   -1.02098  -1.01408  -0.93404  -0.82751  -0.80118
 Alpha  occ. eigenvalues --   -0.79169  -0.78677  -0.77529  -0.74626  -0.72520
 Alpha  occ. eigenvalues --   -0.70039  -0.69656  -0.67531  -0.63265  -0.62722
 Alpha  occ. eigenvalues --   -0.61290  -0.60892
 Alpha virt. eigenvalues --   -0.02556  -0.01802  -0.01652   0.01211   0.03059
 Alpha virt. eigenvalues --    0.03215   0.04000   0.05299   0.05788   0.06267
 Alpha virt. eigenvalues --    0.07324   0.08063   0.08448   0.10416   0.11167
 Alpha virt. eigenvalues --    0.12556   0.14509   0.15987   0.18482   0.20920
 Alpha virt. eigenvalues --    0.21867   0.22648   0.23366   0.24311   0.25713
 Alpha virt. eigenvalues --    0.26973   0.27105   0.28451   0.31721   0.32836
 Alpha virt. eigenvalues --    0.33736   0.35639   0.35971   0.36840   0.39853
 Alpha virt. eigenvalues --    0.41332   0.42727   0.43092   0.44396   0.44456
 Alpha virt. eigenvalues --    0.44783   0.45653   0.46291   0.46495   0.46839
 Alpha virt. eigenvalues --    0.49032   0.49914   0.50145   0.50854   0.51636
 Alpha virt. eigenvalues --    0.53208   0.54028   0.54315   0.55088   0.55943
 Alpha virt. eigenvalues --    0.61249   0.62852   0.65495   0.68412   0.71517
 Alpha virt. eigenvalues --    0.72111   0.72840   0.75421   0.75519   0.76498
 Alpha virt. eigenvalues --    0.77266   0.78482   0.81447   0.82319   0.83400
 Alpha virt. eigenvalues --    0.86181   0.87557   0.88304   0.92395   0.95006
 Alpha virt. eigenvalues --    0.96477   0.97622   1.01084   1.01381   1.02562
 Alpha virt. eigenvalues --    1.03954   1.04324   1.07505   1.08360   1.09150
 Alpha virt. eigenvalues --    1.09171   1.11221   1.11448   1.12154   1.12726
 Alpha virt. eigenvalues --    1.13522   1.14622   1.16129   1.17770   1.18674
 Alpha virt. eigenvalues --    1.19470   1.21024   1.22328   1.24403   1.25729
 Alpha virt. eigenvalues --    1.26681   1.28087   1.28849   1.30200   1.32397
 Alpha virt. eigenvalues --    1.33376   1.34573   1.35389   1.37166   1.37217
 Alpha virt. eigenvalues --    1.37980   1.38892   1.40292   1.42442   1.42600
 Alpha virt. eigenvalues --    1.43538   1.44279   1.46442   1.48095   1.48926
 Alpha virt. eigenvalues --    1.49660   1.52328   1.52389   1.56519   1.57886
 Alpha virt. eigenvalues --    1.58519   1.62427   1.62684   1.63983   1.67260
 Alpha virt. eigenvalues --    1.69566   1.72421   1.76862   1.77292   1.80777
 Alpha virt. eigenvalues --    1.80872   1.84078   1.90329   1.91697   1.92700
 Alpha virt. eigenvalues --    2.02786   2.04277   2.10980   2.13250   2.15226
 Alpha virt. eigenvalues --    2.21691   2.23213   2.31252   2.38182   2.38523
 Alpha virt. eigenvalues --    2.39633   2.41750   2.47765   2.51741   2.51768
 Alpha virt. eigenvalues --    2.53945   2.57148   2.59896   2.61205   2.62172
 Alpha virt. eigenvalues --    2.62322   2.64536   2.66129   2.67875   2.71631
 Alpha virt. eigenvalues --    2.75112   2.76712   2.76733   2.78793   2.79487
 Alpha virt. eigenvalues --    2.80257   2.81263   2.81349   2.84310   2.84705
 Alpha virt. eigenvalues --    2.86065   2.88364   2.88715   2.92110   2.92478
 Alpha virt. eigenvalues --    2.94744   2.95553   2.96993   3.01087   3.03914
 Alpha virt. eigenvalues --    3.06364   3.06524   3.07560   3.10058   3.11094
 Alpha virt. eigenvalues --    3.11792   3.15268   3.16377   3.16571   3.18365
 Alpha virt. eigenvalues --    3.19016   3.19226   3.20766   3.23345   3.24100
 Alpha virt. eigenvalues --    3.24245   3.25490   3.27615   3.27903   3.29404
 Alpha virt. eigenvalues --    3.30350   3.31537   3.31651   3.32599   3.34009
 Alpha virt. eigenvalues --    3.35064   3.35813   3.38815   3.38948   3.39730
 Alpha virt. eigenvalues --    3.39886   3.41509   3.44088   3.46206   3.46267
 Alpha virt. eigenvalues --    3.49177   3.49633   3.50371   3.53312   3.54514
 Alpha virt. eigenvalues --    3.57005   3.57518   3.57898   3.59533   3.60332
 Alpha virt. eigenvalues --    3.63099   3.65042   3.65656   3.68052   3.68592
 Alpha virt. eigenvalues --    3.71648   3.72820   3.73856   3.74810   3.76635
 Alpha virt. eigenvalues --    3.78119   3.79148   3.82328   3.84162   3.86417
 Alpha virt. eigenvalues --    3.87274   3.87341   3.88335   3.90011   3.91656
 Alpha virt. eigenvalues --    3.91949   3.93595   3.93955   3.96570   3.97380
 Alpha virt. eigenvalues --    3.98310   4.01292   4.02015   4.02048   4.05308
 Alpha virt. eigenvalues --    4.05586   4.06925   4.07961   4.09198   4.11287
 Alpha virt. eigenvalues --    4.13066   4.14103   4.15661   4.16590   4.17342
 Alpha virt. eigenvalues --    4.18234   4.19471   4.20316   4.20935   4.22862
 Alpha virt. eigenvalues --    4.23765   4.24792   4.25600   4.27346   4.29520
 Alpha virt. eigenvalues --    4.29633   4.32788   4.33455   4.34891   4.36287
 Alpha virt. eigenvalues --    4.37297   4.37323   4.41672   4.41972   4.42492
 Alpha virt. eigenvalues --    4.45335   4.47582   4.49057   4.50794   4.55087
 Alpha virt. eigenvalues --    4.55668   4.61089   4.62366   4.63252   4.67123
 Alpha virt. eigenvalues --    4.68361   4.73572   4.80033   4.80481   4.81669
 Alpha virt. eigenvalues --    4.83291   4.86725   4.89538   4.90306   4.93210
 Alpha virt. eigenvalues --    4.94984   4.99422   5.02032   5.05579   5.05907
 Alpha virt. eigenvalues --    5.08694   5.09232   5.11748   5.14318   5.16192
 Alpha virt. eigenvalues --    5.16542   5.18720   5.20056   5.21054   5.22824
 Alpha virt. eigenvalues --    5.24024   5.24631   5.24816   5.32780   5.35937
 Alpha virt. eigenvalues --    5.36009   5.38538   5.43095   5.44334   5.44937
 Alpha virt. eigenvalues --    5.45886   5.47117   5.53362   5.56917   5.57254
 Alpha virt. eigenvalues --    5.60903   5.61758   5.64283   5.67545   5.69115
 Alpha virt. eigenvalues --    5.70585   5.71351   5.77920   5.90210   5.92561
 Alpha virt. eigenvalues --    6.01230   6.04143   6.10289   6.14914   6.18825
 Alpha virt. eigenvalues --    6.22461   6.27826   6.30360  12.23047  12.57974
 Alpha virt. eigenvalues --   12.89083  13.23083  13.25289  13.42862
          Condensed to atoms (all electrons):
              1          2          3          4          5          6
     1  C    4.896991   0.336409  -0.044601  -0.001319  -0.028435   0.327491
     2  C    0.336409   4.891460   0.336408  -0.043924  -0.003873  -0.043922
     3  C   -0.044601   0.336408   4.896986   0.327494  -0.028435  -0.001319
     4  C   -0.001319  -0.043924   0.327494   4.908859   0.266111  -0.021572
     5  S   -0.028435  -0.003873  -0.028435   0.266111  15.124083   0.266112
     6  C    0.327491  -0.043922  -0.001319  -0.021572   0.266112   4.908856
     7  C    0.001114  -0.000088   0.001114  -0.020832   0.289507  -0.020832
     8  H   -0.000960  -0.031611   0.425470  -0.033821  -0.003187   0.000597
     9  H    0.005156  -0.030706   0.425123  -0.031051   0.004941  -0.000773
    10  H    0.000425  -0.000829  -0.030784   0.421792  -0.033633  -0.000356
    11  H   -0.000777   0.003778  -0.021558   0.425351  -0.024963   0.002022
    12  H   -0.031423   0.434219  -0.031423   0.005203  -0.000303   0.005203
    13  H   -0.037971   0.427706  -0.037969  -0.000920   0.000150  -0.000919
    14  H   -0.030787  -0.000829   0.000425  -0.000356  -0.033633   0.421793
    15  H    0.425124  -0.030707   0.005156  -0.000773   0.004942  -0.031055
    16  H   -0.021561   0.003779  -0.000777   0.002022  -0.024963   0.425353
    17  H    0.425471  -0.031612  -0.000959   0.000596  -0.003188  -0.033825
    18  H    0.000152  -0.000180   0.000152  -0.002303  -0.029401  -0.002303
    19  H    0.000062   0.000013  -0.000091   0.002154  -0.021006  -0.000721
    20  H   -0.000091   0.000013   0.000062  -0.000721  -0.021006   0.002154
              7          8          9         10         11         12
     1  C    0.001114  -0.000960   0.005156   0.000425  -0.000777  -0.031423
     2  C   -0.000088  -0.031611  -0.030706  -0.000829   0.003778   0.434219
     3  C    0.001114   0.425470   0.425123  -0.030784  -0.021558  -0.031423
     4  C   -0.020832  -0.033821  -0.031051   0.421792   0.425351   0.005203
     5  S    0.289507  -0.003187   0.004941  -0.033633  -0.024963  -0.000303
     6  C   -0.020832   0.000597  -0.000773  -0.000356   0.002022   0.005203
     7  C    4.771852   0.000110  -0.000109  -0.001017  -0.000690   0.000010
     8  H    0.000110   0.515974  -0.019818   0.004256  -0.001812  -0.003483
     9  H   -0.000109  -0.019818   0.503920  -0.002803  -0.005191  -0.004421
    10  H   -0.001017   0.004256  -0.002803   0.500190  -0.017444  -0.000076
    11  H   -0.000690  -0.001812  -0.005191  -0.017444   0.460485  -0.000109
    12  H    0.000010  -0.003483  -0.004421  -0.000076  -0.000109   0.498204
    13  H    0.000013   0.004855  -0.003161   0.001935  -0.000032  -0.020673
    14  H   -0.001017   0.000108  -0.000087   0.001874  -0.000008  -0.000076
    15  H   -0.000109  -0.000084  -0.000140  -0.000087   0.000052  -0.004421
    16  H   -0.000690  -0.000050   0.000052  -0.000008  -0.000091  -0.000109
    17  H    0.000110   0.001733  -0.000084   0.000108  -0.000050  -0.003483
    18  H    0.416235  -0.000008  -0.000001   0.002924   0.000027  -0.000002
    19  H    0.411170   0.000000   0.000005   0.000089  -0.000104   0.000000
    20  H    0.411170  -0.000007  -0.000004  -0.000617   0.000750   0.000000
             13         14         15         16         17         18
     1  C   -0.037971  -0.030787   0.425124  -0.021561   0.425471   0.000152
     2  C    0.427706  -0.000829  -0.030707   0.003779  -0.031612  -0.000180
     3  C   -0.037969   0.000425   0.005156  -0.000777  -0.000959   0.000152
     4  C   -0.000920  -0.000356  -0.000773   0.002022   0.000596  -0.002303
     5  S    0.000150  -0.033633   0.004942  -0.024963  -0.003188  -0.029401
     6  C   -0.000919   0.421793  -0.031055   0.425353  -0.033825  -0.002303
     7  C    0.000013  -0.001017  -0.000109  -0.000690   0.000110   0.416235
     8  H    0.004855   0.000108  -0.000084  -0.000050   0.001733  -0.000008
     9  H   -0.003161  -0.000087  -0.000140   0.000052  -0.000084  -0.000001
    10  H    0.001935   0.001874  -0.000087  -0.000008   0.000108   0.002924
    11  H   -0.000032  -0.000008   0.000052  -0.000091  -0.000050   0.000027
    12  H   -0.020673  -0.000076  -0.004421  -0.000109  -0.003483  -0.000002
    13  H    0.536726   0.001935  -0.003161  -0.000032   0.004855  -0.000038
    14  H    0.001935   0.500195  -0.002804  -0.017443   0.004257   0.002924
    15  H   -0.003161  -0.002804   0.503922  -0.005192  -0.019817  -0.000001
    16  H   -0.000032  -0.017443  -0.005192   0.460487  -0.001812   0.000027
    17  H    0.004855   0.004257  -0.019817  -0.001812   0.515982  -0.000008
    18  H   -0.000038   0.002924  -0.000001   0.000027  -0.000008   0.514618
    19  H    0.000003  -0.000617  -0.000004   0.000750  -0.000007  -0.022370
    20  H    0.000003   0.000089   0.000005  -0.000104   0.000000  -0.022369
             19         20
     1  C    0.000062  -0.000091
     2  C    0.000013   0.000013
     3  C   -0.000091   0.000062
     4  C    0.002154  -0.000721
     5  S   -0.021006  -0.021006
     6  C   -0.000721   0.002154
     7  C    0.411170   0.411170
     8  H    0.000000  -0.000007
     9  H    0.000005  -0.000004
    10  H    0.000089  -0.000617
    11  H   -0.000104   0.000750
    12  H    0.000000   0.000000
    13  H    0.000003   0.000003
    14  H   -0.000617   0.000089
    15  H   -0.000004   0.000005
    16  H    0.000750  -0.000104
    17  H   -0.000007   0.000000
    18  H   -0.022370  -0.022369
    19  H    0.485606  -0.015366
    20  H   -0.015366   0.485606
 Mulliken atomic charges:
              1
     1  C   -0.220473
     2  C   -0.215504
     3  C   -0.220474
     4  C   -0.201991
     5  S    0.300180
     6  C   -0.201983
     7  C   -0.257022
     8  H    0.141736
     9  H    0.159154
    10  H    0.154059
    11  H    0.180364
    12  H    0.157164
    13  H    0.126694
    14  H    0.154056
    15  H    0.159153
    16  H    0.180364
    17  H    0.141731
    18  H    0.141924
    19  H    0.160434
    20  H    0.160434
 Sum of Mulliken atomic charges =   1.00000
 Mulliken charges with hydrogens summed into heavy atoms:
              1
     1  C    0.080411
     2  C    0.068353
     3  C    0.080416
     4  C    0.132433
     5  S    0.300180
     6  C    0.132437
     7  C    0.205770
 Sum of Mulliken charges with hydrogens summed into heavy atoms =   1.00000
 Electronic spatial extent (au):  <R**2>=            978.8672
 Charge=              1.0000 electrons
 Dipole moment (field-independent basis, Debye):
    X=              2.4445    Y=              0.0000    Z=              0.9566  Tot=              2.6250
 Quadrupole moment (field-independent basis, Debye-Ang):
   XX=            -33.2957   YY=            -40.5029   ZZ=            -48.3670
   XY=             -0.0001   XZ=              1.4082   YZ=              0.0000
 Traceless Quadrupole moment (field-independent basis, Debye-Ang):
   XX=              7.4262   YY=              0.2189   ZZ=             -7.6451
   XY=             -0.0001   XZ=              1.4082   YZ=              0.0000
 Octapole moment (field-independent basis, Debye-Ang**2):
  XXX=             25.3575  YYY=              0.0000  ZZZ=              4.2493  XYY=              1.8198
  XXY=              0.0003  XXZ=              2.1270  XZZ=              1.3706  YZZ=             -0.0001
  YYZ=             -0.6495  XYZ=              0.0002
 Hexadecapole moment (field-independent basis, Debye-Ang**3):
 XXXX=           -652.5485 YYYY=           -344.0785 ZZZZ=           -125.5596 XXXY=             -0.0007
 XXXZ=              6.1935 YYYX=              0.0002 YYYZ=             -0.0002 ZZZX=              7.6629
 ZZZY=             -0.0002 XXYY=           -172.6253 XXZZ=           -148.4057 YYZZ=            -83.9974
 XXYZ=             -0.0003 YYXZ=             -5.0797 ZZXY=             -0.0003
 N-N= 4.085200636924D+02 E-N=-2.296095112837D+03  KE= 6.316468026170D+02
 1\1\GINC-ROCK\SP\RMP2-FC\CC-pVTZ\C6H13S1(1+)\STYLIANAKIS\27-Apr-2016\0
 \\# mp2/cc-pVTZ\\s_methylthianium_eq_sp_single_point\\1,1\C\C,1,1.5374
 53\C,2,1.537454,1,113.288\C,3,1.534117,2,113.438,1,-60.152,0\S,4,1.845
 06,3,109.452,2,61.323,0\C,5,1.845057,4,99.548,3,-56.575,0\C,5,1.821894
 ,4,103.714,3,-163.343,0\H,3,1.096878,4,109.721,5,-62.834,0\H,3,1.09557
 1,4,106.48,5,-177.486,0\H,4,1.094792,3,112.281,2,-57.767,0\H,4,1.09308
 6,3,112.41,2,178.328,0\H,2,1.093881,3,108.859,4,178.59,0\H,2,1.09806,3
 ,109.609,4,62.612,0\H,6,1.094792,5,107.334,4,-65.529,0\H,1,1.095571,2,
 110.048,3,179.318,0\H,6,1.093086,5,105.597,4,177.797,0\H,1,1.096878,2,
 110.53,3,-63.563,0\H,7,1.091481,5,110.517,4,51.806,0\H,7,1.091873,5,10
 7.435,4,172.979,0\H,7,1.091873,5,107.435,4,-69.368,0\\Version=EM64L-G0
 9RevA.01\State=1-A\HF=-632.1850047\MP2=-633.3918849\RMSD=8.490e-09\PG=
 C01 [X(C6H13S1)]\\@


 MODELS ARE TO BE USED, NOT BELIEVED.

    -- PARAPHRASED BY H. THIEL IN "PRINCIPLES OF ECONOMETRICS"
 Job cpu time:  0 days  1 hours 59 minutes 39.5 seconds.
 File lengths (MBytes):  RWF=     88 Int=      0 D2E=      0 Chk=      8 Scr=      1
 Normal termination of Gaussian 09 at Wed Apr 27 03:40:13 2016.
