 Entering Gaussian System, Link 0=g09
 Input=sulfolane_envelope.gjf
 Output=sulfolane_envelope.out
 Initial command:
 /usr/local/g09/l1.exe /home/scratch/stylianakis/Gau-5184.inp -scrdir=/home/scratch/stylianakis/
 Entering Link 1 = /usr/local/g09/l1.exe PID=      5185.
  
 Copyright (c) 1988,1990,1992,1993,1995,1998,2003,2009, Gaussian, Inc.
                  All Rights Reserved.
  
 This is part of the Gaussian(R) 09 program.  It is based on
 the Gaussian(R) 03 system (copyright 2003, Gaussian, Inc.),
 the Gaussian(R) 98 system (copyright 1998, Gaussian, Inc.),
 the Gaussian(R) 94 system (copyright 1995, Gaussian, Inc.),
 the Gaussian 92(TM) system (copyright 1992, Gaussian, Inc.),
 the Gaussian 90(TM) system (copyright 1990, Gaussian, Inc.),
 the Gaussian 88(TM) system (copyright 1988, Gaussian, Inc.),
 the Gaussian 86(TM) system (copyright 1986, Carnegie Mellon
 University), and the Gaussian 82(TM) system (copyright 1983,
 Carnegie Mellon University). Gaussian is a federally registered
 trademark of Gaussian, Inc.
  
 This software contains proprietary and confidential information,
 including trade secrets, belonging to Gaussian, Inc.
  
 This software is provided under written license and may be
 used, copied, transmitted, or stored only in accord with that
 written license.
  
 The following legend is applicable only to US Government
 contracts under FAR:
  
                    RESTRICTED RIGHTS LEGEND
  
 Use, reproduction and disclosure by the US Government is
 subject to restrictions as set forth in subparagraphs (a)
 and (c) of the Commercial Computer Software - Restricted
 Rights clause in FAR 52.227-19.
  
 Gaussian, Inc.
 340 Quinnipiac St., Bldg. 40, Wallingford CT 06492
  
  
 ---------------------------------------------------------------
 Warning -- This program may not be used in any manner that
 competes with the business of Gaussian, Inc. or will provide
 assistance to any competitor of Gaussian, Inc.  The licensee
 of this program is prohibited from giving any competitor of
 Gaussian, Inc. access to this program.  By using this program,
 the user acknowledges that Gaussian, Inc. is engaged in the
 business of creating and licensing software in the field of
 computational chemistry and represents and warrants to the
 licensee that it is not a competitor of Gaussian, Inc. and that
 it will not use this program in any manner prohibited above.
 ---------------------------------------------------------------
  

 Cite this work as:
 Gaussian 09, Revision A.01,
 M. J. Frisch, G. W. Trucks, H. B. Schlegel, G. E. Scuseria, 
 M. A. Robb, J. R. Cheeseman, G. Scalmani, V. Barone, B. Mennucci, 
 G. A. Petersson, H. Nakatsuji, M. Caricato, X. Li, H. P. Hratchian, 
 A. F. Izmaylov, J. Bloino, G. Zheng, J. L. Sonnenberg, M. Hada, 
 M. Ehara, K. Toyota, R. Fukuda, J. Hasegawa, M. Ishida, T. Nakajima, 
 Y. Honda, O. Kitao, H. Nakai, T. Vreven, J. A. Montgomery, Jr., 
 J. E. Peralta, F. Ogliaro, M. Bearpark, J. J. Heyd, E. Brothers, 
 K. N. Kudin, V. N. Staroverov, R. Kobayashi, J. Normand, 
 K. Raghavachari, A. Rendell, J. C. Burant, S. S. Iyengar, J. Tomasi, 
 M. Cossi, N. Rega, J. M. Millam, M. Klene, J. E. Knox, J. B. Cross, 
 V. Bakken, C. Adamo, J. Jaramillo, R. Gomperts, R. E. Stratmann, 
 O. Yazyev, A. J. Austin, R. Cammi, C. Pomelli, J. W. Ochterski, 
 R. L. Martin, K. Morokuma, V. G. Zakrzewski, G. A. Voth, 
 P. Salvador, J. J. Dannenberg, S. Dapprich, A. D. Daniels, 
 O. Farkas, J. B. Foresman, J. V. Ortiz, J. Cioslowski, 
 and D. J. Fox, Gaussian, Inc., Wallingford CT, 2009.
 
 ******************************************
 Gaussian 09:  EM64L-G09RevA.01  8-May-2009
                15-Mar-2016 
 ******************************************
 %mem=16000Mb
 %nproc=8
 Will use up to    8 processors via shared memory.
 -------------
 # mp2/cc-pVTZ
 -------------
 1/38=1/1;
 2/12=2,17=6,18=5,40=1/2;
 3/5=16,6=1,11=9,16=1,25=1,30=1/1,2,3;
 4//1;
 5/5=2,38=5/2;
 8/10=1/1;
 9/16=-3/6;
 6/7=2,8=2,9=2,10=2/1;
 99/5=1,9=1/99;
 -------------------------------
 sulfolane_envelope_single_point
 -------------------------------
 Symbolic Z-matrix:
 Charge =  0 Multiplicity = 1
 c
 c                    1    cc2
 s                    2    sc3      1    scc3
 c                    3    cs4      2    csc4     1    dih4     0
 c                    4    cc5      3    ccs5     2    dih5     0
 o                    3    os6      2    osc6     1    dih6     0
 o                    3    os7      2    osc7     1    dih7     0
 h                    2    hc8      3    hcs8     6    dih8     0
 h                    2    hc9      3    hcs9     6    dih9     0
 h                    4    hc10     3    hcs10    2    dih10    0
 h                    4    hc11     3    hcs11    2    dih11    0
 h                    5    hc12     4    hcc12    3    dih12    0
 h                    5    hc13     4    hcc13    3    dih13    0
 h                    1    hc14     2    hcc14    3    dih14    0
 h                    1    hc15     2    hcc15    3    dih15    0
       Variables:
  cc2                   1.53723                  
  sc3                   1.82511                  
  scc3                104.701                    
  cs4                   1.82513                  
  csc4                 92.692                    
  dih4                -37.351                    
  cc5                   1.53726                  
  ccs5                104.706                    
  dih5                 37.335                    
  os6                   1.47396                  
  osc6                111.806                    
  dih6               -152.144                    
  os7                   1.47758                  
  osc7                108.313                    
  dih7                 72.949                    
  hc8                   1.0915                   
  hcs8                107.95                     
  dih8                 85.548                    
  hc9                   1.09341                  
  hcs9                106.228                    
  dih9                -31.877                    
  hc10                  1.09341                  
  hcs10               106.227                    
  dih10               -82.933                    
  hc11                  1.0915                   
  hcs11               107.948                    
  dih11               159.645                    
  hc12                  1.09334                  
  hcc12               109.644                    
  dih12              -148.736                    
  hc13                  1.09224                  
  hcc13               109.483                    
  dih13                93.825                    
  hc14                  1.09334                  
  hcc14               109.646                    
  dih14               148.782                    
  hc15                  1.09224                  
  hcc15               109.48                     
  dih15               -93.779                    
 
                          Input orientation:                          
 ---------------------------------------------------------------------
 Center     Atomic      Atomic             Coordinates (Angstroms)
 Number     Number       Type             X           Y           Z
 ---------------------------------------------------------------------
      1          6           0        0.000000    0.000000    0.000000
      2          6           0        0.000000    0.000000    1.537234
      3         16           0        1.765364    0.000000    2.000401
      4          6           0        2.216062   -1.106074    0.620347
      5          6           0        1.320198   -0.659418   -0.546310
      6          8           0        1.987917   -0.639430    3.309660
      7          8           0        2.318813    1.341084    1.720369
      8          1           0       -0.466212    0.877616    1.988677
      9          1           0       -0.429848   -0.906738    1.971521
     10          1           0        2.007530   -2.123145    0.963312
     11          1           0        3.286134   -0.995051    0.436008
     12          1           0        1.089844   -1.518229   -1.182533
     13          1           0        1.857845    0.065285   -1.161725
     14          1           0       -0.880599   -0.533688   -0.367590
     15          1           0       -0.067867    1.027483   -0.364239
 ---------------------------------------------------------------------
                    Distance matrix (angstroms):
                    1          2          3          4          5
     1  C    0.000000
     2  C    1.537234   0.000000
     3  S    2.667980   1.825112   0.000000
     4  C    2.553265   2.641025   1.825125   0.000000
     5  C    1.573597   2.553215   2.668097   1.537258   0.000000
     6  O    3.913379   2.739011   1.473960   2.739017   3.913406
     7  O    3.183563   2.684947   1.477576   2.684994   3.183877
     8  H    2.223151   1.091496   2.397974   3.605821   3.461198
     9  H    2.212202   1.093411   2.375282   2.977624   3.076247
    10  H    3.076669   2.977802   2.375278   1.093409   2.212211
    11  H    3.461056   3.605760   2.397957   1.091495   2.223174
    12  H    2.211597   3.299987   3.590601   2.165321   1.093343
    13  H    2.192135   3.277229   3.164152   2.162448   1.092243
    14  H    1.093343   2.165325   3.590728   3.300447   2.211618
    15  H    1.092244   2.162389   3.163539   3.276859   2.192147
                    6          7          8          9         10
     6  O    0.000000
     7  O    2.560815   0.000000
     8  H    3.173196   2.836046   0.000000
     9  H    2.776267   3.559623   1.784806   0.000000
    10  H    2.776174   3.559623   4.021857   2.904642   0.000000
    11  H    3.173281   2.835987   4.471886   4.021707   1.784790
    12  H    4.664614   4.255923   4.268249   3.554074   2.410958
    13  H    4.528446   3.185376   3.998269   3.999449   3.054081
    14  H    4.664947   4.255653   2.777677   2.411179   3.555131
    15  H    4.527956   3.184365   2.391099   3.054180   3.999515
                   11         12         13         14         15
    11  H    0.000000
    12  H    2.777963   0.000000
    13  H    2.391040   1.760050   0.000000
    14  H    4.268523   2.348637   2.913501   0.000000
    15  H    3.997545   2.913854   2.295686   1.760056   0.000000
 Stoichiometry    C4H8O2S
 Framework group  C1[X(C4H8O2S)]
 Deg. of freedom    39
 Full point group                 C1      NOp   1
 Largest Abelian subgroup         C1      NOp   1
 Largest concise Abelian subgroup C1      NOp   1
                         Standard orientation:                         
 ---------------------------------------------------------------------
 Center     Atomic      Atomic             Coordinates (Angstroms)
 Number     Number       Type             X           Y           Z
 ---------------------------------------------------------------------
      1          6           0       -1.766837   -0.786841    0.038249
      2          6           0       -0.394132   -1.320404   -0.402294
      3         16           0        0.782454    0.000003    0.048489
      4          6           0       -0.394158    1.320621   -0.401656
      5          6           0       -1.766988    0.786757    0.038216
      6          8           0        1.967384    0.000229   -0.828152
      7          8           0        0.940195   -0.000390    1.517621
      8          1           0       -0.082170   -2.235995    0.103409
      9          1           0       -0.306101   -1.451849   -1.484200
     10          1           0       -0.305893    1.452792   -1.483453
     11          1           0       -0.082324    2.235891    0.104706
     12          1           0       -2.542645    1.174175   -0.627864
     13          1           0       -1.993055    1.147792    1.043971
     14          1           0       -2.542775   -1.174462   -0.627386
     15          1           0       -1.992250   -1.147894    1.044144
 ---------------------------------------------------------------------
 Rotational constants (GHZ):      3.7245358      1.9901081      1.8634993
 Standard basis: CC-pVTZ (5D, 7F)
 There are   326 symmetry adapted basis functions of A   symmetry.
 Integral buffers will be    131072 words long.
 Raffenetti 1 integral format.
 Two-electron integral symmetry is turned on.
   326 basis functions,   542 primitive gaussians,   369 cartesian basis functions
    32 alpha electrons       32 beta electrons
       nuclear repulsion energy       425.4045698831 Hartrees.
 NAtoms=   15 NActive=   15 NUniq=   15 SFac= 7.50D-01 NAtFMM=   80 NAOKFM=F Big=F
 One-electron integrals computed using PRISM.
 NBasis=   326 RedAO= T  NBF=   326
 NBsUse=   326 1.00D-06 NBFU=   326
 Harris functional with IExCor=  205 diagonalized for initial guess.
 ExpMin= 1.03D-01 ExpMax= 3.74D+05 ExpMxC= 1.18D+03 IAcc=2 IRadAn=         0 AccDes= 0.00D+00
 HarFok:  IExCor=  205 AccDes= 0.00D+00 IRadAn=         0 IDoV= 1
 ScaDFX=  1.000000  1.000000  1.000000  1.000000
 FoFCou: FMM=F IPFlag=           0 FMFlag=      100000 FMFlg1=           0
         NFxFlg=           0 DoJE=T BraDBF=F KetDBF=T FulRan=T
         Omega=  0.000000  0.000000  1.000000  0.000000  0.000000 ICntrl=     500 IOpCl=  0
         NMat0=    1 NMatS0=    1 NMatT0=    0 NMatD0=    1 NMtDS0=    0 NMtDT0=    0
         I1Cent=           4 NGrid=           0.
 Petite list used in FoFCou.
 Initial guess orbital symmetries:
       Occupied  (A) (A) (A) (A) (A) (A) (A) (A) (A) (A) (A) (A)
                 (A) (A) (A) (A) (A) (A) (A) (A) (A) (A) (A) (A)
                 (A) (A) (A) (A) (A) (A) (A) (A)
       Virtual   (A) (A) (A) (A) (A) (A) (A) (A) (A) (A) (A) (A)
                 (A) (A) (A) (A) (A) (A) (A) (A) (A) (A) (A) (A)
                 (A) (A) (A) (A) (A) (A) (A) (A) (A) (A) (A) (A)
                 (A) (A) (A) (A) (A) (A) (A) (A) (A) (A) (A) (A)
                 (A) (A) (A) (A) (A) (A) (A) (A) (A) (A) (A) (A)
                 (A) (A) (A) (A) (A) (A) (A) (A) (A) (A) (A) (A)
                 (A) (A) (A) (A) (A) (A) (A) (A) (A) (A) (A) (A)
                 (A) (A) (A) (A) (A) (A) (A) (A) (A) (A) (A) (A)
                 (A) (A) (A) (A) (A) (A) (A) (A) (A) (A) (A) (A)
                 (A) (A) (A) (A) (A) (A) (A) (A) (A) (A) (A) (A)
                 (A) (A) (A) (A) (A) (A) (A) (A) (A) (A) (A) (A)
                 (A) (A) (A) (A) (A) (A) (A) (A) (A) (A) (A) (A)
                 (A) (A) (A) (A) (A) (A) (A) (A) (A) (A) (A) (A)
                 (A) (A) (A) (A) (A) (A) (A) (A) (A) (A) (A) (A)
                 (A) (A) (A) (A) (A) (A) (A) (A) (A) (A) (A) (A)
                 (A) (A) (A) (A) (A) (A) (A) (A) (A) (A) (A) (A)
                 (A) (A) (A) (A) (A) (A) (A) (A) (A) (A) (A) (A)
                 (A) (A) (A) (A) (A) (A) (A) (A) (A) (A) (A) (A)
                 (A) (A) (A) (A) (A) (A) (A) (A) (A) (A) (A) (A)
                 (A) (A) (A) (A) (A) (A) (A) (A) (A) (A) (A) (A)
                 (A) (A) (A) (A) (A) (A) (A) (A) (A) (A) (A) (A)
                 (A) (A) (A) (A) (A) (A) (A) (A) (A) (A) (A) (A)
                 (A) (A) (A) (A) (A) (A) (A) (A) (A) (A) (A) (A)
                 (A) (A) (A) (A) (A) (A) (A) (A) (A) (A) (A) (A)
                 (A) (A) (A) (A) (A) (A)
 The electronic state of the initial guess is 1-A.
 Requested convergence on RMS density matrix=1.00D-08 within 128 cycles.
 Requested convergence on MAX density matrix=1.00D-06.
 Requested convergence on             energy=1.00D-06.
 No special actions if energy rises.
 Integral accuracy reduced to 1.0D-05 until final iterations.
 Initial convergence to 1.0D-05 achieved.  Increase integral accuracy.
 SCF Done:  E(RHF) =  -703.459886046     A.U. after   13 cycles
             Convg  =    0.4441D-08             -V/T =  2.0013
 ExpMin= 1.03D-01 ExpMax= 3.74D+05 ExpMxC= 1.18D+03 IAcc=3 IRadAn=         5 AccDes= 0.00D+00
 HarFok:  IExCor=  205 AccDes= 0.00D+00 IRadAn=         5 IDoV=-2
 ScaDFX=  1.000000  1.000000  1.000000  1.000000
 Range of M.O.s used for correlation:    12   326
 NBasis=   326 NAE=    32 NBE=    32 NFC=    11 NFV=     0
 NROrb=    315 NOA=    21 NOB=    21 NVA=   294 NVB=   294

 **** Warning!!: The largest alpha MO coefficient is  0.14344426D+02

 Fully direct method using O(OVN) memory.
 JobTyp=1 Pass  1:  I=   1 to  21 NPSUse=  8 ParTrn=T ParDer=T DoDerP=F.
 Spin components of T(2) and E(2):
     alpha-alpha T2 =       0.5347546180D-01 E2=     -0.1679897155D+00
     alpha-beta  T2 =       0.2946816485D+00 E2=     -0.1014028994D+01
     beta-beta   T2 =       0.5347546180D-01 E2=     -0.1679897155D+00
 ANorm=    0.1183905643D+01
 E2 =    -0.1350008425D+01 EUMP2 =    -0.70480989447116D+03

 **********************************************************************

            Population analysis using the SCF density.

 **********************************************************************

 Orbital symmetries:
       Occupied  (A) (A) (A) (A) (A) (A) (A) (A) (A) (A) (A) (A)
                 (A) (A) (A) (A) (A) (A) (A) (A) (A) (A) (A) (A)
                 (A) (A) (A) (A) (A) (A) (A) (A)
       Virtual   (A) (A) (A) (A) (A) (A) (A) (A) (A) (A) (A) (A)
                 (A) (A) (A) (A) (A) (A) (A) (A) (A) (A) (A) (A)
                 (A) (A) (A) (A) (A) (A) (A) (A) (A) (A) (A) (A)
                 (A) (A) (A) (A) (A) (A) (A) (A) (A) (A) (A) (A)
                 (A) (A) (A) (A) (A) (A) (A) (A) (A) (A) (A) (A)
                 (A) (A) (A) (A) (A) (A) (A) (A) (A) (A) (A) (A)
                 (A) (A) (A) (A) (A) (A) (A) (A) (A) (A) (A) (A)
                 (A) (A) (A) (A) (A) (A) (A) (A) (A) (A) (A) (A)
                 (A) (A) (A) (A) (A) (A) (A) (A) (A) (A) (A) (A)
                 (A) (A) (A) (A) (A) (A) (A) (A) (A) (A) (A) (A)
                 (A) (A) (A) (A) (A) (A) (A) (A) (A) (A) (A) (A)
                 (A) (A) (A) (A) (A) (A) (A) (A) (A) (A) (A) (A)
                 (A) (A) (A) (A) (A) (A) (A) (A) (A) (A) (A) (A)
                 (A) (A) (A) (A) (A) (A) (A) (A) (A) (A) (A) (A)
                 (A) (A) (A) (A) (A) (A) (A) (A) (A) (A) (A) (A)
                 (A) (A) (A) (A) (A) (A) (A) (A) (A) (A) (A) (A)
                 (A) (A) (A) (A) (A) (A) (A) (A) (A) (A) (A) (A)
                 (A) (A) (A) (A) (A) (A) (A) (A) (A) (A) (A) (A)
                 (A) (A) (A) (A) (A) (A) (A) (A) (A) (A) (A) (A)
                 (A) (A) (A) (A) (A) (A) (A) (A) (A) (A) (A) (A)
                 (A) (A) (A) (A) (A) (A) (A) (A) (A) (A) (A) (A)
                 (A) (A) (A) (A) (A) (A) (A) (A) (A) (A) (A) (A)
                 (A) (A) (A) (A) (A) (A) (A) (A) (A) (A) (A) (A)
                 (A) (A) (A) (A) (A) (A) (A) (A) (A) (A) (A) (A)
                 (A) (A) (A) (A) (A) (A)
 The electronic state is 1-A.
 Alpha  occ. eigenvalues --  -92.17141 -20.53995 -20.53740 -11.28092 -11.28090
 Alpha  occ. eigenvalues --  -11.26440 -11.26389  -9.14219  -6.82666  -6.82598
 Alpha  occ. eigenvalues --   -6.82591  -1.42497  -1.31734  -1.13911  -1.02519
 Alpha  occ. eigenvalues --   -0.97286  -0.82804  -0.80232  -0.68988  -0.68501
 Alpha  occ. eigenvalues --   -0.65652  -0.63000  -0.60387  -0.59762  -0.56397
 Alpha  occ. eigenvalues --   -0.53978  -0.52220  -0.50815  -0.47974  -0.47547
 Alpha  occ. eigenvalues --   -0.46043  -0.41747
 Alpha virt. eigenvalues --    0.11565   0.14818   0.15944   0.16025   0.19209
 Alpha virt. eigenvalues --    0.19394   0.19866   0.21876   0.23513   0.24069
 Alpha virt. eigenvalues --    0.25351   0.28003   0.30067   0.33177   0.35473
 Alpha virt. eigenvalues --    0.37128   0.39266   0.40606   0.41404   0.43357
 Alpha virt. eigenvalues --    0.44386   0.48448   0.48551   0.50319   0.51178
 Alpha virt. eigenvalues --    0.52151   0.54489   0.57211   0.57517   0.58038
 Alpha virt. eigenvalues --    0.58835   0.60326   0.60342   0.61579   0.63909
 Alpha virt. eigenvalues --    0.64198   0.64947   0.66134   0.67515   0.68853
 Alpha virt. eigenvalues --    0.71072   0.73232   0.77617   0.83518   0.84609
 Alpha virt. eigenvalues --    0.87286   0.90777   0.91388   0.94368   0.96760
 Alpha virt. eigenvalues --    0.97442   0.98547   0.98724   0.99101   1.03715
 Alpha virt. eigenvalues --    1.07032   1.07539   1.09224   1.09275   1.12821
 Alpha virt. eigenvalues --    1.16610   1.18308   1.18451   1.20969   1.21911
 Alpha virt. eigenvalues --    1.25877   1.26026   1.27438   1.28535   1.28770
 Alpha virt. eigenvalues --    1.28852   1.31439   1.31820   1.32985   1.34149
 Alpha virt. eigenvalues --    1.36644   1.36868   1.41561   1.43123   1.43327
 Alpha virt. eigenvalues --    1.45643   1.48298   1.51580   1.51904   1.54031
 Alpha virt. eigenvalues --    1.55870   1.57692   1.60719   1.64699   1.65566
 Alpha virt. eigenvalues --    1.66968   1.67515   1.70968   1.72738   1.74902
 Alpha virt. eigenvalues --    1.75380   1.76341   1.76921   1.79227   1.82960
 Alpha virt. eigenvalues --    1.84078   1.86068   1.87017   1.91134   1.92067
 Alpha virt. eigenvalues --    1.94066   2.04319   2.05742   2.08741   2.11830
 Alpha virt. eigenvalues --    2.15185   2.19043   2.26107   2.32205   2.36771
 Alpha virt. eigenvalues --    2.45153   2.53856   2.57100   2.58421   2.60898
 Alpha virt. eigenvalues --    2.61387   2.64157   2.66389   2.67600   2.70892
 Alpha virt. eigenvalues --    2.71744   2.72073   2.75302   2.75618   2.77770
 Alpha virt. eigenvalues --    2.81321   2.82713   2.82970   2.86494   2.88503
 Alpha virt. eigenvalues --    2.92682   2.93874   2.94681   2.97665   2.97850
 Alpha virt. eigenvalues --    3.00729   3.01541   3.03032   3.04875   3.10708
 Alpha virt. eigenvalues --    3.16492   3.17649   3.23751   3.25436   3.25829
 Alpha virt. eigenvalues --    3.27383   3.28899   3.32262   3.33397   3.33597
 Alpha virt. eigenvalues --    3.36773   3.38774   3.41972   3.42530   3.42708
 Alpha virt. eigenvalues --    3.44175   3.44582   3.45404   3.46996   3.48765
 Alpha virt. eigenvalues --    3.53166   3.54188   3.56125   3.59373   3.61782
 Alpha virt. eigenvalues --    3.63320   3.65230   3.69088   3.73930   3.74163
 Alpha virt. eigenvalues --    3.77116   3.78811   3.81335   3.84314   3.85574
 Alpha virt. eigenvalues --    3.85641   3.86783   3.88288   3.93461   3.93896
 Alpha virt. eigenvalues --    3.95434   3.97414   3.98568   4.01602   4.02543
 Alpha virt. eigenvalues --    4.05161   4.06263   4.08364   4.10736   4.13985
 Alpha virt. eigenvalues --    4.14441   4.20246   4.23207   4.24664   4.25442
 Alpha virt. eigenvalues --    4.29435   4.30844   4.33287   4.33901   4.35576
 Alpha virt. eigenvalues --    4.38153   4.39076   4.41233   4.43046   4.44043
 Alpha virt. eigenvalues --    4.46314   4.47430   4.48502   4.49017   4.51168
 Alpha virt. eigenvalues --    4.53122   4.55570   4.57332   4.57944   4.61548
 Alpha virt. eigenvalues --    4.62414   4.63924   4.70770   4.73449   4.75815
 Alpha virt. eigenvalues --    4.78985   4.84233   4.89773   4.92060   4.93335
 Alpha virt. eigenvalues --    5.01316   5.04120   5.08937   5.09623   5.16144
 Alpha virt. eigenvalues --    5.16227   5.20571   5.22650   5.24512   5.31365
 Alpha virt. eigenvalues --    5.32885   5.33324   5.36523   5.41277   5.43351
 Alpha virt. eigenvalues --    5.47255   5.48416   5.50401   5.55200   5.58246
 Alpha virt. eigenvalues --    5.60313   5.61040   5.61319   5.61462   5.62724
 Alpha virt. eigenvalues --    5.63740   5.63933   5.68672   5.70032   5.70118
 Alpha virt. eigenvalues --    5.74045   5.74589   5.77786   5.78718   5.87443
 Alpha virt. eigenvalues --    5.88719   5.92542   5.96834   6.01593   6.02438
 Alpha virt. eigenvalues --    6.10821   6.14194   6.21655   6.25407   6.28959
 Alpha virt. eigenvalues --    6.32646   6.45584   6.75887   6.84042   6.85128
 Alpha virt. eigenvalues --    6.91621   6.96957   7.22884   7.28664   7.31573
 Alpha virt. eigenvalues --    7.35812   7.47579   7.59987  10.33914  10.51293
 Alpha virt. eigenvalues --   11.37831  12.29435  12.82731  13.55032
          Condensed to atoms (all electrons):
              1          2          3          4          5          6
     1  C    4.965660   0.265650  -0.027412  -0.021981   0.292429   0.003648
     2  C    0.265650   5.070923   0.312654  -0.083107  -0.021994  -0.046243
     3  S   -0.027412   0.312654  13.239298   0.312622  -0.027375   0.639919
     4  C   -0.021981  -0.083107   0.312622   5.070976   0.265611  -0.046243
     5  C    0.292429  -0.021994  -0.027375   0.265611   4.965658   0.003647
     6  O    0.003648  -0.046243   0.639919  -0.046243   0.003647   8.031862
     7  O    0.004017  -0.049701   0.630956  -0.049700   0.004030  -0.032578
     8  H   -0.018691   0.401331  -0.010698   0.004791   0.002824   0.001266
     9  H   -0.033491   0.410073  -0.014624   0.001042   0.002020   0.004236
    10  H    0.002025   0.001041  -0.014626   0.410075  -0.033492   0.004239
    11  H    0.002822   0.004792  -0.010701   0.401325  -0.018690   0.001266
    12  H   -0.031959   0.002201   0.002801  -0.029264   0.417700  -0.000128
    13  H   -0.028864   0.002394   0.001103  -0.026761   0.416953  -0.000028
    14  H    0.417693  -0.029261   0.002803   0.002205  -0.031957  -0.000128
    15  H    0.416955  -0.026770   0.001102   0.002391  -0.028867  -0.000028
              7          8          9         10         11         12
     1  C    0.004017  -0.018691  -0.033491   0.002025   0.002822  -0.031959
     2  C   -0.049701   0.401331   0.410073   0.001041   0.004792   0.002201
     3  S    0.630956  -0.010698  -0.014624  -0.014626  -0.010701   0.002801
     4  C   -0.049700   0.004791   0.001042   0.410075   0.401325  -0.029264
     5  C    0.004030   0.002824   0.002020  -0.033492  -0.018690   0.417700
     6  O   -0.032578   0.001266   0.004236   0.004239   0.001266  -0.000128
     7  O    8.061693   0.001959   0.002449   0.002449   0.001961   0.000120
     8  H    0.001959   0.503713  -0.019203  -0.000184  -0.000090  -0.000094
     9  H    0.002449  -0.019203   0.519342  -0.001476  -0.000185   0.000119
    10  H    0.002449  -0.000184  -0.001476   0.519331  -0.019203  -0.006610
    11  H    0.001961  -0.000090  -0.000185  -0.019203   0.503716  -0.000432
    12  H    0.000120  -0.000094   0.000119  -0.006610  -0.000432   0.556366
    13  H    0.001922  -0.000160  -0.000330   0.004475  -0.005423  -0.028435
    14  H    0.000120  -0.000438  -0.006607   0.000118  -0.000094  -0.006129
    15  H    0.001932  -0.005419   0.004478  -0.000330  -0.000160   0.003049
             13         14         15
     1  C   -0.028864   0.417693   0.416955
     2  C    0.002394  -0.029261  -0.026770
     3  S    0.001103   0.002803   0.001102
     4  C   -0.026761   0.002205   0.002391
     5  C    0.416953  -0.031957  -0.028867
     6  O   -0.000028  -0.000128  -0.000028
     7  O    0.001922   0.000120   0.001932
     8  H   -0.000160  -0.000438  -0.005419
     9  H   -0.000330  -0.006607   0.004478
    10  H    0.004475   0.000118  -0.000330
    11  H   -0.005423  -0.000094  -0.000160
    12  H   -0.028435  -0.006129   0.003049
    13  H    0.546343   0.003042  -0.008825
    14  H    0.003042   0.556347  -0.028431
    15  H   -0.008825  -0.028431   0.546324
 Mulliken atomic charges:
              1
     1  C   -0.208500
     2  C   -0.213983
     3  S    0.962178
     4  C   -0.213983
     5  C   -0.208496
     6  O   -0.564706
     7  O   -0.581630
     8  H    0.139093
     9  H    0.132156
    10  H    0.132170
    11  H    0.139095
    12  H    0.120697
    13  H    0.122594
    14  H    0.120717
    15  H    0.122599
 Sum of Mulliken atomic charges =   0.00000
 Mulliken charges with hydrogens summed into heavy atoms:
              1
     1  C    0.034816
     2  C    0.057266
     3  S    0.962178
     4  C    0.057282
     5  C    0.034795
     6  O   -0.564706
     7  O   -0.581630
 Sum of Mulliken charges with hydrogens summed into heavy atoms =   0.00000
 Electronic spatial extent (au):  <R**2>=            790.7814
 Charge=              0.0000 electrons
 Dipole moment (field-independent basis, Debye):
    X=             -5.5436    Y=              0.0005    Z=             -1.9305  Tot=              5.8702
 Quadrupole moment (field-independent basis, Debye-Ang):
   XX=            -55.7496   YY=            -43.4912   ZZ=            -54.1964
   XY=             -0.0002   XZ=              0.9358   YZ=              0.0028
 Traceless Quadrupole moment (field-independent basis, Debye-Ang):
   XX=             -4.6039   YY=              7.6545   ZZ=             -3.0507
   XY=             -0.0002   XZ=              0.9358   YZ=              0.0028
 Octapole moment (field-independent basis, Debye-Ang**2):
  XXX=            -11.7333  YYY=             -0.0011  ZZZ=             -7.9163  XYY=              3.6985
  XXY=             -0.0021  XXZ=              5.2102  XZZ=             -7.4660  YZZ=              0.0032
  YYZ=              0.9442  XYZ=              0.0023
 Hexadecapole moment (field-independent basis, Debye-Ang**3):
 XXXX=           -573.4547 YYYY=           -257.5029 ZZZZ=           -199.6227 XXXY=             -0.0010
 XXXZ=             15.4818 YYYX=             -0.0005 YYYZ=              0.0022 ZZZX=             -6.7099
 ZZZY=              0.0009 XXYY=           -135.6193 XXZZ=           -130.8619 YYZZ=            -74.5018
 XXYZ=              0.0043 YYXZ=              0.7964 ZZXY=              0.0009
 N-N= 4.254045698831D+02 E-N=-2.513689610922D+03  KE= 7.025597767591D+02
 1\1\GINC-ROCK\SP\RMP2-FC\CC-pVTZ\C4H8O2S1\STYLIANAKIS\15-Mar-2016\0\\#
  mp2/cc-pVTZ\\sulfolane_envelope_single_point\\0,1\C\C,1,1.537234\S,2,
 1.825112,1,104.701\C,3,1.825125,2,92.692,1,-37.351,0\C,4,1.537258,3,10
 4.706,2,37.335,0\O,3,1.47396,2,111.806,1,-152.144,0\O,3,1.477576,2,108
 .313,1,72.949,0\H,2,1.091496,3,107.95,6,85.548,0\H,2,1.093411,3,106.22
 8,6,-31.877,0\H,4,1.093409,3,106.227,2,-82.933,0\H,4,1.091495,3,107.94
 8,2,159.645,0\H,5,1.093343,4,109.644,3,-148.736,0\H,5,1.092243,4,109.4
 83,3,93.825,0\H,1,1.093343,2,109.646,3,148.782,0\H,1,1.092244,2,109.48
 ,3,-93.779,0\\Version=EM64L-G09RevA.01\State=1-A\HF=-703.459886\MP2=-7
 04.8098945\RMSD=4.441e-09\PG=C01 [X(C4H8O2S1)]\\@


 YOU CANNOT THROW TO THE GROUND THE LETTERS OF
 THE GREEK ALPHABET AND PICK UP THE ILIAD.
        - RUFUS CHOATE, 1799-1859
 Job cpu time:  0 days  1 hours 13 minutes 21.8 seconds.
 File lengths (MBytes):  RWF=     61 Int=      0 D2E=      0 Chk=      6 Scr=      1
 Normal termination of Gaussian 09 at Tue Mar 15 23:34:52 2016.
