 Entering Gaussian System, Link 0=g09
 Input=sulfolane_halfchair.gjf
 Output=sulfolane_halfchair.out
 Initial command:
 /usr/local/g09/l1.exe /home/scratch/stylianakis/Gau-5333.inp -scrdir=/home/scratch/stylianakis/
 Entering Link 1 = /usr/local/g09/l1.exe PID=      5334.
  
 Copyright (c) 1988,1990,1992,1993,1995,1998,2003,2009, Gaussian, Inc.
                  All Rights Reserved.
  
 This is part of the Gaussian(R) 09 program.  It is based on
 the Gaussian(R) 03 system (copyright 2003, Gaussian, Inc.),
 the Gaussian(R) 98 system (copyright 1998, Gaussian, Inc.),
 the Gaussian(R) 94 system (copyright 1995, Gaussian, Inc.),
 the Gaussian 92(TM) system (copyright 1992, Gaussian, Inc.),
 the Gaussian 90(TM) system (copyright 1990, Gaussian, Inc.),
 the Gaussian 88(TM) system (copyright 1988, Gaussian, Inc.),
 the Gaussian 86(TM) system (copyright 1986, Carnegie Mellon
 University), and the Gaussian 82(TM) system (copyright 1983,
 Carnegie Mellon University). Gaussian is a federally registered
 trademark of Gaussian, Inc.
  
 This software contains proprietary and confidential information,
 including trade secrets, belonging to Gaussian, Inc.
  
 This software is provided under written license and may be
 used, copied, transmitted, or stored only in accord with that
 written license.
  
 The following legend is applicable only to US Government
 contracts under FAR:
  
                    RESTRICTED RIGHTS LEGEND
  
 Use, reproduction and disclosure by the US Government is
 subject to restrictions as set forth in subparagraphs (a)
 and (c) of the Commercial Computer Software - Restricted
 Rights clause in FAR 52.227-19.
  
 Gaussian, Inc.
 340 Quinnipiac St., Bldg. 40, Wallingford CT 06492
  
  
 ---------------------------------------------------------------
 Warning -- This program may not be used in any manner that
 competes with the business of Gaussian, Inc. or will provide
 assistance to any competitor of Gaussian, Inc.  The licensee
 of this program is prohibited from giving any competitor of
 Gaussian, Inc. access to this program.  By using this program,
 the user acknowledges that Gaussian, Inc. is engaged in the
 business of creating and licensing software in the field of
 computational chemistry and represents and warrants to the
 licensee that it is not a competitor of Gaussian, Inc. and that
 it will not use this program in any manner prohibited above.
 ---------------------------------------------------------------
  

 Cite this work as:
 Gaussian 09, Revision A.01,
 M. J. Frisch, G. W. Trucks, H. B. Schlegel, G. E. Scuseria, 
 M. A. Robb, J. R. Cheeseman, G. Scalmani, V. Barone, B. Mennucci, 
 G. A. Petersson, H. Nakatsuji, M. Caricato, X. Li, H. P. Hratchian, 
 A. F. Izmaylov, J. Bloino, G. Zheng, J. L. Sonnenberg, M. Hada, 
 M. Ehara, K. Toyota, R. Fukuda, J. Hasegawa, M. Ishida, T. Nakajima, 
 Y. Honda, O. Kitao, H. Nakai, T. Vreven, J. A. Montgomery, Jr., 
 J. E. Peralta, F. Ogliaro, M. Bearpark, J. J. Heyd, E. Brothers, 
 K. N. Kudin, V. N. Staroverov, R. Kobayashi, J. Normand, 
 K. Raghavachari, A. Rendell, J. C. Burant, S. S. Iyengar, J. Tomasi, 
 M. Cossi, N. Rega, J. M. Millam, M. Klene, J. E. Knox, J. B. Cross, 
 V. Bakken, C. Adamo, J. Jaramillo, R. Gomperts, R. E. Stratmann, 
 O. Yazyev, A. J. Austin, R. Cammi, C. Pomelli, J. W. Ochterski, 
 R. L. Martin, K. Morokuma, V. G. Zakrzewski, G. A. Voth, 
 P. Salvador, J. J. Dannenberg, S. Dapprich, A. D. Daniels, 
 O. Farkas, J. B. Foresman, J. V. Ortiz, J. Cioslowski, 
 and D. J. Fox, Gaussian, Inc., Wallingford CT, 2009.
 
 ******************************************
 Gaussian 09:  EM64L-G09RevA.01  8-May-2009
                15-Mar-2016 
 ******************************************
 %mem=16000Mb
 %nproc=8
 Will use up to    8 processors via shared memory.
 -------------
 # mp2/cc-pVTZ
 -------------
 1/38=1/1;
 2/12=2,17=6,18=5,40=1/2;
 3/5=16,6=1,11=9,16=1,25=1,30=1/1,2,3;
 4//1;
 5/5=2,38=5/2;
 8/10=1/1;
 9/16=-3/6;
 6/7=2,8=2,9=2,10=2/1;
 99/5=1,9=1/99;
 --------------------------------
 sulfolane_halfchair_single_point
 --------------------------------
 Symbolic Z-matrix:
 Charge =  0 Multiplicity = 1
 c
 c                    1    cc2
 s                    2    sc3      1    scc3
 c                    3    cs4      2    csc4     1    dih4     0
 c                    4    cc5      3    ccs5     2    dih5     0
 o                    3    os6      2    osc6     1    dih6     0
 o                    3    os7      2    osc7     1    dih7     0
 h                    2    hc8      3    hcs8     6    dih8     0
 h                    2    hc9      3    hcs9     6    dih9     0
 h                    4    hc10     3    hcs10    2    dih10    0
 h                    4    hc11     3    hcs11    2    dih11    0
 h                    5    hc12     4    hcc12    3    dih12    0
 h                    5    hc13     4    hcc13    3    dih13    0
 h                    1    hc14     2    hcc14    3    dih14    0
 h                    1    hc15     2    hcc15    3    dih15    0
       Variables:
  cc2                   1.53283                  
  sc3                   1.84392                  
  scc3                105.154                    
  cs4                   1.8439                   
  csc4                 95.514                    
  dih4                -13.298                    
  cc5                   1.53282                  
  ccs5                105.151                    
  dih5                -13.322                    
  os6                   1.47656                  
  osc6                109.328                    
  dih6               -126.466                    
  os7                   1.47655                  
  osc7                109.743                    
  dih7                 99.528                    
  hc8                   1.09109                  
  hcs8                107.304                    
  dih8                110.804                    
  hc9                   1.09269                  
  hcs9                106.078                    
  dih9                 -7.027                    
  hc10                  1.09109                  
  hcs10               107.305                    
  dih10              -136.052                    
  hc11                  1.0927                   
  hcs11               106.079                    
  dih11               106.116                    
  hc12                  1.09609                  
  hcc12               109.975                    
  dih12               -82.908                    
  hc13                  1.09413                  
  hcc13               110.847                    
  dih13               158.39                     
  hc14                  1.09413                  
  hcc14               110.847                    
  dih14               158.374                    
  hc15                  1.09609                  
  hcc15               109.975                    
  dih15               -82.925                    
 
                          Input orientation:                          
 ---------------------------------------------------------------------
 Center     Atomic      Atomic             Coordinates (Angstroms)
 Number     Number       Type             X           Y           Z
 ---------------------------------------------------------------------
      1          6           0        0.000000    0.000000    0.000000
      2          6           0        0.000000    0.000000    1.532831
      3         16           0        1.779801    0.000000    2.014858
      4          6           0        2.417745   -0.422164    0.337130
      5          6           0        1.187812   -0.877488   -0.456275
      6          8           0        2.035027   -1.120534    2.941938
      7          8           0        2.201101    1.370585    2.367293
      8          1           0       -0.460487    0.876314    1.991639
      9          1           0       -0.426997   -0.914384    1.951827
     10          1           0        3.188794   -1.183458    0.465179
     11          1           0        2.855989    0.496633   -0.060037
     12          1           0        0.974884   -1.931659   -0.244614
     13          1           0        1.363452   -0.787477   -1.532454
     14          1           0       -0.950525   -0.376839   -0.389371
     15          1           0        0.126882    1.022308   -0.374436
 ---------------------------------------------------------------------
                    Distance matrix (angstroms):
                    1          2          3          4          5
     1  C    0.000000
     2  C    1.532831   0.000000
     3  S    2.688372   1.843920   0.000000
     4  C    2.477371   2.730094   1.843900   0.000000
     5  C    1.545662   2.477383   2.688296   1.532823   0.000000
     6  O    3.748591   2.717079   1.476555   2.723825   3.510656
     7  O    3.511044   2.723909   1.476553   2.717066   3.748750
     8  H    2.224095   1.091091   2.405693   3.564781   3.432928
     9  H    2.197283   1.092695   2.389566   3.307882   2.899643
    10  H    3.432983   3.564949   2.405689   1.091092   2.224100
    11  H    2.899469   3.307650   2.389564   1.092697   2.197277
    12  H    2.177508   2.800181   3.079677   2.167683   1.096091
    13  H    2.197166   3.446026   3.657443   2.177230   1.094126
    14  H    1.094128   2.177239   3.657459   3.446027   2.197183
    15  H    1.096091   2.167690   3.079932   2.800156   2.177498
                    6          7          8          9         10
     6  O    0.000000
     7  O    2.561927   0.000000
     8  H    3.334376   2.733034   0.000000
     9  H    2.661650   3.507221   1.791454   0.000000
    10  H    2.733034   3.334173   4.459820   3.918733   0.000000
    11  H    3.507287   2.661692   3.918233   4.100800   1.791456
    12  H    3.454843   4.385258   3.865984   2.797226   2.442336
    13  H    4.536753   4.535077   4.302812   3.919442   2.734814
    14  H    4.534780   4.537118   2.734911   2.458505   4.302889
    15  H    4.385331   3.455541   2.442259   3.077184   3.865962
                   11         12         13         14         15
    11  H    0.000000
    12  H    3.077211   0.000000
    13  H    2.458581   1.765975   0.000000
    14  H    3.919307   2.479037   2.613380   0.000000
    15  H    2.796999   3.076017   2.478999   1.765968   0.000000
 Stoichiometry    C4H8O2S
 Framework group  C1[X(C4H8O2S)]
 Deg. of freedom    39
 Full point group                 C1      NOp   1
 Largest Abelian subgroup         C1      NOp   1
 Largest concise Abelian subgroup C1      NOp   1
                         Standard orientation:                         
 ---------------------------------------------------------------------
 Center     Atomic      Atomic             Coordinates (Angstroms)
 Number     Number       Type             X           Y           Z
 ---------------------------------------------------------------------
      1          6           0       -1.786605    0.759339   -0.143554
      2          6           0       -0.451347    1.315785    0.363422
      3         16           0        0.788306    0.000020    0.000016
      4          6           0       -0.451275   -1.315705   -0.363676
      5          6           0       -1.786490   -0.759421    0.143565
      6          8           0        1.522519   -0.334648    1.236601
      7          8           0        1.522894    0.334601   -1.236368
      8          1           0       -0.114457    2.225783   -0.135466
      9          1           0       -0.438828    1.452256    1.447489
     10          1           0       -0.114311   -2.225833    0.134927
     11          1           0       -0.438845   -1.451871   -1.447785
     12          1           0       -1.879803   -0.934585    1.221538
     13          1           0       -2.627721   -1.260464   -0.344696
     14          1           0       -2.627799    1.260306    0.344852
     15          1           0       -1.880147    0.934477   -1.221511
 ---------------------------------------------------------------------
 Rotational constants (GHZ):      3.6554797      1.9742752      1.8405608
 Standard basis: CC-pVTZ (5D, 7F)
 There are   326 symmetry adapted basis functions of A   symmetry.
 Integral buffers will be    131072 words long.
 Raffenetti 1 integral format.
 Two-electron integral symmetry is turned on.
   326 basis functions,   542 primitive gaussians,   369 cartesian basis functions
    32 alpha electrons       32 beta electrons
       nuclear repulsion energy       424.1196259439 Hartrees.
 NAtoms=   15 NActive=   15 NUniq=   15 SFac= 7.50D-01 NAtFMM=   80 NAOKFM=F Big=F
 One-electron integrals computed using PRISM.
 NBasis=   326 RedAO= T  NBF=   326
 NBsUse=   326 1.00D-06 NBFU=   326
 Harris functional with IExCor=  205 diagonalized for initial guess.
 ExpMin= 1.03D-01 ExpMax= 3.74D+05 ExpMxC= 1.18D+03 IAcc=2 IRadAn=         0 AccDes= 0.00D+00
 HarFok:  IExCor=  205 AccDes= 0.00D+00 IRadAn=         0 IDoV= 1
 ScaDFX=  1.000000  1.000000  1.000000  1.000000
 FoFCou: FMM=F IPFlag=           0 FMFlag=      100000 FMFlg1=           0
         NFxFlg=           0 DoJE=T BraDBF=F KetDBF=T FulRan=T
         Omega=  0.000000  0.000000  1.000000  0.000000  0.000000 ICntrl=     500 IOpCl=  0
         NMat0=    1 NMatS0=    1 NMatT0=    0 NMatD0=    1 NMtDS0=    0 NMtDT0=    0
         I1Cent=           4 NGrid=           0.
 Petite list used in FoFCou.
 Initial guess orbital symmetries:
       Occupied  (A) (A) (A) (A) (A) (A) (A) (A) (A) (A) (A) (A)
                 (A) (A) (A) (A) (A) (A) (A) (A) (A) (A) (A) (A)
                 (A) (A) (A) (A) (A) (A) (A) (A)
       Virtual   (A) (A) (A) (A) (A) (A) (A) (A) (A) (A) (A) (A)
                 (A) (A) (A) (A) (A) (A) (A) (A) (A) (A) (A) (A)
                 (A) (A) (A) (A) (A) (A) (A) (A) (A) (A) (A) (A)
                 (A) (A) (A) (A) (A) (A) (A) (A) (A) (A) (A) (A)
                 (A) (A) (A) (A) (A) (A) (A) (A) (A) (A) (A) (A)
                 (A) (A) (A) (A) (A) (A) (A) (A) (A) (A) (A) (A)
                 (A) (A) (A) (A) (A) (A) (A) (A) (A) (A) (A) (A)
                 (A) (A) (A) (A) (A) (A) (A) (A) (A) (A) (A) (A)
                 (A) (A) (A) (A) (A) (A) (A) (A) (A) (A) (A) (A)
                 (A) (A) (A) (A) (A) (A) (A) (A) (A) (A) (A) (A)
                 (A) (A) (A) (A) (A) (A) (A) (A) (A) (A) (A) (A)
                 (A) (A) (A) (A) (A) (A) (A) (A) (A) (A) (A) (A)
                 (A) (A) (A) (A) (A) (A) (A) (A) (A) (A) (A) (A)
                 (A) (A) (A) (A) (A) (A) (A) (A) (A) (A) (A) (A)
                 (A) (A) (A) (A) (A) (A) (A) (A) (A) (A) (A) (A)
                 (A) (A) (A) (A) (A) (A) (A) (A) (A) (A) (A) (A)
                 (A) (A) (A) (A) (A) (A) (A) (A) (A) (A) (A) (A)
                 (A) (A) (A) (A) (A) (A) (A) (A) (A) (A) (A) (A)
                 (A) (A) (A) (A) (A) (A) (A) (A) (A) (A) (A) (A)
                 (A) (A) (A) (A) (A) (A) (A) (A) (A) (A) (A) (A)
                 (A) (A) (A) (A) (A) (A) (A) (A) (A) (A) (A) (A)
                 (A) (A) (A) (A) (A) (A) (A) (A) (A) (A) (A) (A)
                 (A) (A) (A) (A) (A) (A) (A) (A) (A) (A) (A) (A)
                 (A) (A) (A) (A) (A) (A) (A) (A) (A) (A) (A) (A)
                 (A) (A) (A) (A) (A) (A)
 The electronic state of the initial guess is 1-A.
 Requested convergence on RMS density matrix=1.00D-08 within 128 cycles.
 Requested convergence on MAX density matrix=1.00D-06.
 Requested convergence on             energy=1.00D-06.
 No special actions if energy rises.
 Integral accuracy reduced to 1.0D-05 until final iterations.
 Initial convergence to 1.0D-05 achieved.  Increase integral accuracy.
 SCF Done:  E(RHF) =  -703.462187662     A.U. after   13 cycles
             Convg  =    0.4667D-08             -V/T =  2.0013
 ExpMin= 1.03D-01 ExpMax= 3.74D+05 ExpMxC= 1.18D+03 IAcc=3 IRadAn=         5 AccDes= 0.00D+00
 HarFok:  IExCor=  205 AccDes= 0.00D+00 IRadAn=         5 IDoV=-2
 ScaDFX=  1.000000  1.000000  1.000000  1.000000
 Range of M.O.s used for correlation:    12   326
 NBasis=   326 NAE=    32 NBE=    32 NFC=    11 NFV=     0
 NROrb=    315 NOA=    21 NOB=    21 NVA=   294 NVB=   294
 Fully direct method using O(OVN) memory.
 JobTyp=1 Pass  1:  I=   1 to  21 NPSUse=  8 ParTrn=T ParDer=T DoDerP=F.
 Spin components of T(2) and E(2):
     alpha-alpha T2 =       0.5351483257D-01 E2=     -0.1680266933D+00
     alpha-beta  T2 =       0.2947943009D+00 E2=     -0.1013926842D+01
     beta-beta   T2 =       0.5351483257D-01 E2=     -0.1680266933D+00
 ANorm=    0.1183986472D+01
 E2 =    -0.1349980229D+01 EUMP2 =    -0.70481216789106D+03

 **********************************************************************

            Population analysis using the SCF density.

 **********************************************************************

 Orbital symmetries:
       Occupied  (A) (A) (A) (A) (A) (A) (A) (A) (A) (A) (A) (A)
                 (A) (A) (A) (A) (A) (A) (A) (A) (A) (A) (A) (A)
                 (A) (A) (A) (A) (A) (A) (A) (A)
       Virtual   (A) (A) (A) (A) (A) (A) (A) (A) (A) (A) (A) (A)
                 (A) (A) (A) (A) (A) (A) (A) (A) (A) (A) (A) (A)
                 (A) (A) (A) (A) (A) (A) (A) (A) (A) (A) (A) (A)
                 (A) (A) (A) (A) (A) (A) (A) (A) (A) (A) (A) (A)
                 (A) (A) (A) (A) (A) (A) (A) (A) (A) (A) (A) (A)
                 (A) (A) (A) (A) (A) (A) (A) (A) (A) (A) (A) (A)
                 (A) (A) (A) (A) (A) (A) (A) (A) (A) (A) (A) (A)
                 (A) (A) (A) (A) (A) (A) (A) (A) (A) (A) (A) (A)
                 (A) (A) (A) (A) (A) (A) (A) (A) (A) (A) (A) (A)
                 (A) (A) (A) (A) (A) (A) (A) (A) (A) (A) (A) (A)
                 (A) (A) (A) (A) (A) (A) (A) (A) (A) (A) (A) (A)
                 (A) (A) (A) (A) (A) (A) (A) (A) (A) (A) (A) (A)
                 (A) (A) (A) (A) (A) (A) (A) (A) (A) (A) (A) (A)
                 (A) (A) (A) (A) (A) (A) (A) (A) (A) (A) (A) (A)
                 (A) (A) (A) (A) (A) (A) (A) (A) (A) (A) (A) (A)
                 (A) (A) (A) (A) (A) (A) (A) (A) (A) (A) (A) (A)
                 (A) (A) (A) (A) (A) (A) (A) (A) (A) (A) (A) (A)
                 (A) (A) (A) (A) (A) (A) (A) (A) (A) (A) (A) (A)
                 (A) (A) (A) (A) (A) (A) (A) (A) (A) (A) (A) (A)
                 (A) (A) (A) (A) (A) (A) (A) (A) (A) (A) (A) (A)
                 (A) (A) (A) (A) (A) (A) (A) (A) (A) (A) (A) (A)
                 (A) (A) (A) (A) (A) (A) (A) (A) (A) (A) (A) (A)
                 (A) (A) (A) (A) (A) (A) (A) (A) (A) (A) (A) (A)
                 (A) (A) (A) (A) (A) (A) (A) (A) (A) (A) (A) (A)
                 (A) (A) (A) (A) (A) (A)
 The electronic state is 1-A.
 Alpha  occ. eigenvalues --  -92.17111 -20.53677 -20.53675 -11.28069 -11.28067
 Alpha  occ. eigenvalues --  -11.26699 -11.26642  -9.14176  -6.82617  -6.82551
 Alpha  occ. eigenvalues --   -6.82549  -1.42252  -1.31541  -1.14520  -1.02445
 Alpha  occ. eigenvalues --   -0.96860  -0.83511  -0.80049  -0.69559  -0.68577
 Alpha  occ. eigenvalues --   -0.63547  -0.63222  -0.61283  -0.60799  -0.55849
 Alpha  occ. eigenvalues --   -0.54063  -0.52578  -0.51910  -0.47803  -0.47133
 Alpha  occ. eigenvalues --   -0.45787  -0.41587
 Alpha virt. eigenvalues --    0.11747   0.14413   0.15778   0.16641   0.18915
 Alpha virt. eigenvalues --    0.19747   0.20295   0.20939   0.22013   0.23049
 Alpha virt. eigenvalues --    0.24752   0.25467   0.31873   0.32142   0.34887
 Alpha virt. eigenvalues --    0.38218   0.38270   0.39926   0.40842   0.41962
 Alpha virt. eigenvalues --    0.46618   0.49271   0.49689   0.50252   0.51916
 Alpha virt. eigenvalues --    0.52950   0.55927   0.56241   0.57963   0.58360
 Alpha virt. eigenvalues --    0.59866   0.60535   0.61773   0.62331   0.62936
 Alpha virt. eigenvalues --    0.63567   0.64174   0.65570   0.68369   0.70403
 Alpha virt. eigenvalues --    0.71207   0.72513   0.78155   0.79806   0.79974
 Alpha virt. eigenvalues --    0.87745   0.88461   0.89617   0.92614   0.95183
 Alpha virt. eigenvalues --    0.97756   0.99558   1.01037   1.01104   1.04801
 Alpha virt. eigenvalues --    1.06905   1.07999   1.08806   1.10706   1.12592
 Alpha virt. eigenvalues --    1.13937   1.15018   1.17713   1.21135   1.23640
 Alpha virt. eigenvalues --    1.25257   1.26455   1.26627   1.27868   1.28259
 Alpha virt. eigenvalues --    1.31071   1.31299   1.33314   1.35714   1.36510
 Alpha virt. eigenvalues --    1.38220   1.39467   1.40291   1.41046   1.43491
 Alpha virt. eigenvalues --    1.46216   1.46517   1.48417   1.50649   1.53285
 Alpha virt. eigenvalues --    1.54017   1.55239   1.59636   1.60821   1.62796
 Alpha virt. eigenvalues --    1.65847   1.68813   1.69546   1.71899   1.73609
 Alpha virt. eigenvalues --    1.75444   1.76678   1.79369   1.79542   1.82876
 Alpha virt. eigenvalues --    1.84092   1.87285   1.90889   1.92171   1.94505
 Alpha virt. eigenvalues --    2.00739   2.02611   2.03465   2.07790   2.14943
 Alpha virt. eigenvalues --    2.15945   2.18687   2.24254   2.31718   2.36816
 Alpha virt. eigenvalues --    2.44805   2.54371   2.55050   2.60811   2.61209
 Alpha virt. eigenvalues --    2.62105   2.62338   2.64440   2.68132   2.72370
 Alpha virt. eigenvalues --    2.74686   2.74843   2.75077   2.79230   2.79990
 Alpha virt. eigenvalues --    2.82182   2.82456   2.84459   2.88343   2.88701
 Alpha virt. eigenvalues --    2.89604   2.90281   2.92168   2.92891   2.93700
 Alpha virt. eigenvalues --    3.01359   3.01503   3.04488   3.06043   3.08172
 Alpha virt. eigenvalues --    3.16239   3.18373   3.19094   3.26129   3.27585
 Alpha virt. eigenvalues --    3.27702   3.30536   3.31431   3.33033   3.34739
 Alpha virt. eigenvalues --    3.36369   3.37364   3.40017   3.40849   3.41216
 Alpha virt. eigenvalues --    3.42577   3.45454   3.47487   3.47496   3.50018
 Alpha virt. eigenvalues --    3.52001   3.53022   3.54902   3.61304   3.63572
 Alpha virt. eigenvalues --    3.65015   3.68100   3.69689   3.69972   3.72765
 Alpha virt. eigenvalues --    3.73394   3.79290   3.79483   3.82254   3.85944
 Alpha virt. eigenvalues --    3.87622   3.88739   3.92955   3.93671   3.94223
 Alpha virt. eigenvalues --    3.94225   3.99701   4.01335   4.03483   4.05365
 Alpha virt. eigenvalues --    4.05532   4.08973   4.11803   4.12926   4.13802
 Alpha virt. eigenvalues --    4.18925   4.18971   4.21017   4.22798   4.26101
 Alpha virt. eigenvalues --    4.27464   4.29212   4.29724   4.33350   4.33370
 Alpha virt. eigenvalues --    4.35522   4.37454   4.40884   4.42801   4.44665
 Alpha virt. eigenvalues --    4.46208   4.47288   4.48267   4.49228   4.50933
 Alpha virt. eigenvalues --    4.52312   4.55579   4.55595   4.58192   4.61511
 Alpha virt. eigenvalues --    4.63103   4.64107   4.65381   4.73188   4.76123
 Alpha virt. eigenvalues --    4.81629   4.84631   4.88174   4.96069   4.99587
 Alpha virt. eigenvalues --    5.04726   5.08959   5.10594   5.11125   5.19236
 Alpha virt. eigenvalues --    5.20232   5.20866   5.21046   5.24454   5.27708
 Alpha virt. eigenvalues --    5.29529   5.29630   5.36687   5.36800   5.45800
 Alpha virt. eigenvalues --    5.48119   5.50554   5.54872   5.56180   5.60657
 Alpha virt. eigenvalues --    5.61077   5.61428   5.61784   5.63688   5.64825
 Alpha virt. eigenvalues --    5.65532   5.67432   5.69525   5.69903   5.72452
 Alpha virt. eigenvalues --    5.73621   5.74146   5.77620   5.81880   5.82266
 Alpha virt. eigenvalues --    5.85743   5.94021   5.97522   5.99325   6.00861
 Alpha virt. eigenvalues --    6.04589   6.10886   6.25332   6.26755   6.28530
 Alpha virt. eigenvalues --    6.36866   6.38004   6.72850   6.83366   6.84553
 Alpha virt. eigenvalues --    6.91732   6.93588   7.22074   7.29600   7.31690
 Alpha virt. eigenvalues --    7.35233   7.48073   7.58037  10.36844  10.42680
 Alpha virt. eigenvalues --   12.01559  12.38376  13.07056  13.40269
          Condensed to atoms (all electrons):
              1          2          3          4          5          6
     1  C    4.924030   0.301143  -0.018611  -0.040521   0.319310   0.000431
     2  C    0.301143   5.061384   0.302332  -0.076398  -0.040523  -0.049397
     3  S   -0.018611   0.302332  13.278402   0.302348  -0.018627   0.629673
     4  C   -0.040521  -0.076398   0.302348   5.061356   0.301143  -0.049401
     5  C    0.319310  -0.040523  -0.018627   0.301143   4.924045   0.003840
     6  O    0.000431  -0.049397   0.629673  -0.049401   0.003840   8.054651
     7  O    0.003839  -0.049395   0.629683  -0.049398   0.000434  -0.032270
     8  H   -0.024251   0.401445  -0.013270   0.004151   0.004586   0.001596
     9  H   -0.027640   0.399798  -0.016735   0.006336  -0.004756   0.005919
    10  H    0.004585   0.004151  -0.013268   0.401450  -0.024247   0.004917
    11  H   -0.004757   0.006335  -0.016732   0.399808  -0.027646   0.002189
    12  H   -0.033760   0.001295  -0.001081  -0.032687   0.421655   0.001827
    13  H   -0.027488   0.004403   0.002910  -0.026319   0.415198  -0.000093
    14  H    0.415209  -0.026318   0.002909   0.004402  -0.027484  -0.000228
    15  H    0.421663  -0.032690  -0.001081   0.001294  -0.033764  -0.000036
              7          8          9         10         11         12
     1  C    0.003839  -0.024251  -0.027640   0.004585  -0.004757  -0.033760
     2  C   -0.049395   0.401445   0.399798   0.004151   0.006335   0.001295
     3  S    0.629683  -0.013270  -0.016735  -0.013268  -0.016732  -0.001081
     4  C   -0.049398   0.004151   0.006336   0.401450   0.399808  -0.032687
     5  C    0.000434   0.004586  -0.004756  -0.024247  -0.027646   0.421655
     6  O   -0.032270   0.001596   0.005919   0.004917   0.002189   0.001827
     7  O    8.054631   0.004919   0.002188   0.001595   0.005918  -0.000035
     8  H    0.004919   0.506285  -0.019320  -0.000178  -0.000199  -0.000013
     9  H    0.002188  -0.019320   0.518153  -0.000199  -0.000256   0.000702
    10  H    0.001595  -0.000178  -0.000199   0.506274  -0.019319  -0.005374
    11  H    0.005918  -0.000199  -0.000256  -0.019319   0.518150   0.004703
    12  H   -0.000035  -0.000013   0.000702  -0.005374   0.004703   0.554693
    13  H   -0.000228   0.000026   0.000063  -0.001699  -0.005617  -0.027639
    14  H   -0.000093  -0.001697  -0.005618   0.000026   0.000063  -0.005904
    15  H    0.001822  -0.005377   0.004702  -0.000013   0.000703   0.005502
             13         14         15
     1  C   -0.027488   0.415209   0.421663
     2  C    0.004403  -0.026318  -0.032690
     3  S    0.002910   0.002909  -0.001081
     4  C   -0.026319   0.004402   0.001294
     5  C    0.415198  -0.027484  -0.033764
     6  O   -0.000093  -0.000228  -0.000036
     7  O   -0.000228  -0.000093   0.001822
     8  H    0.000026  -0.001697  -0.005377
     9  H    0.000063  -0.005618   0.004702
    10  H   -0.001699   0.000026  -0.000013
    11  H   -0.005617   0.000063   0.000703
    12  H   -0.027639  -0.005904   0.005502
    13  H    0.549674  -0.001983  -0.005906
    14  H   -0.001983   0.549652  -0.027640
    15  H   -0.005906  -0.027640   0.554709
 Mulliken atomic charges:
              1
     1  C   -0.213181
     2  C   -0.207564
     3  S    0.951152
     4  C   -0.207564
     5  C   -0.213164
     6  O   -0.573618
     7  O   -0.573609
     8  H    0.141298
     9  H    0.136662
    10  H    0.141299
    11  H    0.136656
    12  H    0.116118
    13  H    0.124697
    14  H    0.124706
    15  H    0.116111
 Sum of Mulliken atomic charges =   0.00000
 Mulliken charges with hydrogens summed into heavy atoms:
              1
     1  C    0.027636
     2  C    0.070397
     3  S    0.951152
     4  C    0.070391
     5  C    0.027652
     6  O   -0.573618
     7  O   -0.573609
 Sum of Mulliken charges with hydrogens summed into heavy atoms =   0.00000
 Electronic spatial extent (au):  <R**2>=            797.7557
 Charge=              0.0000 electrons
 Dipole moment (field-independent basis, Debye):
    X=             -6.0198    Y=              0.0002    Z=             -0.0006  Tot=              6.0198
 Quadrupole moment (field-independent basis, Debye-Ang):
   XX=            -55.2111   YY=            -44.1860   ZZ=            -54.4857
   XY=             -0.0003   XZ=              0.0003   YZ=              2.9779
 Traceless Quadrupole moment (field-independent basis, Debye-Ang):
   XX=             -3.9168   YY=              7.1083   ZZ=             -3.1914
   XY=             -0.0003   XZ=              0.0003   YZ=              2.9779
 Octapole moment (field-independent basis, Debye-Ang**2):
  XXX=             -9.0877  YYY=             -0.0004  ZZZ=             -0.0027  XYY=              2.4311
  XXY=             -0.0006  XXZ=              0.0026  XZZ=             -9.9864  YZZ=              0.0013
  YYZ=             -0.0001  XYZ=              2.5188
 Hexadecapole moment (field-independent basis, Debye-Ang**3):
 XXXX=           -562.3394 YYYY=           -260.1855 ZZZZ=           -199.2009 XXXY=             -0.0016
 XXXZ=              0.0050 YYYX=             -0.0006 YYYZ=             -2.9667 ZZZX=             -0.0023
 ZZZY=              4.5546 XXYY=           -136.0692 XXZZ=           -139.5417 YYZZ=            -76.5215
 XXYZ=              6.5392 YYXZ=             -0.0004 ZZXY=              0.0002
 N-N= 4.241196259439D+02 E-N=-2.511118438161D+03  KE= 7.025689379486D+02
 1\1\GINC-ROCK\SP\RMP2-FC\CC-pVTZ\C4H8O2S1\STYLIANAKIS\15-Mar-2016\0\\#
  mp2/cc-pVTZ\\sulfolane_halfchair_single_point\\0,1\C\C,1,1.532831\S,2
 ,1.84392,1,105.154\C,3,1.8439,2,95.514,1,-13.298,0\C,4,1.532823,3,105.
 151,2,-13.322,0\O,3,1.476555,2,109.328,1,-126.466,0\O,3,1.476553,2,109
 .743,1,99.528,0\H,2,1.091091,3,107.304,6,110.804,0\H,2,1.092695,3,106.
 078,6,-7.027,0\H,4,1.091092,3,107.305,2,-136.052,0\H,4,1.092697,3,106.
 079,2,106.116,0\H,5,1.096091,4,109.975,3,-82.908,0\H,5,1.094126,4,110.
 847,3,158.39,0\H,1,1.094128,2,110.847,3,158.374,0\H,1,1.096091,2,109.9
 75,3,-82.925,0\\Version=EM64L-G09RevA.01\State=1-A\HF=-703.4621877\MP2
 =-704.8121679\RMSD=4.667e-09\PG=C01 [X(C4H8O2S1)]\\@


 MARY HAD A LITTLE LAMB
      HIS FEET WERE BLACK AS SOOT,
           AND EVERYWHERE THAT MARY WENT
                HIS SOOTY FOOT HE PUT.

                    -- NONAME
 Job cpu time:  0 days  1 hours 13 minutes 17.1 seconds.
 File lengths (MBytes):  RWF=     61 Int=      0 D2E=      0 Chk=      6 Scr=      1
 Normal termination of Gaussian 09 at Tue Mar 15 23:44:05 2016.
