 Entering Gaussian System, Link 0=g09
 Input=thiacyclohexane_ch.gjf
 Output=thiacyclohexane_ch.out
 Initial command:
 /usr/local/g09/l1.exe /home/scratch/stylianakis/Gau-5505.inp -scrdir=/home/scratch/stylianakis/
 Entering Link 1 = /usr/local/g09/l1.exe PID=      5506.
  
 Copyright (c) 1988,1990,1992,1993,1995,1998,2003,2009, Gaussian, Inc.
                  All Rights Reserved.
  
 This is part of the Gaussian(R) 09 program.  It is based on
 the Gaussian(R) 03 system (copyright 2003, Gaussian, Inc.),
 the Gaussian(R) 98 system (copyright 1998, Gaussian, Inc.),
 the Gaussian(R) 94 system (copyright 1995, Gaussian, Inc.),
 the Gaussian 92(TM) system (copyright 1992, Gaussian, Inc.),
 the Gaussian 90(TM) system (copyright 1990, Gaussian, Inc.),
 the Gaussian 88(TM) system (copyright 1988, Gaussian, Inc.),
 the Gaussian 86(TM) system (copyright 1986, Carnegie Mellon
 University), and the Gaussian 82(TM) system (copyright 1983,
 Carnegie Mellon University). Gaussian is a federally registered
 trademark of Gaussian, Inc.
  
 This software contains proprietary and confidential information,
 including trade secrets, belonging to Gaussian, Inc.
  
 This software is provided under written license and may be
 used, copied, transmitted, or stored only in accord with that
 written license.
  
 The following legend is applicable only to US Government
 contracts under FAR:
  
                    RESTRICTED RIGHTS LEGEND
  
 Use, reproduction and disclosure by the US Government is
 subject to restrictions as set forth in subparagraphs (a)
 and (c) of the Commercial Computer Software - Restricted
 Rights clause in FAR 52.227-19.
  
 Gaussian, Inc.
 340 Quinnipiac St., Bldg. 40, Wallingford CT 06492
  
  
 ---------------------------------------------------------------
 Warning -- This program may not be used in any manner that
 competes with the business of Gaussian, Inc. or will provide
 assistance to any competitor of Gaussian, Inc.  The licensee
 of this program is prohibited from giving any competitor of
 Gaussian, Inc. access to this program.  By using this program,
 the user acknowledges that Gaussian, Inc. is engaged in the
 business of creating and licensing software in the field of
 computational chemistry and represents and warrants to the
 licensee that it is not a competitor of Gaussian, Inc. and that
 it will not use this program in any manner prohibited above.
 ---------------------------------------------------------------
  

 Cite this work as:
 Gaussian 09, Revision A.01,
 M. J. Frisch, G. W. Trucks, H. B. Schlegel, G. E. Scuseria, 
 M. A. Robb, J. R. Cheeseman, G. Scalmani, V. Barone, B. Mennucci, 
 G. A. Petersson, H. Nakatsuji, M. Caricato, X. Li, H. P. Hratchian, 
 A. F. Izmaylov, J. Bloino, G. Zheng, J. L. Sonnenberg, M. Hada, 
 M. Ehara, K. Toyota, R. Fukuda, J. Hasegawa, M. Ishida, T. Nakajima, 
 Y. Honda, O. Kitao, H. Nakai, T. Vreven, J. A. Montgomery, Jr., 
 J. E. Peralta, F. Ogliaro, M. Bearpark, J. J. Heyd, E. Brothers, 
 K. N. Kudin, V. N. Staroverov, R. Kobayashi, J. Normand, 
 K. Raghavachari, A. Rendell, J. C. Burant, S. S. Iyengar, J. Tomasi, 
 M. Cossi, N. Rega, J. M. Millam, M. Klene, J. E. Knox, J. B. Cross, 
 V. Bakken, C. Adamo, J. Jaramillo, R. Gomperts, R. E. Stratmann, 
 O. Yazyev, A. J. Austin, R. Cammi, C. Pomelli, J. W. Ochterski, 
 R. L. Martin, K. Morokuma, V. G. Zakrzewski, G. A. Voth, 
 P. Salvador, J. J. Dannenberg, S. Dapprich, A. D. Daniels, 
 O. Farkas, J. B. Foresman, J. V. Ortiz, J. Cioslowski, 
 and D. J. Fox, Gaussian, Inc., Wallingford CT, 2009.
 
 ******************************************
 Gaussian 09:  EM64L-G09RevA.01  8-May-2009
                15-Mar-2016 
 ******************************************
 %mem=16000Mb
 %nproc=8
 Will use up to    8 processors via shared memory.
 -------------
 # mp2/cc-pVTZ
 -------------
 1/38=1/1;
 2/12=2,17=6,18=5,40=1/2;
 3/5=16,6=1,11=9,16=1,25=1,30=1/1,2,3;
 4//1;
 5/5=2,38=5/2;
 8/10=1/1;
 9/16=-3/6;
 6/7=2,8=2,9=2,10=2/1;
 99/5=1,9=1/99;
 -------------------------------
 thiacyclohexane_ch_single_point
 -------------------------------
 Symbolic Z-matrix:
 Charge =  0 Multiplicity = 1
 c
 c                    1    cc2
 c                    2    cc3      1    ccc3
 c                    3    cc4      2    ccc4     1    dih4     0
 s                    4    sc5      3    scc5     2    dih5     0
 c                    5    cs6      4    csc6     3    dih6     0
 h                    3    hc7      4    hcc7     5    dih7     0
 h                    3    hc8      4    hcc8     5    dih8     0
 h                    4    hc9      3    hcc9     2    dih9     0
 h                    4    hc10     3    hcc10    2    dih10    0
 h                    2    hc11     3    hcc11    4    dih11    0
 h                    2    hc12     3    hcc12    4    dih12    0
 h                    6    hc13     5    hcs13    4    dih13    0
 h                    1    hc14     2    hcc14    3    dih14    0
 h                    1    hc15     2    hcc15    3    dih15    0
 h                    6    hc16     5    hcs16    4    dih16    0
       Variables:
  cc2                   1.53798                  
  cc3                   1.53797                  
  ccc3                113.374                    
  cc4                   1.53207                  
  ccc4                112.942                    
  dih4                -59.054                    
  sc5                   1.83742                  
  scc5                112.913                    
  dih5                 60.127                    
  cs6                   1.83742                  
  csc6                 97.918                    
  dih6                -53.552                    
  hc7                   1.09739                  
  hcc7                109.054                    
  dih7                -62.027                    
  hc8                   1.09865                  
  hcc8                108.592                    
  dih8               -178.334                    
  hc9                   1.09726                  
  hcc9                110.603                    
  dih9                -62.169                    
  hc10                  1.09408                  
  hcc10               111.14                     
  dih10               178.491                    
  hc11                  1.09674                  
  hcc11               109.359                    
  dih11               178.629                    
  hc12                  1.10019                  
  hcc12               109.089                    
  dih12                62.719                    
  hc13                  1.09725                  
  hcs13               108.884                    
  dih13               -69.704                    
  hc14                  1.09865                  
  hcc14               109.407                    
  dih14              -179.871                    
  hc15                  1.09739                  
  hcc15               109.633                    
  dih15               -62.776                    
  hc16                  1.09408                  
  hcs16               105.529                    
  dih16               175.138                    
 
                          Input orientation:                          
 ---------------------------------------------------------------------
 Center     Atomic      Atomic             Coordinates (Angstroms)
 Number     Number       Type             X           Y           Z
 ---------------------------------------------------------------------
      1          6           0        0.000000    0.000000    0.000000
      2          6           0        0.000000    0.000000    1.537976
      3          6           0        1.411757    0.000000    2.148137
      4          6           0        2.247783   -1.210047    1.719087
      5         16           0        2.491951   -1.302200   -0.099704
      6          6           0        0.725567   -1.210058   -0.597212
      7          1           0        1.937813    0.919083    1.860364
      8          1           0        1.335762    0.002374    3.244156
      9          1           0        1.782225   -2.142371    2.062597
     10          1           0        3.253434   -1.166840    2.147817
     11          1           0       -0.553177    0.874452    1.901516
     12          1           0       -0.547467   -0.883883    1.897759
     13          1           0        0.225551   -2.142395   -0.306183
     14          1           0       -1.036226    0.002333   -0.365056
     15          1           0        0.472837    0.919093   -0.368716
     16          1           0        0.731037   -1.166797   -1.690423
 ---------------------------------------------------------------------
                    Distance matrix (angstroms):
                    1          2          3          4          5
     1  C    0.000000
     2  C    1.537976   0.000000
     3  C    2.570516   1.537971   0.000000
     4  C    3.077662   2.559208   1.532070   0.000000
     5  S    2.813447   3.253850   2.813420   1.837419   0.000000
     6  C    1.532107   2.559242   3.077668   2.771711   1.837421
     7  H    2.839153   2.168817   1.097389   2.156209   3.013807
     8  H    3.508392   2.166868   1.098653   2.151182   3.770953
     9  H    3.467043   2.835720   2.175849   1.097256   2.425931
    10  H    4.069333   3.509737   2.180204   1.094080   2.376874
    11  H    2.164817   1.096737   2.164822   3.496255   4.244467
    12  H    2.163899   1.100188   2.163908   2.819881   3.660998
    13  H    2.175885   2.835781   3.467078   3.010051   2.425928
    14  H    1.098652   2.166864   3.508386   4.074093   3.770975
    15  H    1.097387   2.168820   2.839164   3.470244   3.013857
    16  H    2.180220   3.509757   4.069317   3.731909   2.376876
                    6          7          8          9         10
     6  C    0.000000
     7  H    3.470226   0.000000
     8  H    4.074119   1.765701   0.000000
     9  H    3.010036   3.072069   2.489045   0.000000
    10  H    3.731912   2.482854   2.499297   1.767308   0.000000
    11  H    3.496285   2.491730   2.476146   3.818543   4.326411
    12  H    2.819909   3.070620   2.478869   2.653003   3.819613
    13  H    1.097254   4.122914   4.293892   2.834493   4.017698
    14  H    2.151210   3.825943   4.318882   4.293824   5.107121
    15  H    2.156240   2.667387   3.825946   4.122905   4.291361
    16  H    1.094080   4.291305   5.107125   4.017698   4.592883
                   11         12         13         14         15
    11  H    0.000000
    12  H    1.758348   0.000000
    13  H    3.818601   2.653068   0.000000
    14  H    2.476141   2.478830   2.489057   0.000000
    15  H    2.491716   3.070611   3.072096   1.765710   0.000000
    16  H    4.326422   3.819642   1.767323   2.499337   2.482844
                   16
    16  H    0.000000
 Stoichiometry    C5H10S
 Framework group  C1[X(C5H10S)]
 Deg. of freedom    42
 Full point group                 C1      NOp   1
 Largest Abelian subgroup         C1      NOp   1
 Largest concise Abelian subgroup C1      NOp   1
                         Standard orientation:                         
 ---------------------------------------------------------------------
 Center     Atomic      Atomic             Coordinates (Angstroms)
 Number     Number       Type             X           Y           Z
 ---------------------------------------------------------------------
      1          6           0        0.992174    1.285260   -0.255287
      2          6           0        1.723883   -0.000009    0.166678
      3          6           0        0.992149   -1.285256   -0.255294
      4          6           0       -0.421704   -1.385849    0.326204
      5         16           0       -1.509813   -0.000004   -0.194911
      6          6           0       -0.421724    1.385862    0.326197
      7          1           0        0.933546   -1.333682   -1.350046
      8          1           0        1.569794   -2.159450    0.075084
      9          1           0       -0.386995   -1.417228    1.422462
     10          1           0       -0.924175   -2.296442   -0.013435
     11          1           0        2.734152   -0.000011   -0.260158
     12          1           0        1.849831   -0.000003    1.259633
     13          1           0       -0.387044    1.417265    1.422453
     14          1           0        1.569824    2.159432    0.075136
     15          1           0        0.933594    1.333705   -1.350038
     16          1           0       -0.924180    2.296441   -0.013500
 ---------------------------------------------------------------------
 Rotational constants (GHZ):      3.9339681      2.9591460      1.8778572
 Standard basis: CC-pVTZ (5D, 7F)
 There are   324 symmetry adapted basis functions of A   symmetry.
 Integral buffers will be    131072 words long.
 Raffenetti 1 integral format.
 Two-electron integral symmetry is turned on.
   324 basis functions,   524 primitive gaussians,   364 cartesian basis functions
    28 alpha electrons       28 beta electrons
       nuclear repulsion energy       309.9450583998 Hartrees.
 NAtoms=   16 NActive=   16 NUniq=   16 SFac= 7.50D-01 NAtFMM=   80 NAOKFM=F Big=F
 One-electron integrals computed using PRISM.
 NBasis=   324 RedAO= T  NBF=   324
 NBsUse=   324 1.00D-06 NBFU=   324
 Harris functional with IExCor=  205 diagonalized for initial guess.
 ExpMin= 1.03D-01 ExpMax= 3.74D+05 ExpMxC= 1.18D+03 IAcc=2 IRadAn=         0 AccDes= 0.00D+00
 HarFok:  IExCor=  205 AccDes= 0.00D+00 IRadAn=         0 IDoV= 1
 ScaDFX=  1.000000  1.000000  1.000000  1.000000
 FoFCou: FMM=F IPFlag=           0 FMFlag=      100000 FMFlg1=           0
         NFxFlg=           0 DoJE=T BraDBF=F KetDBF=T FulRan=T
         Omega=  0.000000  0.000000  1.000000  0.000000  0.000000 ICntrl=     500 IOpCl=  0
         NMat0=    1 NMatS0=    1 NMatT0=    0 NMatD0=    1 NMtDS0=    0 NMtDT0=    0
         I1Cent=           4 NGrid=           0.
 Petite list used in FoFCou.
 Initial guess orbital symmetries:
       Occupied  (A) (A) (A) (A) (A) (A) (A) (A) (A) (A) (A) (A)
                 (A) (A) (A) (A) (A) (A) (A) (A) (A) (A) (A) (A)
                 (A) (A) (A) (A)
       Virtual   (A) (A) (A) (A) (A) (A) (A) (A) (A) (A) (A) (A)
                 (A) (A) (A) (A) (A) (A) (A) (A) (A) (A) (A) (A)
                 (A) (A) (A) (A) (A) (A) (A) (A) (A) (A) (A) (A)
                 (A) (A) (A) (A) (A) (A) (A) (A) (A) (A) (A) (A)
                 (A) (A) (A) (A) (A) (A) (A) (A) (A) (A) (A) (A)
                 (A) (A) (A) (A) (A) (A) (A) (A) (A) (A) (A) (A)
                 (A) (A) (A) (A) (A) (A) (A) (A) (A) (A) (A) (A)
                 (A) (A) (A) (A) (A) (A) (A) (A) (A) (A) (A) (A)
                 (A) (A) (A) (A) (A) (A) (A) (A) (A) (A) (A) (A)
                 (A) (A) (A) (A) (A) (A) (A) (A) (A) (A) (A) (A)
                 (A) (A) (A) (A) (A) (A) (A) (A) (A) (A) (A) (A)
                 (A) (A) (A) (A) (A) (A) (A) (A) (A) (A) (A) (A)
                 (A) (A) (A) (A) (A) (A) (A) (A) (A) (A) (A) (A)
                 (A) (A) (A) (A) (A) (A) (A) (A) (A) (A) (A) (A)
                 (A) (A) (A) (A) (A) (A) (A) (A) (A) (A) (A) (A)
                 (A) (A) (A) (A) (A) (A) (A) (A) (A) (A) (A) (A)
                 (A) (A) (A) (A) (A) (A) (A) (A) (A) (A) (A) (A)
                 (A) (A) (A) (A) (A) (A) (A) (A) (A) (A) (A) (A)
                 (A) (A) (A) (A) (A) (A) (A) (A) (A) (A) (A) (A)
                 (A) (A) (A) (A) (A) (A) (A) (A) (A) (A) (A) (A)
                 (A) (A) (A) (A) (A) (A) (A) (A) (A) (A) (A) (A)
                 (A) (A) (A) (A) (A) (A) (A) (A) (A) (A) (A) (A)
                 (A) (A) (A) (A) (A) (A) (A) (A) (A) (A) (A) (A)
                 (A) (A) (A) (A) (A) (A) (A) (A) (A) (A) (A) (A)
                 (A) (A) (A) (A) (A) (A) (A) (A)
 The electronic state of the initial guess is 1-A.
 Requested convergence on RMS density matrix=1.00D-08 within 128 cycles.
 Requested convergence on MAX density matrix=1.00D-06.
 Requested convergence on             energy=1.00D-06.
 No special actions if energy rises.
 Integral accuracy reduced to 1.0D-05 until final iterations.
 Initial convergence to 1.0D-05 achieved.  Increase integral accuracy.
 SCF Done:  E(RHF) =  -592.781203523     A.U. after   12 cycles
             Convg  =    0.3594D-08             -V/T =  2.0007
 ExpMin= 1.03D-01 ExpMax= 3.74D+05 ExpMxC= 1.18D+03 IAcc=3 IRadAn=         5 AccDes= 0.00D+00
 HarFok:  IExCor=  205 AccDes= 0.00D+00 IRadAn=         5 IDoV=-2
 ScaDFX=  1.000000  1.000000  1.000000  1.000000
 Range of M.O.s used for correlation:    11   324
 NBasis=   324 NAE=    28 NBE=    28 NFC=    10 NFV=     0
 NROrb=    314 NOA=    18 NOB=    18 NVA=   296 NVB=   296

 **** Warning!!: The largest alpha MO coefficient is  0.10301247D+02

 Fully direct method using O(OVN) memory.
 JobTyp=1 Pass  1:  I=   1 to  18 NPSUse=  8 ParTrn=T ParDer=T DoDerP=F.
 Spin components of T(2) and E(2):
     alpha-alpha T2 =       0.4348524361D-01 E2=     -0.1197435730D+00
     alpha-beta  T2 =       0.2603457443D+00 E2=     -0.8004481638D+00
     beta-beta   T2 =       0.4348524361D-01 E2=     -0.1197435730D+00
 ANorm=    0.1160739519D+01
 E2 =    -0.1039935310D+01 EUMP2 =    -0.59382113883308D+03

 **********************************************************************

            Population analysis using the SCF density.

 **********************************************************************

 Orbital symmetries:
       Occupied  (A) (A) (A) (A) (A) (A) (A) (A) (A) (A) (A) (A)
                 (A) (A) (A) (A) (A) (A) (A) (A) (A) (A) (A) (A)
                 (A) (A) (A) (A)
       Virtual   (A) (A) (A) (A) (A) (A) (A) (A) (A) (A) (A) (A)
                 (A) (A) (A) (A) (A) (A) (A) (A) (A) (A) (A) (A)
                 (A) (A) (A) (A) (A) (A) (A) (A) (A) (A) (A) (A)
                 (A) (A) (A) (A) (A) (A) (A) (A) (A) (A) (A) (A)
                 (A) (A) (A) (A) (A) (A) (A) (A) (A) (A) (A) (A)
                 (A) (A) (A) (A) (A) (A) (A) (A) (A) (A) (A) (A)
                 (A) (A) (A) (A) (A) (A) (A) (A) (A) (A) (A) (A)
                 (A) (A) (A) (A) (A) (A) (A) (A) (A) (A) (A) (A)
                 (A) (A) (A) (A) (A) (A) (A) (A) (A) (A) (A) (A)
                 (A) (A) (A) (A) (A) (A) (A) (A) (A) (A) (A) (A)
                 (A) (A) (A) (A) (A) (A) (A) (A) (A) (A) (A) (A)
                 (A) (A) (A) (A) (A) (A) (A) (A) (A) (A) (A) (A)
                 (A) (A) (A) (A) (A) (A) (A) (A) (A) (A) (A) (A)
                 (A) (A) (A) (A) (A) (A) (A) (A) (A) (A) (A) (A)
                 (A) (A) (A) (A) (A) (A) (A) (A) (A) (A) (A) (A)
                 (A) (A) (A) (A) (A) (A) (A) (A) (A) (A) (A) (A)
                 (A) (A) (A) (A) (A) (A) (A) (A) (A) (A) (A) (A)
                 (A) (A) (A) (A) (A) (A) (A) (A) (A) (A) (A) (A)
                 (A) (A) (A) (A) (A) (A) (A) (A) (A) (A) (A) (A)
                 (A) (A) (A) (A) (A) (A) (A) (A) (A) (A) (A) (A)
                 (A) (A) (A) (A) (A) (A) (A) (A) (A) (A) (A) (A)
                 (A) (A) (A) (A) (A) (A) (A) (A) (A) (A) (A) (A)
                 (A) (A) (A) (A) (A) (A) (A) (A) (A) (A) (A) (A)
                 (A) (A) (A) (A) (A) (A) (A) (A) (A) (A) (A) (A)
                 (A) (A) (A) (A) (A) (A) (A) (A)
 The electronic state is 1-A.
 Alpha  occ. eigenvalues --  -91.93491 -11.25339 -11.25339 -11.22859 -11.22850
 Alpha  occ. eigenvalues --  -11.22662  -8.93583  -6.61702  -6.61611  -6.61523
 Alpha  occ. eigenvalues --   -1.11206  -1.01688  -1.00093  -0.84079  -0.83547
 Alpha  occ. eigenvalues --   -0.75295  -0.64280  -0.61288  -0.60976  -0.57659
 Alpha  occ. eigenvalues --   -0.54528  -0.52380  -0.49792  -0.49406  -0.47249
 Alpha  occ. eigenvalues --   -0.43449  -0.41160  -0.33081
 Alpha virt. eigenvalues --    0.13671   0.15164   0.15951   0.17715   0.17988
 Alpha virt. eigenvalues --    0.20422   0.20810   0.21720   0.23218   0.23430
 Alpha virt. eigenvalues --    0.24490   0.26421   0.28294   0.33513   0.35784
 Alpha virt. eigenvalues --    0.38058   0.39427   0.40373   0.40671   0.40970
 Alpha virt. eigenvalues --    0.43258   0.43441   0.45056   0.46512   0.48397
 Alpha virt. eigenvalues --    0.49987   0.52630   0.55262   0.55539   0.58484
 Alpha virt. eigenvalues --    0.58837   0.58881   0.59776   0.60841   0.62854
 Alpha virt. eigenvalues --    0.62890   0.64325   0.65190   0.65267   0.66835
 Alpha virt. eigenvalues --    0.67356   0.69120   0.69279   0.70432   0.71008
 Alpha virt. eigenvalues --    0.73044   0.80274   0.81655   0.83943   0.85770
 Alpha virt. eigenvalues --    0.91146   0.91831   0.92806   0.94890   0.97737
 Alpha virt. eigenvalues --    0.98530   1.00778   1.00910   1.05929   1.09500
 Alpha virt. eigenvalues --    1.10393   1.12553   1.15866   1.16891   1.20328
 Alpha virt. eigenvalues --    1.20391   1.20982   1.23835   1.24488   1.26590
 Alpha virt. eigenvalues --    1.26773   1.27281   1.29478   1.29915   1.30121
 Alpha virt. eigenvalues --    1.32995   1.33641   1.33737   1.36245   1.38714
 Alpha virt. eigenvalues --    1.39050   1.40361   1.44357   1.44830   1.47531
 Alpha virt. eigenvalues --    1.48505   1.48543   1.49910   1.51299   1.52014
 Alpha virt. eigenvalues --    1.55307   1.55916   1.58142   1.60004   1.61060
 Alpha virt. eigenvalues --    1.62345   1.65039   1.66731   1.68513   1.71744
 Alpha virt. eigenvalues --    1.71952   1.72936   1.77400   1.78279   1.81574
 Alpha virt. eigenvalues --    1.85176   1.86425   1.88068   1.93041   1.94599
 Alpha virt. eigenvalues --    1.98971   2.01203   2.05308   2.07703   2.08150
 Alpha virt. eigenvalues --    2.18621   2.21400   2.23483   2.23960   2.34226
 Alpha virt. eigenvalues --    2.42529   2.42831   2.47006   2.58037   2.58374
 Alpha virt. eigenvalues --    2.61928   2.62684   2.67604   2.72432   2.73057
 Alpha virt. eigenvalues --    2.76001   2.77098   2.79398   2.80093   2.81957
 Alpha virt. eigenvalues --    2.82466   2.87034   2.89438   2.91759   2.93331
 Alpha virt. eigenvalues --    2.95195   2.96831   2.97043   2.97402   3.00455
 Alpha virt. eigenvalues --    3.01035   3.01488   3.06371   3.07147   3.12024
 Alpha virt. eigenvalues --    3.15471   3.17698   3.20936   3.22466   3.23290
 Alpha virt. eigenvalues --    3.24983   3.29127   3.30280   3.32302   3.35045
 Alpha virt. eigenvalues --    3.36310   3.38196   3.39721   3.41725   3.42768
 Alpha virt. eigenvalues --    3.43737   3.44706   3.45714   3.46224   3.47944
 Alpha virt. eigenvalues --    3.48385   3.49661   3.51329   3.52880   3.53497
 Alpha virt. eigenvalues --    3.54873   3.56550   3.57488   3.58845   3.61075
 Alpha virt. eigenvalues --    3.66364   3.66441   3.69440   3.69779   3.71747
 Alpha virt. eigenvalues --    3.75259   3.75502   3.77837   3.78863   3.80469
 Alpha virt. eigenvalues --    3.83744   3.85220   3.89932   3.89977   3.90793
 Alpha virt. eigenvalues --    3.93433   3.94305   3.97718   3.99368   4.01428
 Alpha virt. eigenvalues --    4.03285   4.03785   4.04075   4.06532   4.07334
 Alpha virt. eigenvalues --    4.09916   4.10368   4.10771   4.14074   4.17946
 Alpha virt. eigenvalues --    4.18251   4.20718   4.22056   4.26039   4.26921
 Alpha virt. eigenvalues --    4.27389   4.30009   4.31196   4.31889   4.32326
 Alpha virt. eigenvalues --    4.34330   4.34761   4.37845   4.38178   4.41829
 Alpha virt. eigenvalues --    4.44667   4.45463   4.47508   4.48462   4.49158
 Alpha virt. eigenvalues --    4.50478   4.51992   4.55684   4.56712   4.56783
 Alpha virt. eigenvalues --    4.59397   4.63092   4.63828   4.65104   4.68774
 Alpha virt. eigenvalues --    4.70517   4.75592   4.77579   4.78788   4.83915
 Alpha virt. eigenvalues --    4.83980   4.92642   4.94915   4.96872   4.98812
 Alpha virt. eigenvalues --    5.03801   5.09115   5.09789   5.12780   5.18509
 Alpha virt. eigenvalues --    5.19537   5.22705   5.22782   5.26880   5.28886
 Alpha virt. eigenvalues --    5.30611   5.30642   5.33325   5.35207   5.38698
 Alpha virt. eigenvalues --    5.40909   5.42686   5.47566   5.55998   5.56910
 Alpha virt. eigenvalues --    5.58461   5.59949   5.65659   5.69639   5.71893
 Alpha virt. eigenvalues --    5.72702   5.75684   5.76814   5.78627   5.82523
 Alpha virt. eigenvalues --    5.84738   5.87168   5.87779   5.94863   6.06167
 Alpha virt. eigenvalues --    6.09426   6.31480   6.35813   6.37381   6.43375
 Alpha virt. eigenvalues --    6.43425  12.26338  12.53989  12.96281  13.38727
 Alpha virt. eigenvalues --   13.47067
          Condensed to atoms (all electrons):
              1          2          3          4          5          6
     1  C    4.900208   0.341061  -0.030958  -0.005716  -0.063021   0.336758
     2  C    0.341061   4.876788   0.341063  -0.035330   0.002781  -0.035330
     3  C   -0.030958   0.341063   4.900207   0.336754  -0.063024  -0.005715
     4  C   -0.005716  -0.035330   0.336754   4.831503   0.295913  -0.032226
     5  S   -0.063021   0.002781  -0.063024   0.295913  15.821704   0.295910
     6  C    0.336758  -0.035330  -0.005715  -0.032226   0.295910   4.831502
     7  H   -0.002640  -0.034194   0.415228  -0.036445   0.003697  -0.000297
     8  H    0.005875  -0.039648   0.428255  -0.035487   0.006988  -0.000826
     9  H    0.000936  -0.005019  -0.041912   0.424741  -0.043646  -0.001422
    10  H   -0.000870   0.005719  -0.032912   0.426885  -0.029886   0.003487
    11  H   -0.035759   0.434875  -0.035758   0.005774  -0.001035   0.005774
    12  H   -0.039652   0.422712  -0.039651  -0.002046  -0.000053  -0.002046
    13  H   -0.041909  -0.005017   0.000936  -0.001422  -0.043646   0.424741
    14  H    0.428255  -0.039648   0.005875  -0.000826   0.006987  -0.035485
    15  H    0.415227  -0.034194  -0.002640  -0.000297   0.003698  -0.036443
    16  H   -0.032910   0.005718  -0.000870   0.003487  -0.029886   0.426883
              7          8          9         10         11         12
     1  C   -0.002640   0.005875   0.000936  -0.000870  -0.035759  -0.039652
     2  C   -0.034194  -0.039648  -0.005019   0.005719   0.434875   0.422712
     3  C    0.415228   0.428255  -0.041912  -0.032912  -0.035758  -0.039651
     4  C   -0.036445  -0.035487   0.424741   0.426885   0.005774  -0.002046
     5  S    0.003697   0.006988  -0.043646  -0.029886  -0.001035  -0.000053
     6  C   -0.000297  -0.000826  -0.001422   0.003487   0.005774  -0.002046
     7  H    0.578473  -0.029435   0.007082  -0.004108  -0.004626   0.006659
     8  H   -0.029435   0.575548  -0.002612  -0.006253  -0.005377  -0.004730
     9  H    0.007082  -0.002612   0.579476  -0.028722  -0.000140   0.002383
    10  H   -0.004108  -0.006253  -0.028722   0.546068  -0.000234  -0.000093
    11  H   -0.004626  -0.005377  -0.000140  -0.000234   0.566634  -0.030609
    12  H    0.006659  -0.004730   0.002383  -0.000093  -0.030609   0.593373
    13  H    0.000272  -0.000026   0.003067  -0.000086  -0.000140   0.002383
    14  H   -0.000052  -0.000212  -0.000026   0.000072  -0.005377  -0.004730
    15  H    0.002355  -0.000052   0.000272  -0.000096  -0.004627   0.006659
    16  H   -0.000096   0.000072  -0.000086  -0.000151  -0.000234  -0.000093
             13         14         15         16
     1  C   -0.041909   0.428255   0.415227  -0.032910
     2  C   -0.005017  -0.039648  -0.034194   0.005718
     3  C    0.000936   0.005875  -0.002640  -0.000870
     4  C   -0.001422  -0.000826  -0.000297   0.003487
     5  S   -0.043646   0.006987   0.003698  -0.029886
     6  C    0.424741  -0.035485  -0.036443   0.426883
     7  H    0.000272  -0.000052   0.002355  -0.000096
     8  H   -0.000026  -0.000212  -0.000052   0.000072
     9  H    0.003067  -0.000026   0.000272  -0.000086
    10  H   -0.000086   0.000072  -0.000096  -0.000151
    11  H   -0.000140  -0.005377  -0.004627  -0.000234
    12  H    0.002383  -0.004730   0.006659  -0.000093
    13  H    0.579467  -0.002611   0.007081  -0.028721
    14  H   -0.002611   0.575544  -0.029434  -0.006252
    15  H    0.007081  -0.029434   0.578468  -0.004108
    16  H   -0.028721  -0.006252  -0.004108   0.546067
 Mulliken atomic charges:
              1
     1  C   -0.174887
     2  C   -0.202338
     3  C   -0.174878
     4  C   -0.175261
     5  S   -0.163481
     6  C   -0.175264
     7  H    0.098125
     8  H    0.107920
     9  H    0.105628
    10  H    0.121182
    11  H    0.110858
    12  H    0.089534
    13  H    0.105633
    14  H    0.107921
    15  H    0.098128
    16  H    0.121181
 Sum of Mulliken atomic charges =   0.00000
 Mulliken charges with hydrogens summed into heavy atoms:
              1
     1  C    0.031162
     2  C   -0.001946
     3  C    0.031167
     4  C    0.051548
     5  S   -0.163481
     6  C    0.051550
 Sum of Mulliken charges with hydrogens summed into heavy atoms =   0.00000
 Electronic spatial extent (au):  <R**2>=            712.0745
 Charge=              0.0000 electrons
 Dipole moment (field-independent basis, Debye):
    X=              1.8868    Y=              0.0000    Z=              0.6503  Tot=              1.9957
 Quadrupole moment (field-independent basis, Debye-Ang):
   XX=            -50.2056   YY=            -42.5707   ZZ=            -46.8273
   XY=              0.0000   XZ=             -0.3888   YZ=              0.0000
 Traceless Quadrupole moment (field-independent basis, Debye-Ang):
   XX=             -3.6711   YY=              3.9638   ZZ=             -0.2927
   XY=              0.0000   XZ=             -0.3888   YZ=              0.0000
 Octapole moment (field-independent basis, Debye-Ang**2):
  XXX=              8.9347  YYY=             -0.0003  ZZZ=              2.6268  XYY=             -4.3432
  XXY=              0.0001  XXZ=             -1.3242  XZZ=              2.1052  YZZ=              0.0001
  YYZ=             -0.2810  XYZ=              0.0001
 Hexadecapole moment (field-independent basis, Debye-Ang**3):
 XXXX=           -509.8456 YYYY=           -382.9025 ZZZZ=           -108.8243 XXXY=              0.0001
 XXXZ=              1.4754 YYYX=              0.0000 YYYZ=             -0.0003 ZZZX=             -3.1929
 ZZZY=              0.0001 XXYY=           -140.3603 XXZZ=           -104.8832 YYZZ=            -85.0502
 XXYZ=              0.0000 YYXZ=              3.3522 ZZXY=              0.0000
 N-N= 3.099450583998D+02 E-N=-2.020578877512D+03  KE= 5.923686195100D+02
 1\1\GINC-ROCK\SP\RMP2-FC\CC-pVTZ\C5H10S1\STYLIANAKIS\15-Mar-2016\0\\# 
 mp2/cc-pVTZ\\thiacyclohexane_ch_single_point\\0,1\C\C,1,1.537976\C,2,1
 .537971,1,113.374\C,3,1.53207,2,112.942,1,-59.054,0\S,4,1.837419,3,112
 .913,2,60.127,0\C,5,1.837421,4,97.918,3,-53.552,0\H,3,1.097389,4,109.0
 54,5,-62.027,0\H,3,1.098653,4,108.592,5,-178.334,0\H,4,1.097256,3,110.
 603,2,-62.169,0\H,4,1.09408,3,111.14,2,178.491,0\H,2,1.096737,3,109.35
 9,4,178.629,0\H,2,1.100188,3,109.089,4,62.719,0\H,6,1.097254,5,108.884
 ,4,-69.704,0\H,1,1.098652,2,109.407,3,-179.871,0\H,1,1.097387,2,109.63
 3,3,-62.776,0\H,6,1.09408,5,105.529,4,175.138,0\\Version=EM64L-G09RevA
 .01\State=1-A\HF=-592.7812035\MP2=-593.8211388\RMSD=3.594e-09\PG=C01 [
 X(C5H10S1)]\\@


 We're simply so accustomed to the marvels of everyday thought
 that we never wonder about it.
 -- Marvin Minsky in "Why people think computers are smart"
 Job cpu time:  0 days  1 hours  5 minutes 20.6 seconds.
 File lengths (MBytes):  RWF=     61 Int=      0 D2E=      0 Chk=      6 Scr=      1
 Normal termination of Gaussian 09 at Tue Mar 15 23:52:17 2016.
