 Entering Gaussian System, Link 0=g09
 Input=2-1-Ad-N-Meax-pip-trans.gjf
 Output=2-1-Ad-N-Meax-pip-trans.out
 Initial command:
 /usr/local/g09/l1.exe /home/scratch/stylianakis/Gau-4325.inp -scrdir=/home/scratch/stylianakis/
 Entering Link 1 = /usr/local/g09/l1.exe PID=      4326.
  
 Copyright (c) 1988,1990,1992,1993,1995,1998,2003,2009, Gaussian, Inc.
                  All Rights Reserved.
  
 This is part of the Gaussian(R) 09 program.  It is based on
 the Gaussian(R) 03 system (copyright 2003, Gaussian, Inc.),
 the Gaussian(R) 98 system (copyright 1998, Gaussian, Inc.),
 the Gaussian(R) 94 system (copyright 1995, Gaussian, Inc.),
 the Gaussian 92(TM) system (copyright 1992, Gaussian, Inc.),
 the Gaussian 90(TM) system (copyright 1990, Gaussian, Inc.),
 the Gaussian 88(TM) system (copyright 1988, Gaussian, Inc.),
 the Gaussian 86(TM) system (copyright 1986, Carnegie Mellon
 University), and the Gaussian 82(TM) system (copyright 1983,
 Carnegie Mellon University). Gaussian is a federally registered
 trademark of Gaussian, Inc.
  
 This software contains proprietary and confidential information,
 including trade secrets, belonging to Gaussian, Inc.
  
 This software is provided under written license and may be
 used, copied, transmitted, or stored only in accord with that
 written license.
  
 The following legend is applicable only to US Government
 contracts under FAR:
  
                    RESTRICTED RIGHTS LEGEND
  
 Use, reproduction and disclosure by the US Government is
 subject to restrictions as set forth in subparagraphs (a)
 and (c) of the Commercial Computer Software - Restricted
 Rights clause in FAR 52.227-19.
  
 Gaussian, Inc.
 340 Quinnipiac St., Bldg. 40, Wallingford CT 06492
  
  
 ---------------------------------------------------------------
 Warning -- This program may not be used in any manner that
 competes with the business of Gaussian, Inc. or will provide
 assistance to any competitor of Gaussian, Inc.  The licensee
 of this program is prohibited from giving any competitor of
 Gaussian, Inc. access to this program.  By using this program,
 the user acknowledges that Gaussian, Inc. is engaged in the
 business of creating and licensing software in the field of
 computational chemistry and represents and warrants to the
 licensee that it is not a competitor of Gaussian, Inc. and that
 it will not use this program in any manner prohibited above.
 ---------------------------------------------------------------
  

 Cite this work as:
 Gaussian 09, Revision A.01,
 M. J. Frisch, G. W. Trucks, H. B. Schlegel, G. E. Scuseria, 
 M. A. Robb, J. R. Cheeseman, G. Scalmani, V. Barone, B. Mennucci, 
 G. A. Petersson, H. Nakatsuji, M. Caricato, X. Li, H. P. Hratchian, 
 A. F. Izmaylov, J. Bloino, G. Zheng, J. L. Sonnenberg, M. Hada, 
 M. Ehara, K. Toyota, R. Fukuda, J. Hasegawa, M. Ishida, T. Nakajima, 
 Y. Honda, O. Kitao, H. Nakai, T. Vreven, J. A. Montgomery, Jr., 
 J. E. Peralta, F. Ogliaro, M. Bearpark, J. J. Heyd, E. Brothers, 
 K. N. Kudin, V. N. Staroverov, R. Kobayashi, J. Normand, 
 K. Raghavachari, A. Rendell, J. C. Burant, S. S. Iyengar, J. Tomasi, 
 M. Cossi, N. Rega, J. M. Millam, M. Klene, J. E. Knox, J. B. Cross, 
 V. Bakken, C. Adamo, J. Jaramillo, R. Gomperts, R. E. Stratmann, 
 O. Yazyev, A. J. Austin, R. Cammi, C. Pomelli, J. W. Ochterski, 
 R. L. Martin, K. Morokuma, V. G. Zakrzewski, G. A. Voth, 
 P. Salvador, J. J. Dannenberg, S. Dapprich, A. D. Daniels, 
 O. Farkas, J. B. Foresman, J. V. Ortiz, J. Cioslowski, 
 and D. J. Fox, Gaussian, Inc., Wallingford CT, 2009.
 
 ******************************************
 Gaussian 09:  EM64L-G09RevA.01  8-May-2009
                26-Mar-2016 
 ******************************************
 %mem=16000Mb
 %nproc=8
 Will use up to    8 processors via shared memory.
 -----------------------
 # opt b3lyp/6-31+g(d,p)
 -----------------------
 1/14=-1,18=20,19=15,26=3,38=1/1,3;
 2/9=110,12=2,17=6,18=5,40=1/2;
 3/5=1,6=6,7=111,11=2,16=1,25=1,30=1,71=1,74=-5/1,2,3;
 4//1;
 5/5=2,38=5/2;
 6/7=2,8=2,9=2,10=2,28=1/1;
 7//1,2,3,16;
 1/14=-1,18=20,19=15/3(2);
 2/9=110/2;
 99//99;
 2/9=110/2;
 3/5=1,6=6,7=111,11=2,16=1,25=1,30=1,71=1,74=-5/1,2,3;
 4/5=5,16=3/1;
 5/5=2,38=5/2;
 7//1,2,3,16;
 1/14=-1,18=20,19=15/3(-5);
 2/9=110/2;
 6/7=2,8=2,9=2,10=2,19=2,28=1/1;
 99/9=1/99;
 ------------------------
 2-(1-Ad)N-Meax-pip-trans
 ------------------------
 Symbolic Z-matrix:
 Charge =  0 Multiplicity = 1
 C                    -2.47526   0.21861  -1.27593 
 C                    -2.63526   1.73761  -1.11993 
 C                    -1.24326   2.38561  -1.12993 
 C                    -1.63726  -0.33339  -0.10993 
 C                    -0.40026   1.81461   0.02407 
 C                    -0.21326   0.27361  -0.09493 
 C                    -1.76926  -0.09839  -2.60393 
 C                     0.46874   0.02961  -1.45993 
 C                    -0.38626   0.57261  -2.61893 
 C                    -0.54826   2.09261  -2.46793 
 C                     0.59474  -0.25239   1.13807 
 C                     2.09274   0.12561   1.12507 
 C                     2.75774  -0.18039   2.47407 
 C                     2.49774  -1.63639   2.87707 
 N                     0.39574  -1.66339   1.50007 
 C                     0.99274  -1.93539   2.80707 
 H                    -3.48626  -0.26039  -1.26893 
 H                    -3.16526   1.97461  -0.16693 
 H                    -3.26126   2.14861  -1.94793 
 H                    -1.35126   3.49161  -1.00493 
 H                    -1.60326  -1.44039  -0.20893 
 H                    -2.15226  -0.12139   0.85707 
 H                    -0.89826   2.07561   0.98807 
 H                     0.58374   2.33561   0.02907 
 H                    -2.38326   0.26861  -3.46093 
 H                    -1.66326  -1.20139  -2.73193 
 H                     0.65574  -1.04939  -1.64293 
 H                     1.46574   0.52661  -1.49293 
 H                     0.12074   0.35261  -3.59193 
 H                    -1.14626   2.50561  -3.31393 
 H                     0.44874   2.59361  -2.50293 
 H                     0.15474   0.32161   1.98807 
 H                     2.23174   1.21061   0.91507 
 H                     2.63574  -0.41739   0.31807 
 H                     2.33774   0.49761   3.25507 
 H                     3.85574   0.01761   2.42507 
 H                     2.87574  -1.81639   3.91207 
 H                     3.06674  -2.32339   2.20807 
 H                     0.80174  -2.99439   3.10407 
 H                     0.46774  -1.32639   3.58107 
 C                     0.85974  -2.63639   0.52007 
 H                     0.76574  -3.67239   0.92007 
 H                     0.21974  -2.63639  -0.38593 
 H                     1.91774  -2.48339   0.21507 
 

 GradGradGradGradGradGradGradGradGradGradGradGradGradGradGradGradGradGrad
 Berny optimization.
 Initialization pass.
                           ----------------------------
                           !    Initial Parameters    !
                           ! (Angstroms and Degrees)  !
 --------------------------                            --------------------------
 ! Name  Definition              Value          Derivative Info.                !
 --------------------------------------------------------------------------------
 ! R1    R(1,2)                  1.5353         estimate D2E/DX2                !
 ! R2    R(1,4)                  1.5383         estimate D2E/DX2                !
 ! R3    R(1,7)                  1.537          estimate D2E/DX2                !
 ! R4    R(1,17)                 1.1188         estimate D2E/DX2                !
 ! R5    R(2,3)                  1.5355         estimate D2E/DX2                !
 ! R6    R(2,18)                 1.1159         estimate D2E/DX2                !
 ! R7    R(2,19)                 1.1164         estimate D2E/DX2                !
 ! R8    R(3,5)                  1.539          estimate D2E/DX2                !
 ! R9    R(3,10)                 1.5359         estimate D2E/DX2                !
 ! R10   R(3,20)                 1.1183         estimate D2E/DX2                !
 ! R11   R(4,6)                  1.548          estimate D2E/DX2                !
 ! R12   R(4,21)                 1.1119         estimate D2E/DX2                !
 ! R13   R(4,22)                 1.1159         estimate D2E/DX2                !
 ! R14   R(5,6)                  1.5569         estimate D2E/DX2                !
 ! R15   R(5,23)                 1.116          estimate D2E/DX2                !
 ! R16   R(5,24)                 1.1134         estimate D2E/DX2                !
 ! R17   R(6,8)                  1.5453         estimate D2E/DX2                !
 ! R18   R(6,11)                 1.5652         estimate D2E/DX2                !
 ! R19   R(7,9)                  1.5373         estimate D2E/DX2                !
 ! R20   R(7,25)                 1.1163         estimate D2E/DX2                !
 ! R21   R(7,26)                 1.1155         estimate D2E/DX2                !
 ! R22   R(8,9)                  1.5392         estimate D2E/DX2                !
 ! R23   R(8,27)                 1.1103         estimate D2E/DX2                !
 ! R24   R(8,28)                 1.1145         estimate D2E/DX2                !
 ! R25   R(9,10)                 1.536          estimate D2E/DX2                !
 ! R26   R(9,29)                 1.119          estimate D2E/DX2                !
 ! R27   R(10,30)                1.1153         estimate D2E/DX2                !
 ! R28   R(10,31)                1.1163         estimate D2E/DX2                !
 ! R29   R(11,12)                1.545          estimate D2E/DX2                !
 ! R30   R(11,15)                1.4702         estimate D2E/DX2                !
 ! R31   R(11,32)                1.1161         estimate D2E/DX2                !
 ! R32   R(12,13)                1.5348         estimate D2E/DX2                !
 ! R33   R(12,33)                1.1138         estimate D2E/DX2                !
 ! R34   R(12,34)                1.114          estimate D2E/DX2                !
 ! R35   R(13,14)                1.533          estimate D2E/DX2                !
 ! R36   R(13,35)                1.1163         estimate D2E/DX2                !
 ! R37   R(13,36)                1.1168         estimate D2E/DX2                !
 ! R38   R(14,16)                1.536          estimate D2E/DX2                !
 ! R39   R(14,37)                1.1165         estimate D2E/DX2                !
 ! R40   R(14,38)                1.115          estimate D2E/DX2                !
 ! R41   R(15,16)                1.4624         estimate D2E/DX2                !
 ! R42   R(15,41)                1.4569         estimate D2E/DX2                !
 ! R43   R(16,39)                1.1163         estimate D2E/DX2                !
 ! R44   R(16,40)                1.1161         estimate D2E/DX2                !
 ! R45   R(41,42)                1.1145         estimate D2E/DX2                !
 ! R46   R(41,43)                1.1093         estimate D2E/DX2                !
 ! R47   R(41,44)                1.1117         estimate D2E/DX2                !
 ! A1    A(2,1,4)              109.558          estimate D2E/DX2                !
 ! A2    A(2,1,7)              109.8584         estimate D2E/DX2                !
 ! A3    A(2,1,17)             109.1951         estimate D2E/DX2                !
 ! A4    A(4,1,7)              109.3085         estimate D2E/DX2                !
 ! A5    A(4,1,17)             109.5055         estimate D2E/DX2                !
 ! A6    A(7,1,17)             109.4015         estimate D2E/DX2                !
 ! A7    A(1,2,3)              108.8076         estimate D2E/DX2                !
 ! A8    A(1,2,18)             110.2664         estimate D2E/DX2                !
 ! A9    A(1,2,19)             110.3222         estimate D2E/DX2                !
 ! A10   A(3,2,18)             110.2734         estimate D2E/DX2                !
 ! A11   A(3,2,19)             110.3734         estimate D2E/DX2                !
 ! A12   A(18,2,19)            106.791          estimate D2E/DX2                !
 ! A13   A(2,3,5)              109.5801         estimate D2E/DX2                !
 ! A14   A(2,3,10)             109.5956         estimate D2E/DX2                !
 ! A15   A(2,3,20)             109.2147         estimate D2E/DX2                !
 ! A16   A(5,3,10)             109.5469         estimate D2E/DX2                !
 ! A17   A(5,3,20)             109.6359         estimate D2E/DX2                !
 ! A18   A(10,3,20)            109.2533         estimate D2E/DX2                !
 ! A19   A(1,4,6)              111.5761         estimate D2E/DX2                !
 ! A20   A(1,4,21)             107.8428         estimate D2E/DX2                !
 ! A21   A(1,4,22)             109.7089         estimate D2E/DX2                !
 ! A22   A(6,4,21)             111.2908         estimate D2E/DX2                !
 ! A23   A(6,4,22)             109.9766         estimate D2E/DX2                !
 ! A24   A(21,4,22)            106.2841         estimate D2E/DX2                !
 ! A25   A(3,5,6)              112.0693         estimate D2E/DX2                !
 ! A26   A(3,5,23)             108.4526         estimate D2E/DX2                !
 ! A27   A(3,5,24)             108.2915         estimate D2E/DX2                !
 ! A28   A(6,5,23)             110.5557         estimate D2E/DX2                !
 ! A29   A(6,5,24)             110.9375         estimate D2E/DX2                !
 ! A30   A(23,5,24)            106.3232         estimate D2E/DX2                !
 ! A31   A(4,6,5)              106.1626         estimate D2E/DX2                !
 ! A32   A(4,6,8)              109.6033         estimate D2E/DX2                !
 ! A33   A(4,6,11)             110.5317         estimate D2E/DX2                !
 ! A34   A(5,6,8)              106.0706         estimate D2E/DX2                !
 ! A35   A(5,6,11)             109.5379         estimate D2E/DX2                !
 ! A36   A(8,6,11)             114.5168         estimate D2E/DX2                !
 ! A37   A(1,7,9)              109.3684         estimate D2E/DX2                !
 ! A38   A(1,7,25)             110.0509         estimate D2E/DX2                !
 ! A39   A(1,7,26)             110.2876         estimate D2E/DX2                !
 ! A40   A(9,7,25)             110.1112         estimate D2E/DX2                !
 ! A41   A(9,7,26)             110.1822         estimate D2E/DX2                !
 ! A42   A(25,7,26)            106.814          estimate D2E/DX2                !
 ! A43   A(6,8,9)              111.3631         estimate D2E/DX2                !
 ! A44   A(6,8,27)             111.9244         estimate D2E/DX2                !
 ! A45   A(6,8,28)             110.5213         estimate D2E/DX2                !
 ! A46   A(9,8,27)             108.1974         estimate D2E/DX2                !
 ! A47   A(9,8,28)             108.5            estimate D2E/DX2                !
 ! A48   A(27,8,28)            106.1307         estimate D2E/DX2                !
 ! A49   A(7,9,8)              109.78           estimate D2E/DX2                !
 ! A50   A(7,9,10)             109.6388         estimate D2E/DX2                !
 ! A51   A(7,9,29)             109.2861         estimate D2E/DX2                !
 ! A52   A(8,9,10)             109.4908         estimate D2E/DX2                !
 ! A53   A(8,9,29)             109.4936         estimate D2E/DX2                !
 ! A54   A(10,9,29)            109.1359         estimate D2E/DX2                !
 ! A55   A(3,10,9)             108.7916         estimate D2E/DX2                !
 ! A56   A(3,10,30)            110.3363         estimate D2E/DX2                !
 ! A57   A(3,10,31)            110.2316         estimate D2E/DX2                !
 ! A58   A(9,10,30)            110.3905         estimate D2E/DX2                !
 ! A59   A(9,10,31)            110.2931         estimate D2E/DX2                !
 ! A60   A(30,10,31)           106.7914         estimate D2E/DX2                !
 ! A61   A(6,11,12)            114.3101         estimate D2E/DX2                !
 ! A62   A(6,11,15)            116.5266         estimate D2E/DX2                !
 ! A63   A(6,11,32)            102.921          estimate D2E/DX2                !
 ! A64   A(12,11,15)           111.5991         estimate D2E/DX2                !
 ! A65   A(12,11,32)           105.2379         estimate D2E/DX2                !
 ! A66   A(15,11,32)           104.6377         estimate D2E/DX2                !
 ! A67   A(11,12,13)           111.3411         estimate D2E/DX2                !
 ! A68   A(11,12,33)           111.1558         estimate D2E/DX2                !
 ! A69   A(11,12,34)           111.0664         estimate D2E/DX2                !
 ! A70   A(13,12,33)           107.8093         estimate D2E/DX2                !
 ! A71   A(13,12,34)           109.1684         estimate D2E/DX2                !
 ! A72   A(33,12,34)           106.1056         estimate D2E/DX2                !
 ! A73   A(12,13,14)           110.3003         estimate D2E/DX2                !
 ! A74   A(12,13,35)           109.3193         estimate D2E/DX2                !
 ! A75   A(12,13,36)           110.6144         estimate D2E/DX2                !
 ! A76   A(14,13,35)           109.2168         estimate D2E/DX2                !
 ! A77   A(14,13,36)           110.2846         estimate D2E/DX2                !
 ! A78   A(35,13,36)           107.034          estimate D2E/DX2                !
 ! A79   A(13,14,16)           109.8215         estimate D2E/DX2                !
 ! A80   A(13,14,37)           109.8411         estimate D2E/DX2                !
 ! A81   A(13,14,38)           109.9327         estimate D2E/DX2                !
 ! A82   A(16,14,37)           110.0351         estimate D2E/DX2                !
 ! A83   A(16,14,38)           110.6538         estimate D2E/DX2                !
 ! A84   A(37,14,38)           106.5049         estimate D2E/DX2                !
 ! A85   A(11,15,16)           110.0781         estimate D2E/DX2                !
 ! A86   A(11,15,41)           115.6095         estimate D2E/DX2                !
 ! A87   A(16,15,41)           110.3012         estimate D2E/DX2                !
 ! A88   A(14,16,15)           113.8606         estimate D2E/DX2                !
 ! A89   A(14,16,39)           109.8881         estimate D2E/DX2                !
 ! A90   A(14,16,40)           108.8495         estimate D2E/DX2                !
 ! A91   A(15,16,39)           110.1437         estimate D2E/DX2                !
 ! A92   A(15,16,40)           109.0436         estimate D2E/DX2                !
 ! A93   A(39,16,40)           104.6347         estimate D2E/DX2                !
 ! A94   A(15,41,42)           110.6428         estimate D2E/DX2                !
 ! A95   A(15,41,43)           111.4485         estimate D2E/DX2                !
 ! A96   A(15,41,44)           113.3132         estimate D2E/DX2                !
 ! A97   A(42,41,43)           104.1509         estimate D2E/DX2                !
 ! A98   A(42,41,44)           107.859          estimate D2E/DX2                !
 ! A99   A(43,41,44)           108.9669         estimate D2E/DX2                !
 ! D1    D(4,1,2,3)             60.0443         estimate D2E/DX2                !
 ! D2    D(4,1,2,18)           -61.0171         estimate D2E/DX2                !
 ! D3    D(4,1,2,19)          -178.7362         estimate D2E/DX2                !
 ! D4    D(7,1,2,3)            -60.0482         estimate D2E/DX2                !
 ! D5    D(7,1,2,18)           178.8904         estimate D2E/DX2                !
 ! D6    D(7,1,2,19)            61.1714         estimate D2E/DX2                !
 ! D7    D(17,1,2,3)           179.9704         estimate D2E/DX2                !
 ! D8    D(17,1,2,18)           58.909          estimate D2E/DX2                !
 ! D9    D(17,1,2,19)          -58.8101         estimate D2E/DX2                !
 ! D10   D(2,1,4,6)            -61.6459         estimate D2E/DX2                !
 ! D11   D(2,1,4,21)           175.8418         estimate D2E/DX2                !
 ! D12   D(2,1,4,22)            60.4879         estimate D2E/DX2                !
 ! D13   D(7,1,4,6)             58.7818         estimate D2E/DX2                !
 ! D14   D(7,1,4,21)           -63.7304         estimate D2E/DX2                !
 ! D15   D(7,1,4,22)          -179.0844         estimate D2E/DX2                !
 ! D16   D(17,1,4,6)           178.6181         estimate D2E/DX2                !
 ! D17   D(17,1,4,21)           56.1058         estimate D2E/DX2                !
 ! D18   D(17,1,4,22)          -59.2481         estimate D2E/DX2                !
 ! D19   D(2,1,7,9)             59.5439         estimate D2E/DX2                !
 ! D20   D(2,1,7,25)           -61.5397         estimate D2E/DX2                !
 ! D21   D(2,1,7,26)          -179.1345         estimate D2E/DX2                !
 ! D22   D(4,1,7,9)            -60.7            estimate D2E/DX2                !
 ! D23   D(4,1,7,25)           178.2164         estimate D2E/DX2                !
 ! D24   D(4,1,7,26)            60.6216         estimate D2E/DX2                !
 ! D25   D(17,1,7,9)           179.3998         estimate D2E/DX2                !
 ! D26   D(17,1,7,25)           58.3161         estimate D2E/DX2                !
 ! D27   D(17,1,7,26)          -59.2786         estimate D2E/DX2                !
 ! D28   D(1,2,3,5)            -59.2494         estimate D2E/DX2                !
 ! D29   D(1,2,3,10)            60.9871         estimate D2E/DX2                !
 ! D30   D(1,2,3,20)          -179.3604         estimate D2E/DX2                !
 ! D31   D(18,2,3,5)            61.8077         estimate D2E/DX2                !
 ! D32   D(18,2,3,10)         -177.9558         estimate D2E/DX2                !
 ! D33   D(18,2,3,20)          -58.3033         estimate D2E/DX2                !
 ! D34   D(19,2,3,5)           179.5624         estimate D2E/DX2                !
 ! D35   D(19,2,3,10)          -60.2011         estimate D2E/DX2                !
 ! D36   D(19,2,3,20)           59.4514         estimate D2E/DX2                !
 ! D37   D(2,3,5,6)             60.1758         estimate D2E/DX2                !
 ! D38   D(2,3,5,23)           -62.1477         estimate D2E/DX2                !
 ! D39   D(2,3,5,24)          -177.131          estimate D2E/DX2                !
 ! D40   D(10,3,5,6)           -60.0904         estimate D2E/DX2                !
 ! D41   D(10,3,5,23)          177.5861         estimate D2E/DX2                !
 ! D42   D(10,3,5,24)           62.6028         estimate D2E/DX2                !
 ! D43   D(20,3,5,6)          -179.9708         estimate D2E/DX2                !
 ! D44   D(20,3,5,23)           57.7057         estimate D2E/DX2                !
 ! D45   D(20,3,5,24)          -57.2776         estimate D2E/DX2                !
 ! D46   D(2,3,10,9)           -61.2195         estimate D2E/DX2                !
 ! D47   D(2,3,10,30)           60.0197         estimate D2E/DX2                !
 ! D48   D(2,3,10,31)          177.7265         estimate D2E/DX2                !
 ! D49   D(5,3,10,9)            59.0373         estimate D2E/DX2                !
 ! D50   D(5,3,10,30)         -179.7236         estimate D2E/DX2                !
 ! D51   D(5,3,10,31)          -62.0168         estimate D2E/DX2                !
 ! D52   D(20,3,10,9)          179.1517         estimate D2E/DX2                !
 ! D53   D(20,3,10,30)         -59.6092         estimate D2E/DX2                !
 ! D54   D(20,3,10,31)          58.0976         estimate D2E/DX2                !
 ! D55   D(1,4,6,5)             58.6241         estimate D2E/DX2                !
 ! D56   D(1,4,6,8)            -55.5283         estimate D2E/DX2                !
 ! D57   D(1,4,6,11)           177.3325         estimate D2E/DX2                !
 ! D58   D(21,4,6,5)           179.1371         estimate D2E/DX2                !
 ! D59   D(21,4,6,8)            64.9847         estimate D2E/DX2                !
 ! D60   D(21,4,6,11)          -62.1545         estimate D2E/DX2                !
 ! D61   D(22,4,6,5)           -63.3555         estimate D2E/DX2                !
 ! D62   D(22,4,6,8)          -177.5079         estimate D2E/DX2                !
 ! D63   D(22,4,6,11)           55.3529         estimate D2E/DX2                !
 ! D64   D(3,5,6,4)            -58.1086         estimate D2E/DX2                !
 ! D65   D(3,5,6,8)             58.4434         estimate D2E/DX2                !
 ! D66   D(3,5,6,11)          -177.4699         estimate D2E/DX2                !
 ! D67   D(23,5,6,4)            63.0096         estimate D2E/DX2                !
 ! D68   D(23,5,6,8)           179.5616         estimate D2E/DX2                !
 ! D69   D(23,5,6,11)          -56.3517         estimate D2E/DX2                !
 ! D70   D(24,5,6,4)          -179.2889         estimate D2E/DX2                !
 ! D71   D(24,5,6,8)           -62.7369         estimate D2E/DX2                !
 ! D72   D(24,5,6,11)           61.3499         estimate D2E/DX2                !
 ! D73   D(4,6,8,9)             55.0836         estimate D2E/DX2                !
 ! D74   D(4,6,8,27)           -66.1756         estimate D2E/DX2                !
 ! D75   D(4,6,8,28)           175.7616         estimate D2E/DX2                !
 ! D76   D(5,6,8,9)            -59.128          estimate D2E/DX2                !
 ! D77   D(5,6,8,27)           179.6128         estimate D2E/DX2                !
 ! D78   D(5,6,8,28)            61.55           estimate D2E/DX2                !
 ! D79   D(11,6,8,9)           179.9476         estimate D2E/DX2                !
 ! D80   D(11,6,8,27)           58.6884         estimate D2E/DX2                !
 ! D81   D(11,6,8,28)          -59.3744         estimate D2E/DX2                !
 ! D82   D(4,6,11,12)          171.1782         estimate D2E/DX2                !
 ! D83   D(4,6,11,15)           38.5736         estimate D2E/DX2                !
 ! D84   D(4,6,11,32)          -75.2732         estimate D2E/DX2                !
 ! D85   D(5,6,11,12)          -72.1865         estimate D2E/DX2                !
 ! D86   D(5,6,11,15)          155.2088         estimate D2E/DX2                !
 ! D87   D(5,6,11,32)           41.362          estimate D2E/DX2                !
 ! D88   D(8,6,11,12)           46.8055         estimate D2E/DX2                !
 ! D89   D(8,6,11,15)          -85.7991         estimate D2E/DX2                !
 ! D90   D(8,6,11,32)          160.3541         estimate D2E/DX2                !
 ! D91   D(1,7,9,8)             60.6661         estimate D2E/DX2                !
 ! D92   D(1,7,9,10)           -59.6525         estimate D2E/DX2                !
 ! D93   D(1,7,9,29)          -179.2312         estimate D2E/DX2                !
 ! D94   D(25,7,9,8)          -178.2868         estimate D2E/DX2                !
 ! D95   D(25,7,9,10)           61.3946         estimate D2E/DX2                !
 ! D96   D(25,7,9,29)          -58.1842         estimate D2E/DX2                !
 ! D97   D(26,7,9,8)           -60.7192         estimate D2E/DX2                !
 ! D98   D(26,7,9,10)          178.9622         estimate D2E/DX2                !
 ! D99   D(26,7,9,29)           59.3834         estimate D2E/DX2                !
 ! D100  D(6,8,9,7)            -58.3357         estimate D2E/DX2                !
 ! D101  D(6,8,9,10)            62.0727         estimate D2E/DX2                !
 ! D102  D(6,8,9,29)          -178.312          estimate D2E/DX2                !
 ! D103  D(27,8,9,7)            65.0741         estimate D2E/DX2                !
 ! D104  D(27,8,9,10)         -174.5175         estimate D2E/DX2                !
 ! D105  D(27,8,9,29)          -54.9022         estimate D2E/DX2                !
 ! D106  D(28,8,9,7)           179.8068         estimate D2E/DX2                !
 ! D107  D(28,8,9,10)          -59.7848         estimate D2E/DX2                !
 ! D108  D(28,8,9,29)           59.8305         estimate D2E/DX2                !
 ! D109  D(7,9,10,3)            60.3873         estimate D2E/DX2                !
 ! D110  D(7,9,10,30)          -60.8186         estimate D2E/DX2                !
 ! D111  D(7,9,10,31)         -178.5964         estimate D2E/DX2                !
 ! D112  D(8,9,10,3)           -60.1071         estimate D2E/DX2                !
 ! D113  D(8,9,10,30)          178.687          estimate D2E/DX2                !
 ! D114  D(8,9,10,31)           60.9092         estimate D2E/DX2                !
 ! D115  D(29,9,10,3)         -179.9419         estimate D2E/DX2                !
 ! D116  D(29,9,10,30)          58.8522         estimate D2E/DX2                !
 ! D117  D(29,9,10,31)         -58.9256         estimate D2E/DX2                !
 ! D118  D(6,11,12,13)         168.9998         estimate D2E/DX2                !
 ! D119  D(6,11,12,33)          48.7814         estimate D2E/DX2                !
 ! D120  D(6,11,12,34)         -69.1119         estimate D2E/DX2                !
 ! D121  D(15,11,12,13)        -56.0963         estimate D2E/DX2                !
 ! D122  D(15,11,12,33)       -176.3147         estimate D2E/DX2                !
 ! D123  D(15,11,12,34)         65.792          estimate D2E/DX2                !
 ! D124  D(32,11,12,13)         56.8297         estimate D2E/DX2                !
 ! D125  D(32,11,12,33)        -63.3887         estimate D2E/DX2                !
 ! D126  D(32,11,12,34)        178.718          estimate D2E/DX2                !
 ! D127  D(6,11,15,16)        -168.6689         estimate D2E/DX2                !
 ! D128  D(6,11,15,41)          65.5387         estimate D2E/DX2                !
 ! D129  D(12,11,15,16)         57.5042         estimate D2E/DX2                !
 ! D130  D(12,11,15,41)        -68.2882         estimate D2E/DX2                !
 ! D131  D(32,11,15,16)        -55.797          estimate D2E/DX2                !
 ! D132  D(32,11,15,41)        178.4106         estimate D2E/DX2                !
 ! D133  D(11,12,13,14)         53.0359         estimate D2E/DX2                !
 ! D134  D(11,12,13,35)        -67.0678         estimate D2E/DX2                !
 ! D135  D(11,12,13,36)        175.3174         estimate D2E/DX2                !
 ! D136  D(33,12,13,14)        175.2098         estimate D2E/DX2                !
 ! D137  D(33,12,13,35)         55.1061         estimate D2E/DX2                !
 ! D138  D(33,12,13,36)        -62.5087         estimate D2E/DX2                !
 ! D139  D(34,12,13,14)        -69.9465         estimate D2E/DX2                !
 ! D140  D(34,12,13,35)        169.9499         estimate D2E/DX2                !
 ! D141  D(34,12,13,36)         52.335          estimate D2E/DX2                !
 ! D142  D(12,13,14,16)        -51.9828         estimate D2E/DX2                !
 ! D143  D(12,13,14,37)       -173.1284         estimate D2E/DX2                !
 ! D144  D(12,13,14,38)         69.9914         estimate D2E/DX2                !
 ! D145  D(35,13,14,16)         68.1825         estimate D2E/DX2                !
 ! D146  D(35,13,14,37)        -52.963          estimate D2E/DX2                !
 ! D147  D(35,13,14,38)       -169.8432         estimate D2E/DX2                !
 ! D148  D(36,13,14,16)       -174.4582         estimate D2E/DX2                !
 ! D149  D(36,13,14,37)         64.3962         estimate D2E/DX2                !
 ! D150  D(36,13,14,38)        -52.484          estimate D2E/DX2                !
 ! D151  D(13,14,16,15)         56.1254         estimate D2E/DX2                !
 ! D152  D(13,14,16,39)       -179.7874         estimate D2E/DX2                !
 ! D153  D(13,14,16,40)        -65.7452         estimate D2E/DX2                !
 ! D154  D(37,14,16,15)        177.1543         estimate D2E/DX2                !
 ! D155  D(37,14,16,39)        -58.7585         estimate D2E/DX2                !
 ! D156  D(37,14,16,40)         55.2836         estimate D2E/DX2                !
 ! D157  D(38,14,16,15)        -65.4182         estimate D2E/DX2                !
 ! D158  D(38,14,16,39)         58.6691         estimate D2E/DX2                !
 ! D159  D(38,14,16,40)        172.7112         estimate D2E/DX2                !
 ! D160  D(11,15,16,14)        -58.6339         estimate D2E/DX2                !
 ! D161  D(11,15,16,39)        177.4168         estimate D2E/DX2                !
 ! D162  D(11,15,16,40)         63.1293         estimate D2E/DX2                !
 ! D163  D(41,15,16,14)         70.1145         estimate D2E/DX2                !
 ! D164  D(41,15,16,39)        -53.8348         estimate D2E/DX2                !
 ! D165  D(41,15,16,40)       -168.1223         estimate D2E/DX2                !
 ! D166  D(11,15,41,42)        174.1801         estimate D2E/DX2                !
 ! D167  D(11,15,41,43)        -70.4351         estimate D2E/DX2                !
 ! D168  D(11,15,41,44)         52.9016         estimate D2E/DX2                !
 ! D169  D(16,15,41,42)         48.5018         estimate D2E/DX2                !
 ! D170  D(16,15,41,43)        163.8865         estimate D2E/DX2                !
 ! D171  D(16,15,41,44)        -72.7768         estimate D2E/DX2                !
 --------------------------------------------------------------------------------
 Trust Radius=3.00D-01 FncErr=1.00D-07 GrdErr=1.00D-06
 Number of steps in this run= 264 maximum allowed number of steps= 264.
 GradGradGradGradGradGradGradGradGradGradGradGradGradGradGradGradGradGrad

                          Input orientation:                          
 ---------------------------------------------------------------------
 Center     Atomic      Atomic             Coordinates (Angstroms)
 Number     Number       Type             X           Y           Z
 ---------------------------------------------------------------------
      1          6           0       -2.475262    0.218608   -1.275931
      2          6           0       -2.635262    1.737608   -1.119931
      3          6           0       -1.243262    2.385608   -1.129931
      4          6           0       -1.637262   -0.333392   -0.109931
      5          6           0       -0.400262    1.814608    0.024069
      6          6           0       -0.213262    0.273608   -0.094931
      7          6           0       -1.769262   -0.098392   -2.603931
      8          6           0        0.468738    0.029608   -1.459931
      9          6           0       -0.386262    0.572608   -2.618931
     10          6           0       -0.548262    2.092608   -2.467931
     11          6           0        0.594738   -0.252392    1.138069
     12          6           0        2.092738    0.125608    1.125069
     13          6           0        2.757738   -0.180392    2.474069
     14          6           0        2.497738   -1.636392    2.877069
     15          7           0        0.395738   -1.663392    1.500069
     16          6           0        0.992738   -1.935392    2.807069
     17          1           0       -3.486262   -0.260392   -1.268931
     18          1           0       -3.165262    1.974608   -0.166931
     19          1           0       -3.261262    2.148608   -1.947931
     20          1           0       -1.351262    3.491608   -1.004931
     21          1           0       -1.603262   -1.440392   -0.208931
     22          1           0       -2.152262   -0.121392    0.857069
     23          1           0       -0.898262    2.075608    0.988069
     24          1           0        0.583738    2.335608    0.029069
     25          1           0       -2.383262    0.268608   -3.460931
     26          1           0       -1.663262   -1.201392   -2.731931
     27          1           0        0.655738   -1.049392   -1.642931
     28          1           0        1.465738    0.526608   -1.492931
     29          1           0        0.120738    0.352608   -3.591931
     30          1           0       -1.146262    2.505608   -3.313931
     31          1           0        0.448738    2.593608   -2.502931
     32          1           0        0.154738    0.321608    1.988069
     33          1           0        2.231738    1.210608    0.915069
     34          1           0        2.635738   -0.417392    0.318069
     35          1           0        2.337738    0.497608    3.255069
     36          1           0        3.855738    0.017608    2.425069
     37          1           0        2.875738   -1.816392    3.912069
     38          1           0        3.066738   -2.323392    2.208069
     39          1           0        0.801738   -2.994392    3.104069
     40          1           0        0.467738   -1.326392    3.581069
     41          6           0        0.859738   -2.636392    0.520069
     42          1           0        0.765738   -3.672392    0.920069
     43          1           0        0.219738   -2.636392   -0.385931
     44          1           0        1.917738   -2.483392    0.215069
 ---------------------------------------------------------------------
                    Distance matrix (angstroms):
                    1          2          3          4          5
     1  C    0.000000
     2  C    1.535349   0.000000
     3  C    2.497004   1.535470   0.000000
     4  C    1.538345   2.511005   2.930631   0.000000
     5  C    2.922814   2.511949   1.538963   2.482343   0.000000
     6  C    2.552338   3.009984   2.567619   1.548047   1.556859
     7  C    1.537046   2.514579   2.935917   2.508522   3.527055
     8  C    2.955793   3.559168   2.930969   2.527747   2.478637
     9  C    2.508563   2.943166   2.497707   2.946340   2.920310
    10  C    2.940420   2.509721   1.535942   3.554091   2.511822
    11  C    3.933718   4.414925   3.934604   2.558494   2.550198
    12  C    5.161402   5.476546   4.617523   3.955857   3.206239
    13  C    6.450271   6.758699   5.964996   5.100636   4.467157
    14  C    6.739374   7.328545   6.799089   5.264808   5.333612
    15  N    4.414832   5.255298   5.098786   2.914462   3.861175
    16  C    5.773875   6.486497   6.258650   4.241721   4.873196
    17  H    1.118754   2.176788   3.471554   2.183440   3.937114
    18  H    2.188497   1.115920   2.188692   2.768555   2.776204
    19  H    2.189584   1.116414   2.190346   3.489405   3.490797
    20  H    3.471217   2.176786   1.118269   3.938711   2.185308
    21  H    2.156653   3.463326   3.951723   1.111938   3.478006
    22  H    2.183946   2.756392   3.325583   1.115911   2.740710
    23  H    3.325819   2.752286   2.168190   2.748637   1.115984
    24  H    3.942359   3.469837   2.164188   3.475014   1.113428
    25  H    2.187507   2.775202   3.348858   3.485415   4.297398
    26  H    2.189904   3.490136   3.950870   2.762062   4.276326
    27  H    3.397893   4.344143   3.958358   2.849666   3.478005
    28  H    3.958969   4.292301   3.305500   3.504411   2.728038
    29  H    3.481527   3.952790   3.472035   3.960490   3.935015
    30  H    3.339170   2.760540   2.189444   4.308900   3.489447
    31  H    3.961809   3.486615   2.188894   4.318006   2.777296
    32  H    4.192995   4.410082   3.992045   2.835823   2.528709
    33  H    5.285867   5.301570   4.199795   4.289956   2.843611
    34  H    5.391443   5.873271   5.000015   4.295203   3.779624
    35  H    6.616099   6.738617   5.967942   5.273937   4.435143
    36  H    7.336168   7.593320   6.651710   6.059907   5.206491
    37  H    7.725915   8.265776   7.748853   6.224383   6.247630
    38  H    7.022377   7.751136   7.203681   5.608996   5.823486
    39  H    6.344013   7.214359   7.145151   4.833160   5.835896
    40  H    5.885467   6.412184   6.236985   4.363548   4.824060
    41  C    4.743297   5.834081   5.689077   3.454811   4.652421
    42  H    5.519636   6.707943   6.703577   4.240782   5.680629
    43  H    4.025686   5.274624   5.283407   2.971268   4.512638
    44  H    5.368644   6.350502   5.958868   4.167271   4.886963
                    6          7          8          9         10
     6  C    0.000000
     7  C    2.975668   0.000000
     8  C    1.545278   2.516697   0.000000
     9  C    2.547529   1.537256   1.539206   0.000000
    10  C    3.008673   2.511935   2.511239   1.536049   0.000000
    11  C    1.565193   4.428857   2.616296   3.969639   4.450698
    12  C    2.613033   5.373143   3.054311   4.512514   4.873768
    13  C    3.953823   6.803421   4.556312   6.032445   6.365495
    14  C    4.453134   7.114358   5.069711   6.588107   7.193927
    15  N    2.582029   4.896863   3.410744   4.751566   5.544700
    16  C    3.841318   6.346821   4.726848   6.134589   6.813596
    17  H    3.517948   2.180953   3.970215   3.482297   3.950450
    18  H    3.407769   3.490718   4.319818   3.962417   3.486720
    19  H    4.029831   2.775862   4.317546   3.346587   2.762952
    20  H    3.532516   3.952167   3.937622   3.472288   2.177700
    21  H    2.209727   2.750372   2.831799   3.367693   4.324141
    22  H    2.195917   3.482203   3.501561   3.960173   4.304676
    23  H    2.211180   4.288051   3.470952   3.941015   3.473719
    24  H    2.214143   4.288782   2.747359   3.325804   2.752359
    25  H    4.004857   1.116304   3.492138   2.188467   2.771326
    26  H    3.351402   1.115450   2.771059   2.188738   3.487600
    27  H    2.214000   2.776427   1.110270   2.160839   3.464449
    28  H    2.199421   3.477092   1.114499   2.167924   2.731149
    29  H    3.513802   2.179827   2.184229   1.119008   2.176818
    30  H    4.026695   2.770026   3.489429   2.190231   1.115298
    31  H    3.408681   3.489497   2.768094   2.189777   1.116349
    32  H    2.115802   4.996463   3.474560   4.645442   4.846296
    33  H    2.806438   5.486788   3.184895   4.444111   4.466656
    34  H    2.960549   5.295646   2.838482   4.328805   4.919324
    35  H    4.216667   7.179871   5.093467   6.475313   6.604979
    36  H    4.792984   7.546186   5.154138   6.613964   6.902339
    37  H    5.474127   8.184486   6.169258   7.681271   8.228515
    38  H    4.775627   7.175853   5.073503   6.603783   7.377958
    39  H    4.684405   6.897690   5.485031   6.847449   7.664676
    40  H    4.066539   6.690768   5.220193   6.540299   7.022266
    41  C    3.161907   4.807542   3.343776   4.658703   5.768366
    42  H    4.190415   5.623013   4.411056   5.645498   6.814717
    43  H    2.956395   3.913705   2.884967   3.956161   5.223791
    44  H    3.498330   5.218137   3.349686   4.762259   5.849737
                   11         12         13         14         15
    11  C    0.000000
    12  C    1.545010   0.000000
    13  C    2.543354   1.534817   0.000000
    14  C    2.925916   2.517573   1.532953   0.000000
    15  N    1.470227   2.494184   2.954151   2.513019   0.000000
    16  C    2.403425   2.878688   2.511203   1.536010   1.462410
    17  H    4.737961   6.083212   7.280384   7.408843   4.970482
    18  H    4.560719   5.721418   6.833801   7.373929   5.356739
    19  H    5.491533   6.496243   7.823470   8.412665   6.308225
    20  H    4.732536   5.265738   6.516971   7.495406   5.991749
    21  H    2.838478   4.229932   5.272989   5.136148   2.639396
    22  H    2.764440   4.260617   5.169746   5.291325   3.046886
    23  H    2.769681   3.573143   4.545775   5.374019   3.989574
    24  H    2.815625   2.891781   4.127294   5.248932   4.265113
    25  H    5.503701   6.409869   7.864840   8.223347   6.005580
    26  H    4.579963   5.544810   6.905803   6.997430   4.728927
    27  H    2.893595   3.332779   4.703536   4.916089   3.212950
    28  H    2.878827   2.721737   4.231572   4.984024   3.859929
    29  H    4.792035   5.117656   6.635828   7.173159   5.483461
    30  H    5.518872   5.988342   7.480425   8.292369   6.552322
    31  H    4.623626   4.685738   6.147933   7.143928   5.843703
    32  H    1.116054   2.130500   2.695145   3.180210   2.058264
    33  H    2.206778   1.113843   2.154539   3.467796   3.460202
    34  H    2.205744   1.113978   2.172415   2.837866   2.822630
    35  H    2.842928   2.176077   1.116264   2.173118   3.394306
    36  H    3.516161   2.193133   1.116785   2.187278   3.956385
    37  H    3.917159   3.485946   2.181345   1.116472   3.462882
    38  H    3.397753   2.849415   2.181441   1.115030   2.840969
    39  H    3.380321   3.913761   3.484456   2.184516   2.123491
    40  H    2.671676   3.283423   2.789779   2.170856   2.109340
    41  C    2.477015   3.084633   3.667759   3.039489   1.456854
    42  H    3.431205   4.028369   4.310110   3.312849   2.123530
    43  H    2.854235   3.663317   4.544555   4.103225   2.129484
    44  H    2.753111   2.768683   3.333540   2.853078   2.154091
                   16         17         18         19         20
    16  C    0.000000
    17  H    6.283378   0.000000
    18  H    6.435972   2.512503   0.000000
    19  H    7.575328   2.512956   1.792053   0.000000
    20  H    7.034061   4.324977   2.508810   2.518134   0.000000
    21  H    4.010050   2.462050   3.755507   4.319028   5.002174
    22  H    4.121180   2.513713   2.543219   3.775024   4.142754
    23  H    4.792991   4.153154   2.546275   3.769508   2.486426
    24  H    5.111360   4.998892   3.771437   4.327531   2.479862
    25  H    7.452705   2.510242   3.791094   2.567967   4.181470
    26  H    6.186567   2.519758   4.349966   3.793516   5.010401
    27  H    4.549842   4.233032   5.091482   5.065878   5.005574
    28  H    4.977467   5.019148   5.030024   5.018211   4.118842
    29  H    6.851462   4.333884   5.015905   4.167286   4.325815
    30  H    7.859036   4.160334   3.776497   2.542957   2.519068
    31  H    7.000277   5.015207   4.347534   3.777585   2.508069
    32  H    2.543040   4.919721   4.289386   5.522597   4.612481
    33  H    3.874545   6.295174   5.557160   6.264955   4.661250
    34  H    3.346475   6.326302   6.293528   6.818630   5.738186
    35  H    2.815887   7.413509   6.646399   7.819579   6.381250
    36  H    3.486675   8.223617   7.735810   8.620672   7.137676
    37  H    2.186521   8.350984   8.216058   9.366087   8.379695
    38  H    2.193358   7.699825   7.934183   8.792878   7.978491
    39  H    1.116320   6.707073   7.150349   8.275332   7.974176
    40  H    1.116056   6.347675   6.175985   7.520034   6.895889
    41  C    2.395717   5.266271   6.159051   6.780110   6.690779
    42  H    2.574775   5.874774   6.965841   7.637159   7.714286
    43  H    3.359193   4.489933   5.724291   6.119921   6.356382
    44  H    2.806135   6.028864   6.771748   7.277090   6.919204
                   21         22         23         24         25
    21  H    0.000000
    22  H    1.782559   0.000000
    23  H    3.780488   2.533078   0.000000
    24  H    4.370102   3.769367   1.784266   0.000000
    25  H    3.755607   4.341726   5.026338   5.025503   0.000000
    26  H    2.535005   3.779741   5.016209   5.018217   1.791854
    27  H    2.704130   3.872473   4.370664   3.776108   3.778594
    28  H    3.864778   4.362606   3.760752   2.523270   4.330634
    29  H    4.199013   5.018447   4.998349   4.154311   2.508831
    30  H    5.041903   5.030945   4.330544   3.767950   2.560458
    31  H    5.074081   5.042423   3.777541   2.548688   3.787296
    32  H    3.319942   2.607232   2.277131   2.842168   6.011311
    33  H    4.795665   4.582253   3.248146   2.183237   6.429227
    34  H    4.392423   4.827326   4.376426   3.445756   6.319952
    35  H    5.593444   5.127735   4.254535   4.106317   8.212487
    36  H    6.234132   6.210798   5.375951   4.671180   8.580974
    37  H    6.097988   6.122649   6.159587   6.129442   9.293301
    38  H    5.332024   5.823398   6.046555   5.711358   8.280008
    39  H    4.378917   4.693533   5.750857   6.157276   7.993161
    40  H    4.320433   3.966938   4.490346   5.102980   7.762860
    41  C    2.833412   3.938393   5.050993   5.003803   5.899528
    42  H    3.445087   4.596552   5.984398   6.076436   6.681380
    43  H    2.187481   3.673780   5.033959   5.002550   4.966916
    44  H    3.696629   4.749327   5.414043   5.003690   6.291668
                   26         27         28         29         30
    26  H    0.000000
    27  H    2.566473   0.000000
    28  H    3.783087   1.778307   0.000000
    29  H    2.517374   2.459762   2.499020   0.000000
    30  H    3.787857   4.321744   3.749003   2.513560   0.000000
    31  H    4.349139   3.748853   2.515329   2.513083   1.791505
    32  H    5.282334   3.913413   3.725333   5.580190   5.879937
    33  H    5.855713   3.759620   2.617838   5.050300   5.565281
    34  H    5.329030   2.857507   2.353669   4.712348   6.003239
    35  H    7.398565   5.404881   4.827497   7.198439   7.702083
    36  H    7.651142   5.284611   4.617565   7.089904   8.009137
    37  H    8.069912   6.031145   6.057374   8.282790   9.331197
    38  H    6.930756   4.718707   4.937925   7.034194   8.459379
    39  H    6.584069   5.132090   5.828443   7.516820   8.673836
    40  H    6.664139   5.234716   5.493186   7.375051   8.051723
    41  C    4.358929   2.690493   3.797891   5.137002   6.720399
    42  H    5.034182   3.668951   4.893278   6.080690   7.729824
    43  H    3.332961   2.070921   3.575267   4.384331   6.072833
    44  H    4.811642   2.664801   3.490225   5.075958   6.836085
                   31         32         33         34         35
    31  H    0.000000
    32  H    5.041577   0.000000
    33  H    4.095669   2.501116   0.000000
    34  H    4.669811   3.080646   1.780452   0.000000
    35  H    6.412184   2.530169   2.448511   3.090631   0.000000
    36  H    6.521396   3.739089   2.518080   2.473272   1.795445
    37  H    8.154180   3.959376   4.308071   3.864148   2.464891
    38  H    7.295501   3.940072   3.854637   2.718584   3.096077
    39  H    7.923939   3.558078   4.951631   4.215007   3.817874
    40  H    7.237528   2.313336   4.081130   4.021651   2.632518
    41  C    6.054779   3.376657   4.103391   2.849376   4.414370
    42  H    7.147040   4.179232   5.098320   3.801885   5.031134
    43  H    5.646860   3.793398   4.532125   3.355091   5.250215
    44  H    5.943182   3.757622   3.772828   2.189632   4.278360
                   36         37         38         39         40
    36  H    0.000000
    37  H    2.556389   0.000000
    38  H    2.479897   1.788056   0.000000
    39  H    4.342822   2.518338   2.526516   0.000000
    40  H    3.823770   2.479541   3.103859   1.766723   0.000000
    41  C    4.432692   4.030176   2.796098   2.609326   3.352534
    42  H    5.042740   4.104741   2.961983   2.287102   3.559978
    43  H    5.307159   5.118549   3.864222   3.556260   4.185056
    44  H    3.859397   3.876914   2.306046   3.138933   3.843320
                   41         42         43         44
    41  C    0.000000
    42  H    1.114510   0.000000
    43  H    1.109250   1.754152   0.000000
    44  H    1.111665   1.799403   1.807710   0.000000
 Stoichiometry    C16H27N
 Framework group  C1[X(C16H27N)]
 Deg. of freedom   126
 Full point group                 C1      NOp   1
 Largest Abelian subgroup         C1      NOp   1
 Largest concise Abelian subgroup C1      NOp   1
                         Standard orientation:                         
 ---------------------------------------------------------------------
 Center     Atomic      Atomic             Coordinates (Angstroms)
 Number     Number       Type             X           Y           Z
 ---------------------------------------------------------------------
      1          6           0       -2.395597    1.208405   -0.776904
      2          6           0       -3.050734   -0.041462   -1.381821
      3          6           0       -2.546364   -1.279500   -0.626480
      4          6           0       -0.866688    1.104986   -0.911985
      5          6           0       -1.014479   -1.367314   -0.744899
      6          6           0       -0.308611   -0.117074   -0.142851
      7          6           0       -2.767705    1.325282    0.709832
      8          6           0       -0.752264   -0.045888    1.335658
      9          6           0       -2.282105    0.072599    1.456915
     10          6           0       -2.942281   -1.176431    0.853974
     11          6           0        1.237869   -0.237747   -0.351814
     12          6           0        1.920199   -1.295190    0.544456
     13          6           0        3.367613   -1.551538    0.102935
     14          6           0        4.140130   -0.230105    0.019412
     15          7           0        1.997154    1.020974   -0.377724
     16          6           0        3.361592    0.774752   -0.842834
     17          1           0       -2.758405    2.114810   -1.323175
     18          1           0       -2.801291   -0.122063   -2.466515
     19          1           0       -4.162560    0.030788   -1.311077
     20          1           0       -3.010628   -2.195344   -1.069440
     21          1           0       -0.426436    2.054237   -0.535811
     22          1           0       -0.587940    1.036517   -1.990350
     23          1           0       -0.749711   -1.485813   -1.822524
     24          1           0       -0.677416   -2.298313   -0.235633
     25          1           0       -3.873232    1.433636    0.820298
     26          1           0       -2.307983    2.239957    1.152838
     27          1           0       -0.294701    0.816334    1.864722
     28          1           0       -0.423379   -0.957177    1.886560
     29          1           0       -2.566044    0.152727    2.536330
     30          1           0       -4.051372   -1.117045    0.955362
     31          1           0       -2.616544   -2.090872    1.405270
     32          1           0        1.318884   -0.637427   -1.390692
     33          1           0        1.375495   -2.266023    0.506687
     34          1           0        1.914185   -0.978819    1.612548
     35          1           0        3.366508   -2.040539   -0.900520
     36          1           0        3.875432   -2.252984    0.808131
     37          1           0        5.150682   -0.409064   -0.420210
     38          1           0        4.307896    0.177534    1.043607
     39          1           0        3.925068    1.736248   -0.907581
     40          1           0        3.325979    0.397547   -1.892610
     41          6           0        2.016446    1.770563    0.871343
     42          1           0        2.696437    2.649965    0.791367
     43          1           0        1.024351    2.214210    1.093514
     44          1           0        2.344518    1.164121    1.743350
 ---------------------------------------------------------------------
 Rotational constants (GHZ):      1.0455177      0.3164278      0.2979054
 Standard basis: 6-31+G(d,p) (6D, 7F)
 There are   458 symmetry adapted basis functions of A   symmetry.
 Integral buffers will be    131072 words long.
 Raffenetti 2 integral format.
 Two-electron integral symmetry is turned on.
   458 basis functions,   733 primitive gaussians,   458 cartesian basis functions
    65 alpha electrons       65 beta electrons
       nuclear repulsion energy      1380.2258862181 Hartrees.
 NAtoms=   44 NActive=   44 NUniq=   44 SFac= 7.50D-01 NAtFMM=   80 NAOKFM=F Big=F
 One-electron integrals computed using PRISM.
 NBasis=   458 RedAO= T  NBF=   458
 NBsUse=   457 1.00D-06 NBFU=   457
 Harris functional with IExCor=  402 diagonalized for initial guess.
 ExpMin= 4.38D-02 ExpMax= 4.17D+03 ExpMxC= 6.27D+02 IAcc=2 IRadAn=         0 AccDes= 0.00D+00
 HarFok:  IExCor=  402 AccDes= 0.00D+00 IRadAn=         0 IDoV= 1
 ScaDFX=  1.000000  1.000000  1.000000  1.000000
 FoFCou: FMM=F IPFlag=           0 FMFlag=      100000 FMFlg1=           0
         NFxFlg=           0 DoJE=T BraDBF=F KetDBF=T FulRan=T
         Omega=  0.000000  0.000000  1.000000  0.000000  0.000000 ICntrl=     500 IOpCl=  0
         NMat0=    1 NMatS0=    1 NMatT0=    0 NMatD0=    1 NMtDS0=    0 NMtDT0=    0
         I1Cent=           4 NGrid=           0.
 Petite list used in FoFCou.
 Initial guess orbital symmetries:
       Occupied  (A) (A) (A) (A) (A) (A) (A) (A) (A) (A) (A) (A)
                 (A) (A) (A) (A) (A) (A) (A) (A) (A) (A) (A) (A)
                 (A) (A) (A) (A) (A) (A) (A) (A) (A) (A) (A) (A)
                 (A) (A) (A) (A) (A) (A) (A) (A) (A) (A) (A) (A)
                 (A) (A) (A) (A) (A) (A) (A) (A) (A) (A) (A) (A)
                 (A) (A) (A) (A) (A)
       Virtual   (A) (A) (A) (A) (A) (A) (A) (A) (A) (A) (A) (A)
                 (A) (A) (A) (A) (A) (A) (A) (A) (A) (A) (A) (A)
                 (A) (A) (A) (A) (A) (A) (A) (A) (A) (A) (A) (A)
                 (A) (A) (A) (A) (A) (A) (A) (A) (A) (A) (A) (A)
                 (A) (A) (A) (A) (A) (A) (A) (A) (A) (A) (A) (A)
                 (A) (A) (A) (A) (A) (A) (A) (A) (A) (A) (A) (A)
                 (A) (A) (A) (A) (A) (A) (A) (A) (A) (A) (A) (A)
                 (A) (A) (A) (A) (A) (A) (A) (A) (A) (A) (A) (A)
                 (A) (A) (A) (A) (A) (A) (A) (A) (A) (A) (A) (A)
                 (A) (A) (A) (A) (A) (A) (A) (A) (A) (A) (A) (A)
                 (A) (A) (A) (A) (A) (A) (A) (A) (A) (A) (A) (A)
                 (A) (A) (A) (A) (A) (A) (A) (A) (A) (A) (A) (A)
                 (A) (A) (A) (A) (A) (A) (A) (A) (A) (A) (A) (A)
                 (A) (A) (A) (A) (A) (A) (A) (A) (A) (A) (A) (A)
                 (A) (A) (A) (A) (A) (A) (A) (A) (A) (A) (A) (A)
                 (A) (A) (A) (A) (A) (A) (A) (A) (A) (A) (A) (A)
                 (A) (A) (A) (A) (A) (A) (A) (A) (A) (A) (A) (A)
                 (A) (A) (A) (A) (A) (A) (A) (A) (A) (A) (A) (A)
                 (A) (A) (A) (A) (A) (A) (A) (A) (A) (A) (A) (A)
                 (A) (A) (A) (A) (A) (A) (A) (A) (A) (A) (A) (A)
                 (A) (A) (A) (A) (A) (A) (A) (A) (A) (A) (A) (A)
                 (A) (A) (A) (A) (A) (A) (A) (A) (A) (A) (A) (A)
                 (A) (A) (A) (A) (A) (A) (A) (A) (A) (A) (A) (A)
                 (A) (A) (A) (A) (A) (A) (A) (A) (A) (A) (A) (A)
                 (A) (A) (A) (A) (A) (A) (A) (A) (A) (A) (A) (A)
                 (A) (A) (A) (A) (A) (A) (A) (A) (A) (A) (A) (A)
                 (A) (A) (A) (A) (A) (A) (A) (A) (A) (A) (A) (A)
                 (A) (A) (A) (A) (A) (A) (A) (A) (A) (A) (A) (A)
                 (A) (A) (A) (A) (A) (A) (A) (A) (A) (A) (A) (A)
                 (A) (A) (A) (A) (A) (A) (A) (A) (A) (A) (A) (A)
                 (A) (A) (A) (A) (A) (A) (A) (A) (A) (A) (A) (A)
                 (A) (A) (A) (A) (A) (A) (A) (A) (A) (A) (A) (A)
                 (A) (A) (A) (A) (A) (A) (A) (A)
 The electronic state of the initial guess is 1-A.
 Requested convergence on RMS density matrix=1.00D-08 within 128 cycles.
 Requested convergence on MAX density matrix=1.00D-06.
 Requested convergence on             energy=1.00D-06.
 No special actions if energy rises.
 SCF Done:  E(RB3LYP) =  -680.766388296     A.U. after   13 cycles
             Convg  =    0.7781D-08             -V/T =  2.0105

 **********************************************************************

            Population analysis using the SCF density.

 **********************************************************************

 Orbital symmetries:
       Occupied  (A) (A) (A) (A) (A) (A) (A) (A) (A) (A) (A) (A)
                 (A) (A) (A) (A) (A) (A) (A) (A) (A) (A) (A) (A)
                 (A) (A) (A) (A) (A) (A) (A) (A) (A) (A) (A) (A)
                 (A) (A) (A) (A) (A) (A) (A) (A) (A) (A) (A) (A)
                 (A) (A) (A) (A) (A) (A) (A) (A) (A) (A) (A) (A)
                 (A) (A) (A) (A) (A)
       Virtual   (A) (A) (A) (A) (A) (A) (A) (A) (A) (A) (A) (A)
                 (A) (A) (A) (A) (A) (A) (A) (A) (A) (A) (A) (A)
                 (A) (A) (A) (A) (A) (A) (A) (A) (A) (A) (A) (A)
                 (A) (A) (A) (A) (A) (A) (A) (A) (A) (A) (A) (A)
                 (A) (A) (A) (A) (A) (A) (A) (A) (A) (A) (A) (A)
                 (A) (A) (A) (A) (A) (A) (A) (A) (A) (A) (A) (A)
                 (A) (A) (A) (A) (A) (A) (A) (A) (A) (A) (A) (A)
                 (A) (A) (A) (A) (A) (A) (A) (A) (A) (A) (A) (A)
                 (A) (A) (A) (A) (A) (A) (A) (A) (A) (A) (A) (A)
                 (A) (A) (A) (A) (A) (A) (A) (A) (A) (A) (A) (A)
                 (A) (A) (A) (A) (A) (A) (A) (A) (A) (A) (A) (A)
                 (A) (A) (A) (A) (A) (A) (A) (A) (A) (A) (A) (A)
                 (A) (A) (A) (A) (A) (A) (A) (A) (A) (A) (A) (A)
                 (A) (A) (A) (A) (A) (A) (A) (A) (A) (A) (A) (A)
                 (A) (A) (A) (A) (A) (A) (A) (A) (A) (A) (A) (A)
                 (A) (A) (A) (A) (A) (A) (A) (A) (A) (A) (A) (A)
                 (A) (A) (A) (A) (A) (A) (A) (A) (A) (A) (A) (A)
                 (A) (A) (A) (A) (A) (A) (A) (A) (A) (A) (A) (A)
                 (A) (A) (A) (A) (A) (A) (A) (A) (A) (A) (A) (A)
                 (A) (A) (A) (A) (A) (A) (A) (A) (A) (A) (A) (A)
                 (A) (A) (A) (A) (A) (A) (A) (A) (A) (A) (A) (A)
                 (A) (A) (A) (A) (A) (A) (A) (A) (A) (A) (A) (A)
                 (A) (A) (A) (A) (A) (A) (A) (A) (A) (A) (A) (A)
                 (A) (A) (A) (A) (A) (A) (A) (A) (A) (A) (A) (A)
                 (A) (A) (A) (A) (A) (A) (A) (A) (A) (A) (A) (A)
                 (A) (A) (A) (A) (A) (A) (A) (A) (A) (A) (A) (A)
                 (A) (A) (A) (A) (A) (A) (A) (A) (A) (A) (A) (A)
                 (A) (A) (A) (A) (A) (A) (A) (A) (A) (A) (A) (A)
                 (A) (A) (A) (A) (A) (A) (A) (A) (A) (A) (A) (A)
                 (A) (A) (A) (A) (A) (A) (A) (A) (A) (A) (A) (A)
                 (A) (A) (A) (A) (A) (A) (A) (A) (A) (A) (A) (A)
                 (A) (A) (A) (A) (A) (A) (A) (A) (A) (A) (A) (A)
                 (A) (A) (A) (A) (A) (A) (A) (A)
 The electronic state is 1-A.
 Alpha  occ. eigenvalues --  -14.32461 -10.21204 -10.20772 -10.20372 -10.19523
 Alpha  occ. eigenvalues --  -10.18567 -10.18541 -10.18511 -10.18271 -10.18253
 Alpha  occ. eigenvalues --  -10.18099 -10.18018 -10.17863 -10.17828 -10.17772
 Alpha  occ. eigenvalues --  -10.17733 -10.17338  -0.92676  -0.86828  -0.79087
 Alpha  occ. eigenvalues --   -0.78261  -0.76494  -0.76351  -0.72868  -0.69515
 Alpha  occ. eigenvalues --   -0.66219  -0.66075  -0.62197  -0.61238  -0.57878
 Alpha  occ. eigenvalues --   -0.57445  -0.56492  -0.54049  -0.51446  -0.47634
 Alpha  occ. eigenvalues --   -0.46942  -0.45222  -0.44940  -0.44454  -0.44287
 Alpha  occ. eigenvalues --   -0.43975  -0.42067  -0.41670  -0.41017  -0.40335
 Alpha  occ. eigenvalues --   -0.39943  -0.39335  -0.38616  -0.38253  -0.37789
 Alpha  occ. eigenvalues --   -0.36892  -0.35491  -0.34397  -0.34106  -0.32547
 Alpha  occ. eigenvalues --   -0.32409  -0.32194  -0.32128  -0.31674  -0.31297
 Alpha  occ. eigenvalues --   -0.31117  -0.27762  -0.27660  -0.27327  -0.20553
 Alpha virt. eigenvalues --   -0.00783   0.00487   0.01023   0.01296   0.02365
 Alpha virt. eigenvalues --    0.02629   0.02697   0.03228   0.03457   0.04385
 Alpha virt. eigenvalues --    0.04767   0.05085   0.05284   0.05726   0.06319
 Alpha virt. eigenvalues --    0.07469   0.07604   0.08073   0.08157   0.08346
 Alpha virt. eigenvalues --    0.08733   0.09374   0.09460   0.10468   0.11053
 Alpha virt. eigenvalues --    0.11615   0.11937   0.12249   0.12556   0.12810
 Alpha virt. eigenvalues --    0.12891   0.13269   0.13863   0.14061   0.14529
 Alpha virt. eigenvalues --    0.15464   0.15600   0.15945   0.16496   0.16546
 Alpha virt. eigenvalues --    0.17129   0.17312   0.17466   0.17786   0.18265
 Alpha virt. eigenvalues --    0.18420   0.18718   0.18794   0.19057   0.19393
 Alpha virt. eigenvalues --    0.19750   0.19859   0.19983   0.20227   0.20371
 Alpha virt. eigenvalues --    0.20621   0.20769   0.21403   0.21667   0.22056
 Alpha virt. eigenvalues --    0.22576   0.22678   0.23083   0.23271   0.23988
 Alpha virt. eigenvalues --    0.24338   0.24567   0.24824   0.25145   0.25476
 Alpha virt. eigenvalues --    0.25804   0.26173   0.26465   0.27235   0.27335
 Alpha virt. eigenvalues --    0.27882   0.28277   0.28553   0.28791   0.29079
 Alpha virt. eigenvalues --    0.29629   0.29701   0.29973   0.30602   0.31344
 Alpha virt. eigenvalues --    0.32065   0.32133   0.32945   0.33351   0.33774
 Alpha virt. eigenvalues --    0.34185   0.35180   0.35581   0.35921   0.36344
 Alpha virt. eigenvalues --    0.36458   0.37209   0.38219   0.38501   0.38965
 Alpha virt. eigenvalues --    0.39315   0.39542   0.40059   0.40550   0.41028
 Alpha virt. eigenvalues --    0.41201   0.43539   0.43803   0.45966   0.46489
 Alpha virt. eigenvalues --    0.47234   0.48884   0.52421   0.56873   0.63727
 Alpha virt. eigenvalues --    0.64118   0.64784   0.65610   0.66980   0.67505
 Alpha virt. eigenvalues --    0.68630   0.69470   0.69890   0.70179   0.71820
 Alpha virt. eigenvalues --    0.73385   0.73740   0.73980   0.74865   0.75565
 Alpha virt. eigenvalues --    0.75843   0.76705   0.78117   0.78682   0.79268
 Alpha virt. eigenvalues --    0.79706   0.80480   0.80515   0.81164   0.82053
 Alpha virt. eigenvalues --    0.83349   0.83618   0.84612   0.85545   0.86337
 Alpha virt. eigenvalues --    0.86961   0.87480   0.87663   0.88884   0.92053
 Alpha virt. eigenvalues --    0.92434   0.93819   0.95054   0.96052   0.96421
 Alpha virt. eigenvalues --    0.97058   0.97949   0.98626   1.00434   1.01059
 Alpha virt. eigenvalues --    1.02291   1.02639   1.02939   1.03966   1.05285
 Alpha virt. eigenvalues --    1.07024   1.07629   1.07922   1.08473   1.10061
 Alpha virt. eigenvalues --    1.10439   1.10706   1.11120   1.11596   1.12892
 Alpha virt. eigenvalues --    1.13551   1.14046   1.14584   1.15484   1.16231
 Alpha virt. eigenvalues --    1.16908   1.17485   1.17931   1.19133   1.20765
 Alpha virt. eigenvalues --    1.21504   1.22205   1.22896   1.23682   1.23976
 Alpha virt. eigenvalues --    1.24329   1.26140   1.28962   1.30742   1.34672
 Alpha virt. eigenvalues --    1.35556   1.38276   1.39788   1.41720   1.43166
 Alpha virt. eigenvalues --    1.46193   1.46746   1.48387   1.50078   1.50376
 Alpha virt. eigenvalues --    1.51178   1.55069   1.55730   1.57228   1.59031
 Alpha virt. eigenvalues --    1.62393   1.65407   1.66188   1.67750   1.70518
 Alpha virt. eigenvalues --    1.70926   1.72607   1.73605   1.75675   1.78171
 Alpha virt. eigenvalues --    1.80315   1.80764   1.81566   1.82165   1.84058
 Alpha virt. eigenvalues --    1.84611   1.85157   1.86063   1.86632   1.87609
 Alpha virt. eigenvalues --    1.89066   1.89905   1.91177   1.93719   1.93943
 Alpha virt. eigenvalues --    1.94670   1.96831   1.97024   1.97943   1.98283
 Alpha virt. eigenvalues --    1.99033   1.99680   2.00122   2.00857   2.01575
 Alpha virt. eigenvalues --    2.02695   2.03412   2.04719   2.05306   2.06661
 Alpha virt. eigenvalues --    2.06890   2.07505   2.07556   2.09509   2.11323
 Alpha virt. eigenvalues --    2.12367   2.13634   2.14979   2.15284   2.15737
 Alpha virt. eigenvalues --    2.15942   2.16776   2.17108   2.18513   2.19043
 Alpha virt. eigenvalues --    2.19681   2.20894   2.21649   2.24521   2.25792
 Alpha virt. eigenvalues --    2.26785   2.29928   2.30341   2.30745   2.32478
 Alpha virt. eigenvalues --    2.34169   2.34388   2.36130   2.36928   2.37661
 Alpha virt. eigenvalues --    2.38386   2.39302   2.39932   2.42027   2.43407
 Alpha virt. eigenvalues --    2.43768   2.45815   2.47454   2.47877   2.48609
 Alpha virt. eigenvalues --    2.49239   2.49527   2.50446   2.51498   2.52520
 Alpha virt. eigenvalues --    2.54003   2.54358   2.55946   2.57861   2.58107
 Alpha virt. eigenvalues --    2.59130   2.60157   2.62064   2.63630   2.64189
 Alpha virt. eigenvalues --    2.66154   2.67114   2.67698   2.68635   2.68936
 Alpha virt. eigenvalues --    2.69635   2.69997   2.72797   2.73349   2.74374
 Alpha virt. eigenvalues --    2.75045   2.75715   2.76282   2.77832   2.78298
 Alpha virt. eigenvalues --    2.78971   2.80132   2.80557   2.81290   2.82877
 Alpha virt. eigenvalues --    2.83509   2.84376   2.86202   2.86828   2.87515
 Alpha virt. eigenvalues --    2.87866   2.88903   2.89443   2.91638   2.91828
 Alpha virt. eigenvalues --    2.92908   2.94168   2.94491   2.95452   2.96482
 Alpha virt. eigenvalues --    2.96938   2.98355   3.00036   3.00725   3.01958
 Alpha virt. eigenvalues --    3.02900   3.06937   3.16665   3.24378   3.28641
 Alpha virt. eigenvalues --    3.30725   3.30927   3.31290   3.31780   3.32835
 Alpha virt. eigenvalues --    3.34092   3.37632   3.38012   3.38277   3.45262
 Alpha virt. eigenvalues --    3.45753   3.46063   3.47280   3.48571   3.49006
 Alpha virt. eigenvalues --    3.49830   3.50660   3.50928   3.51679   3.52244
 Alpha virt. eigenvalues --    3.52858   3.54566   3.55083   3.56946   3.59689
 Alpha virt. eigenvalues --    4.37080   4.46102   4.48338   4.50631   4.51967
 Alpha virt. eigenvalues --    4.53046   4.53485   4.66329   4.73536   4.80033
 Alpha virt. eigenvalues --    4.82073   4.84369   4.85637   4.86744   5.00166
 Alpha virt. eigenvalues --    5.01544   5.03875
          Condensed to atoms (all electrons):
              1          2          3          4          5          6
     1  C    8.183654  -0.060096  -1.512934  -2.354216   1.260105  -0.097615
     2  C   -0.060096   5.993753  -0.265720   0.209187   0.527642   0.076135
     3  C   -1.512934  -0.265720   8.862482   1.576295  -3.154545   0.421873
     4  C   -2.354216   0.209187   1.576295  12.191892  -2.559964  -1.492274
     5  C    1.260105   0.527642  -3.154545  -2.559964  13.793359  -2.177503
     6  C   -0.097615   0.076135   0.421873  -1.492274  -2.177503  13.427639
     7  C   -0.195172  -0.307208   0.836362   0.419137  -1.412164  -0.054452
     8  C    0.943596  -1.157493   1.296375  -1.735327  -3.240429  -2.684015
     9  C   -1.111976   0.769539  -1.293470   1.089164   1.340446  -0.049260
    10  C    0.625258  -0.158547  -0.326112  -0.887280   0.502983  -0.001002
    11  C   -0.021577   0.052834  -0.407966  -0.505865   0.865048   1.005891
    12  C    0.096341  -0.010410  -0.193052  -0.492358   0.373648  -0.888727
    13  C   -0.030727   0.007124   0.062848   0.077536  -0.112691   0.271191
    14  C   -0.004707   0.005477  -0.001410   0.065715   0.031946   0.067097
    15  N    0.083815  -0.027932  -0.021665   0.004032  -0.358187  -0.676408
    16  C    0.064122  -0.020083  -0.040682  -0.250870  -0.050526  -0.213268
    17  H    0.182315  -0.003745   0.055371   0.017063  -0.007610   0.026222
    18  H   -0.031612   0.408946  -0.009663  -0.034490  -0.054582   0.016230
    19  H   -0.041864   0.415902  -0.050702   0.035508   0.036983  -0.050572
    20  H    0.051880   0.006959   0.161507  -0.009699   0.026009   0.023061
    21  H   -0.016094   0.022173  -0.019100   0.417872   0.040499  -0.033909
    22  H   -0.064995  -0.021010   0.005578   0.483271  -0.074097  -0.056436
    23  H   -0.007086  -0.021372  -0.005091  -0.032525   0.472455  -0.114718
    24  H   -0.012492   0.009724  -0.009351   0.025773   0.438627  -0.024487
    25  H   -0.060353  -0.023423   0.018533   0.049691  -0.006581  -0.047359
    26  H    0.004838   0.018099  -0.036453  -0.062837   0.037160   0.013351
    27  H    0.012614   0.007380  -0.016045  -0.064743   0.052053  -0.017234
    28  H   -0.007585   0.003365   0.004325   0.016468  -0.041363  -0.081524
    29  H    0.047889  -0.014926   0.054902  -0.005970  -0.013976   0.029355
    30  H    0.010759  -0.024401  -0.050788  -0.000501   0.035958  -0.034788
    31  H   -0.030553   0.014667  -0.005579   0.025129  -0.056915   0.006133
    32  H    0.002420   0.007477   0.011242   0.021439   0.021012  -0.132034
    33  H   -0.004069   0.000825   0.003799   0.010558  -0.067141   0.032002
    34  H    0.000242   0.000540   0.011715   0.016563  -0.006037  -0.035173
    35  H    0.000449   0.000046   0.001198   0.007230   0.000752   0.000147
    36  H    0.000097   0.000043  -0.000570   0.000368  -0.002027  -0.000719
    37  H   -0.000048  -0.000009  -0.000069  -0.001890  -0.000411   0.001935
    38  H    0.000032   0.000007  -0.000013   0.002899   0.000365  -0.006173
    39  H   -0.001085   0.000020   0.000129  -0.002790  -0.000730  -0.002870
    40  H   -0.000412  -0.000084   0.001214   0.008678   0.003255   0.003215
    41  C   -0.000545  -0.006463   0.006948   0.023364  -0.038580  -0.011141
    42  H   -0.000781  -0.000264   0.000380   0.017088  -0.004821  -0.027252
    43  H   -0.013023  -0.000488   0.000490  -0.073115   0.005906   0.058302
    44  H    0.003678   0.000265  -0.000899   0.005025   0.006162   0.030001
              7          8          9         10         11         12
     1  C   -0.195172   0.943596  -1.111976   0.625258  -0.021577   0.096341
     2  C   -0.307208  -1.157493   0.769539  -0.158547   0.052834  -0.010410
     3  C    0.836362   1.296375  -1.293470  -0.326112  -0.407966  -0.193052
     4  C    0.419137  -1.735327   1.089164  -0.887280  -0.505865  -0.492358
     5  C   -1.412164  -3.240429   1.340446   0.502983   0.865048   0.373648
     6  C   -0.054452  -2.684015  -0.049260  -0.001002   1.005891  -0.888727
     7  C    6.344493   0.960141  -0.524665  -0.228892  -0.202601  -0.030521
     8  C    0.960141  14.222397  -2.921360   0.189469  -1.134173   0.129386
     9  C   -0.524665  -2.921360   8.683525  -0.092554   0.087337  -0.022551
    10  C   -0.228892   0.189469  -0.092554   5.942573   0.046559   0.044901
    11  C   -0.202601  -1.134173   0.087337   0.046559   7.682187  -0.702202
    12  C   -0.030521   0.129386  -0.022551   0.044901  -0.702202   7.871964
    13  C    0.006079  -0.179774   0.015595  -0.020432   0.299371  -0.826473
    14  C   -0.001139  -0.131426   0.013878  -0.002990   0.161291  -0.432427
    15  N    0.057538   0.671285  -0.067641   0.012294  -0.326607   0.160436
    16  C   -0.002880   0.275491  -0.037198   0.012558  -0.865368   0.463007
    17  H   -0.009026  -0.010951   0.056213  -0.019550  -0.004906  -0.000433
    18  H    0.019521   0.024786  -0.030484   0.016223  -0.010634  -0.000240
    19  H   -0.020277  -0.003581   0.010867  -0.019921   0.000280  -0.000272
    20  H   -0.014383  -0.023393   0.059856  -0.001914   0.002189  -0.002234
    21  H   -0.038037  -0.068181  -0.001428   0.006291   0.002289   0.007306
    22  H    0.024411   0.035134  -0.014069   0.002831  -0.022786   0.002185
    23  H    0.002724   0.011899  -0.006700   0.011003  -0.018819   0.008109
    24  H    0.005027  -0.034916  -0.009457  -0.030895  -0.005591  -0.042595
    25  H    0.419155   0.037218  -0.046559  -0.025641  -0.002024  -0.000563
    26  H    0.383912  -0.057068  -0.002996   0.016901  -0.001846   0.000569
    27  H   -0.047894   0.375988   0.013767   0.026165   0.018422  -0.022771
    28  H    0.017707   0.459409   0.014528  -0.023563  -0.007846  -0.028510
    29  H   -0.002032   0.030712   0.156621  -0.002160  -0.000266  -0.000391
    30  H   -0.020192   0.050861  -0.052805   0.397888  -0.001078   0.000817
    31  H    0.018598  -0.036388  -0.020299   0.408598  -0.007281  -0.003313
    32  H    0.006278   0.017218  -0.004037   0.002998   0.382217  -0.011808
    33  H    0.001567  -0.025883   0.003813  -0.001050  -0.062220   0.341007
    34  H    0.002491   0.023390   0.002508  -0.002175  -0.093857   0.383703
    35  H    0.000029   0.000694   0.000395  -0.000168   0.008362  -0.125131
    36  H   -0.000039  -0.006059   0.000198  -0.000058  -0.015396  -0.091538
    37  H   -0.000012   0.001541   0.000013   0.000003  -0.014308   0.071279
    38  H    0.000008  -0.001098  -0.000243   0.000006  -0.010731   0.024224
    39  H    0.000116   0.000755  -0.000123  -0.000002   0.004833   0.009119
    40  H    0.000281   0.004499  -0.000652   0.000048   0.032789  -0.018533
    41  C   -0.005824  -0.106906   0.000885  -0.006510  -0.060570  -0.039412
    42  H    0.000309   0.008289  -0.000489  -0.000171  -0.030513   0.007276
    43  H   -0.003402  -0.018380  -0.002146   0.000601   0.026487   0.004509
    44  H   -0.001338  -0.027095   0.001875   0.000221   0.035926  -0.046655
             13         14         15         16         17         18
     1  C   -0.030727  -0.004707   0.083815   0.064122   0.182315  -0.031612
     2  C    0.007124   0.005477  -0.027932  -0.020083  -0.003745   0.408946
     3  C    0.062848  -0.001410  -0.021665  -0.040682   0.055371  -0.009663
     4  C    0.077536   0.065715   0.004032  -0.250870   0.017063  -0.034490
     5  C   -0.112691   0.031946  -0.358187  -0.050526  -0.007610  -0.054582
     6  C    0.271191   0.067097  -0.676408  -0.213268   0.026222   0.016230
     7  C    0.006079  -0.001139   0.057538  -0.002880  -0.009026   0.019521
     8  C   -0.179774  -0.131426   0.671285   0.275491  -0.010951   0.024786
     9  C    0.015595   0.013878  -0.067641  -0.037198   0.056213  -0.030484
    10  C   -0.020432  -0.002990   0.012294   0.012558  -0.019550   0.016223
    11  C    0.299371   0.161291  -0.326607  -0.865368  -0.004906  -0.010634
    12  C   -0.826473  -0.432427   0.160436   0.463007  -0.000433  -0.000240
    13  C    6.068841   0.380683  -0.147223  -0.303667   0.000088  -0.000161
    14  C    0.380683   5.561192  -0.096106   0.079139   0.000029  -0.000021
    15  N   -0.147223  -0.096106   7.563742   0.264331  -0.000661   0.000055
    16  C   -0.303667   0.079139   0.264331   6.095312  -0.000031  -0.000052
    17  H    0.000088   0.000029  -0.000661  -0.000031   0.631810  -0.004276
    18  H   -0.000161  -0.000021   0.000055  -0.000052  -0.004276   0.590405
    19  H   -0.000015   0.000002  -0.000047  -0.000007  -0.003965  -0.031040
    20  H    0.000108   0.000011   0.000139   0.000039  -0.000163  -0.004487
    21  H    0.000481   0.000426  -0.000112   0.001639  -0.005157   0.000101
    22  H   -0.000561  -0.001704   0.003686   0.000735  -0.004213   0.002925
    23  H    0.000929  -0.000956  -0.000216   0.002502  -0.000053   0.003068
    24  H   -0.001650   0.000454  -0.002645  -0.000569   0.000019   0.000076
    25  H   -0.000003  -0.000007   0.000129   0.000063  -0.004023   0.000070
    26  H   -0.000026   0.000062  -0.000546   0.000042  -0.004268  -0.000140
    27  H    0.003305   0.001258  -0.013328  -0.003238  -0.000040  -0.000003
    28  H   -0.009122  -0.000325  -0.003610  -0.000975   0.000018  -0.000003
    29  H   -0.000147  -0.000020  -0.000169  -0.000014  -0.000154   0.000018
    30  H    0.000067  -0.000001   0.000007   0.000010  -0.000056   0.000087
    31  H   -0.000074   0.000012   0.000035  -0.000063   0.000019  -0.000143
    32  H   -0.015906  -0.017406  -0.044488  -0.029147  -0.000005   0.000005
    33  H    0.047123   0.016557   0.018350   0.001601   0.000000   0.000000
    34  H    0.033786  -0.021055   0.003397  -0.011061   0.000000   0.000000
    35  H    0.471159  -0.057300   0.006990  -0.012279   0.000000   0.000000
    36  H    0.456678  -0.050888   0.004517   0.026446   0.000000   0.000000
    37  H   -0.077454   0.375822   0.007744  -0.042224   0.000000   0.000000
    38  H   -0.072649   0.431025   0.008507  -0.074473   0.000000   0.000000
    39  H    0.024769  -0.084725  -0.052917   0.422913   0.000000   0.000000
    40  H   -0.022033  -0.057691  -0.063565   0.405172   0.000000   0.000000
    41  C    0.009571  -0.030301   0.169782  -0.080660  -0.000537  -0.000038
    42  H    0.002205  -0.009859  -0.048278   0.006860   0.000000   0.000000
    43  H    0.000644  -0.002303  -0.063469   0.007017  -0.000006   0.000000
    44  H    0.016598  -0.000528  -0.097668  -0.023051   0.000000   0.000000
             19         20         21         22         23         24
     1  C   -0.041864   0.051880  -0.016094  -0.064995  -0.007086  -0.012492
     2  C    0.415902   0.006959   0.022173  -0.021010  -0.021372   0.009724
     3  C   -0.050702   0.161507  -0.019100   0.005578  -0.005091  -0.009351
     4  C    0.035508  -0.009699   0.417872   0.483271  -0.032525   0.025773
     5  C    0.036983   0.026009   0.040499  -0.074097   0.472455   0.438627
     6  C   -0.050572   0.023061  -0.033909  -0.056436  -0.114718  -0.024487
[...]
    14  C    0.000003   0.000003   0.000581  -0.002082  -0.001030   0.000500
    15  N   -0.000050   0.000150  -0.001099   0.003988   0.000106  -0.002141
    16  C   -0.000009   0.000047   0.000281   0.001805   0.003229  -0.000492
    17  H   -0.003911  -0.000164  -0.004709  -0.004283  -0.000056   0.000020
    18  H   -0.032147  -0.004472   0.000090   0.002919   0.003079   0.000079
    19  H    0.591692  -0.003809  -0.000148   0.000081   0.000106  -0.000153
    20  H   -0.003809   0.631614   0.000018  -0.000052  -0.004468  -0.004837
    21  H   -0.000148   0.000018   0.571008  -0.029538   0.000092  -0.000145
    22  H    0.000081  -0.000052  -0.029538   0.581750   0.003000   0.000073
    23  H    0.000106  -0.004468   0.000092   0.003000   0.589799  -0.034512
    24  H   -0.000153  -0.004837  -0.000145   0.000073  -0.034512   0.593246
    25  H    0.003186  -0.000057   0.000072  -0.000147  -0.000002  -0.000002
    26  H    0.000084   0.000020   0.002725   0.000067  -0.000004  -0.000004
    27  H   -0.000002   0.000019   0.001371   0.000024  -0.000149   0.000091
    28  H   -0.000002  -0.000062   0.000039  -0.000132   0.000085   0.002923
    29  H   -0.000055  -0.000165  -0.000042   0.000019   0.000019  -0.000051
    30  H    0.003177  -0.003915  -0.000002  -0.000002  -0.000149   0.000109
    31  H    0.000081  -0.004421  -0.000003  -0.000003   0.000065   0.003129
    32  H    0.000000  -0.000017  -0.000128   0.003917   0.005930  -0.001159
    33  H    0.000000   0.000010   0.000002  -0.000010   0.000130   0.001461
    34  H    0.000000   0.000000   0.000001   0.000005  -0.000002   0.000096
    35  H    0.000000   0.000000   0.000000   0.000001   0.000005   0.000027
    36  H    0.000000   0.000000   0.000000   0.000000   0.000000   0.000009
    37  H    0.000000   0.000000   0.000000   0.000000   0.000000   0.000000
    38  H    0.000000   0.000000   0.000000   0.000000   0.000000   0.000000
    39  H    0.000000   0.000000  -0.000003   0.000010   0.000000   0.000000
    40  H    0.000000   0.000000  -0.000011   0.000056  -0.000004   0.000001
    41  C    0.000010  -0.000110  -0.013093   0.002242  -0.000263  -0.000155
    42  H    0.000000   0.000000   0.000062  -0.000006   0.000000   0.000000
    43  H    0.000000   0.000000   0.001975   0.000111  -0.000002  -0.000001
    44  H    0.000000   0.000000   0.000158  -0.000013   0.000000   0.000000
             25         26         27         28         29         30
     1  C   -0.059497  -0.000166   0.009024  -0.005204   0.048003   0.012787
     2  C   -0.023275   0.016982   0.006904   0.002907  -0.014128  -0.023612
     3  C    0.017693  -0.034337  -0.014956   0.005307   0.051930  -0.054747
     4  C    0.046934  -0.057199  -0.061971   0.015706  -0.005059  -0.002195
     5  C   -0.006254   0.032638   0.046260  -0.040710  -0.009571   0.037703
     6  C   -0.045982   0.008992  -0.026912  -0.083863   0.034197  -0.036074
     7  C    0.421059   0.392105  -0.043830   0.016281  -0.004452  -0.021848
     8  C    0.035709  -0.053479   0.392309   0.470116   0.015264   0.049323
     9  C   -0.047595  -0.004330   0.007583   0.004354   0.165152  -0.053423
    10  C   -0.023501   0.015810   0.026174  -0.024397  -0.002126   0.405134
    11  C   -0.001934  -0.002451   0.014381  -0.006191   0.000168  -0.001055
    12  C   -0.000528   0.000441  -0.020121  -0.028032  -0.000134   0.000630
    13  C    0.000000  -0.000036   0.002798  -0.007247  -0.000120   0.000067
    14  C   -0.000006   0.000058   0.001310  -0.000518  -0.000005  -0.000002
    15  N    0.000124  -0.000411  -0.011408  -0.004167  -0.000208  -0.000004
    16  C    0.000063   0.000031  -0.002954  -0.000996  -0.000027   0.000009
    17  H   -0.003954  -0.004308  -0.000043   0.000019  -0.000162  -0.000056
    18  H    0.000080  -0.000150  -0.000003  -0.000003   0.000019   0.000086
    19  H    0.003186   0.000084  -0.000002  -0.000002  -0.000055   0.003177
    20  H   -0.000057   0.000020   0.000019  -0.000062  -0.000165  -0.003915
    21  H    0.000072   0.002725   0.001371   0.000039  -0.000042  -0.000002
    22  H   -0.000147   0.000067   0.000024  -0.000132   0.000019  -0.000002
    23  H   -0.000002  -0.000004  -0.000149   0.000085   0.000019  -0.000149
    24  H   -0.000002  -0.000004   0.000091   0.002923  -0.000051   0.000109
    25  H    0.591161  -0.032175   0.000102  -0.000151  -0.003959   0.003154
    26  H   -0.032175   0.592646   0.003048   0.000073  -0.004326   0.000074
    27  H    0.000102   0.003048   0.593475  -0.034876  -0.005014  -0.000157
    28  H   -0.000151   0.000073  -0.034876   0.580693  -0.004281   0.000120
    29  H   -0.003959  -0.004326  -0.005014  -0.004281   0.632647  -0.003853
    30  H    0.003154   0.000074  -0.000157   0.000120  -0.003853   0.590901
    31  H    0.000077  -0.000150   0.000085   0.002988  -0.004344  -0.032103
    32  H    0.000000   0.000000  -0.000085  -0.000003   0.000003   0.000000
    33  H    0.000000   0.000000   0.000195  -0.000543  -0.000001   0.000000
    34  H    0.000000   0.000000  -0.000068  -0.001144   0.000001   0.000000
    35  H    0.000000   0.000000   0.000000  -0.000003   0.000000   0.000000
    36  H    0.000000   0.000000   0.000000   0.000006   0.000000   0.000000
    37  H    0.000000   0.000000   0.000000   0.000000   0.000000   0.000000
    38  H    0.000000   0.000000   0.000002   0.000001   0.000000   0.000000
    39  H    0.000000   0.000000   0.000001   0.000000   0.000000   0.000000
    40  H    0.000000   0.000000  -0.000001   0.000000   0.000000   0.000000
    41  C    0.000134  -0.001057  -0.015409  -0.001799   0.000106   0.000012
    42  H    0.000000   0.000001   0.000160  -0.000005   0.000000   0.000000
    43  H    0.000001   0.000104  -0.000685   0.000125  -0.000012   0.000000
    44  H    0.000000   0.000003   0.000310  -0.000022   0.000001   0.000000
             31         32         33         34         35         36
     1  C   -0.030289   0.002795  -0.003696   0.000545   0.000479   0.000092
     2  C    0.013730   0.007990   0.000566   0.000566   0.000056   0.000045
     3  C   -0.005000   0.009905   0.004796   0.010828   0.001194  -0.000529
     4  C    0.024728   0.032074   0.006900   0.018177   0.007798   0.000173
     5  C   -0.055908   0.020988  -0.060818  -0.006325  -0.000002  -0.001476
     6  C    0.004947  -0.144788   0.027224  -0.034595  -0.001121  -0.000206
     7  C    0.018076   0.005744   0.001187   0.002098   0.000015  -0.000033
     8  C   -0.034396   0.010617  -0.020439   0.016803   0.000405  -0.005917
     9  C   -0.019089  -0.002085   0.002046   0.004208   0.000467   0.000160
    10  C    0.407217   0.002411  -0.000539  -0.002579  -0.000218  -0.000048
    11  C   -0.007529   0.377743  -0.062680  -0.107418  -0.001868  -0.013358
    12  C   -0.002852  -0.007353   0.353819   0.391188  -0.122405  -0.094166
    13  C   -0.000054  -0.015728   0.037478   0.037573   0.472582   0.460857
    14  C    0.000010  -0.017354   0.012915  -0.020348  -0.057862  -0.049886
    15  N    0.000061  -0.045125   0.016290   0.004208   0.008174   0.004222
    16  C   -0.000055  -0.027291   0.003667  -0.009195  -0.006758   0.023632
    17  H    0.000020  -0.000006   0.000000   0.000000   0.000000   0.000000
    18  H   -0.000150   0.000006   0.000000   0.000000   0.000000   0.000000
    19  H    0.000081   0.000000   0.000000   0.000000   0.000000   0.000000
    20  H   -0.004421  -0.000017   0.000010   0.000000   0.000000   0.000000
    21  H   -0.000003  -0.000128   0.000002   0.000001   0.000000   0.000000
    22  H   -0.000003   0.003917  -0.000010   0.000005   0.000001   0.000000
    23  H    0.000065   0.005930   0.000130  -0.000002   0.000005   0.000000
    24  H    0.003129  -0.001159   0.001461   0.000096   0.000027   0.000009
    25  H    0.000077   0.000000   0.000000   0.000000   0.000000   0.000000
    26  H   -0.000150   0.000000   0.000000   0.000000   0.000000   0.000000
    27  H    0.000085  -0.000085   0.000195  -0.000068   0.000000   0.000000
    28  H    0.002988  -0.000003  -0.000543  -0.001144  -0.000003   0.000006
    29  H   -0.004344   0.000003  -0.000001   0.000001   0.000000   0.000000
    30  H   -0.032103   0.000000   0.000000   0.000000   0.000000   0.000000
    31  H    0.591500   0.000001   0.000003   0.000002   0.000000   0.000000
    32  H    0.000001   0.657744  -0.002331   0.005737   0.004683   0.000007
    33  H    0.000003  -0.002331   0.589408  -0.032552  -0.004826  -0.003156
    34  H    0.000002   0.005737  -0.032552   0.581557   0.005086  -0.004267
    35  H    0.000000   0.004683  -0.004826   0.005086   0.583531  -0.032678
    36  H    0.000000   0.000007  -0.003156  -0.004267  -0.032678   0.585667
    37  H    0.000000  -0.000008  -0.000116  -0.000050  -0.005200  -0.002171
    38  H    0.000000   0.000162  -0.000031   0.002506   0.005199  -0.005062
    39  H    0.000000   0.000509   0.000016   0.000003   0.000015  -0.000155
    40  H    0.000000   0.006633   0.000035   0.000061   0.003076  -0.000087
    41  C    0.000047   0.005639   0.001942  -0.003702   0.002919   0.004312
    42  H    0.000000  -0.000134   0.000006  -0.000035   0.000003  -0.000004
    43  H    0.000000   0.000115   0.000019   0.000052   0.000002  -0.000002
    44  H    0.000000  -0.000359  -0.000208   0.000894  -0.000038   0.000059
             37         38         39         40         41         42
     1  C   -0.000070   0.000045  -0.001107  -0.000735  -0.005783  -0.000707
     2  C   -0.000010   0.000008   0.000011  -0.000086  -0.006097  -0.000273
     3  C   -0.000067  -0.000017   0.000153   0.001397   0.008448   0.000381
     4  C   -0.001824   0.002787  -0.002482   0.009828   0.028799   0.016380
     5  C   -0.000574   0.000296  -0.000825   0.003834  -0.045005  -0.004501
     6  C    0.001968  -0.006228  -0.003316   0.000309  -0.023393  -0.025153
     7  C   -0.000009  -0.000002   0.000117   0.000302  -0.003706   0.000278
     8  C    0.001257  -0.000369   0.000756   0.004691  -0.089310   0.006607
     9  C    0.000007  -0.000078  -0.000123  -0.000630   0.002452  -0.000663
    10  C    0.000001  -0.000002  -0.000003   0.000038  -0.006893  -0.000153
    11  C   -0.014828  -0.025812   0.006683   0.018559  -0.072071  -0.026240
    12  C    0.066860   0.028893   0.009135  -0.018623  -0.026821   0.006427
    13  C   -0.072796  -0.073307   0.022307  -0.015712   0.006357   0.002149
    14  C    0.382042   0.433671  -0.084493  -0.066230  -0.021976  -0.010293
    15  N    0.008296   0.012162  -0.062317  -0.065924   0.170931  -0.055332
    16  C   -0.046566  -0.071189   0.433666   0.420880  -0.078294   0.006067
    17  H    0.000000   0.000000   0.000000   0.000000  -0.000484   0.000000
    18  H    0.000000   0.000000   0.000000   0.000000  -0.000044   0.000000
    19  H    0.000000   0.000000   0.000000   0.000000   0.000010   0.000000
    20  H    0.000000   0.000000   0.000000   0.000000  -0.000110   0.000000
    21  H    0.000000   0.000000  -0.000003  -0.000011  -0.013093   0.000062
    22  H    0.000000   0.000000   0.000010   0.000056   0.002242  -0.000006
    23  H    0.000000   0.000000   0.000000  -0.000004  -0.000263   0.000000
    24  H    0.000000   0.000000   0.000000   0.000001  -0.000155   0.000000
    25  H    0.000000   0.000000   0.000000   0.000000   0.000134   0.000000
    26  H    0.000000   0.000000   0.000000   0.000000  -0.001057   0.000001
    27  H    0.000000   0.000002   0.000001  -0.000001  -0.015409   0.000160
    28  H    0.000000   0.000001   0.000000   0.000000  -0.001799  -0.000005
    29  H    0.000000   0.000000   0.000000   0.000000   0.000106   0.000000
    30  H    0.000000   0.000000   0.000000   0.000000   0.000012   0.000000
    31  H    0.000000   0.000000   0.000000   0.000000   0.000047   0.000000
    32  H   -0.000008   0.000162   0.000509   0.006633   0.005639  -0.000134
    33  H   -0.000116  -0.000031   0.000016   0.000035   0.001942   0.000006
    34  H   -0.000050   0.002506   0.000003   0.000061  -0.003702  -0.000035
    35  H   -0.005200   0.005199   0.000015   0.003076   0.002919   0.000003
    36  H   -0.002171  -0.005062  -0.000155  -0.000087   0.004312  -0.000004
    37  H    0.587602  -0.031296  -0.000278  -0.002454  -0.000439   0.000011
    38  H   -0.031296   0.580421  -0.004355   0.004922   0.011471   0.000366
    39  H   -0.000278  -0.004355   0.593447  -0.024165  -0.013195   0.005754
    40  H   -0.002454   0.004922  -0.024165   0.588768   0.000149   0.000515
    41  C   -0.000439   0.011471  -0.013195   0.000149   5.180223   0.432892
    42  H    0.000011   0.000366   0.005754   0.000515   0.432892   0.576121
    43  H    0.000007   0.000012   0.000529  -0.000094   0.421547  -0.020308
    44  H   -0.000098  -0.001558  -0.000961  -0.000470   0.431152  -0.039791
             43         44
     1  C   -0.014738   0.003645
     2  C   -0.000775   0.000330
     3  C    0.000985  -0.001149
     4  C   -0.067719   0.002888
     5  C    0.004819   0.005510
     6  C    0.053523   0.028663
     7  C   -0.002955  -0.001388
     8  C   -0.017218  -0.024864
     9  C   -0.002718   0.002784
    10  C    0.000389   0.000226
    11  C    0.026509   0.027533
    12  C    0.004673  -0.037410
    13  C    0.001248   0.012710
    14  C   -0.004531   0.005546
    15  N   -0.067138  -0.095327
    16  C    0.008457  -0.022504
    17  H   -0.000007   0.000000
    18  H    0.000000   0.000000
    19  H    0.000000   0.000000
    20  H    0.000000   0.000000
    21  H    0.001975   0.000158
    22  H    0.000111  -0.000013
    23  H   -0.000002   0.000000
    24  H   -0.000001   0.000000
    25  H    0.000001   0.000000
    26  H    0.000104   0.000003
    27  H   -0.000685   0.000310
    28  H    0.000125  -0.000022
    29  H   -0.000012   0.000001
    30  H    0.000000   0.000000
    31  H    0.000000   0.000000
    32  H    0.000115  -0.000359
    33  H    0.000019  -0.000208
    34  H    0.000052   0.000894
    35  H    0.000002  -0.000038
    36  H   -0.000002   0.000059
    37  H    0.000007  -0.000098
    38  H    0.000012  -0.001558
    39  H    0.000529  -0.000961
    40  H   -0.000094  -0.000470
    41  C    0.421547   0.431152
    42  H   -0.020308  -0.039791
    43  H    0.586875  -0.048032
    44  H   -0.048032   0.624078
 Mulliken atomic charges:
              1
     1  C    0.089673
     2  C   -0.426770
     3  C    0.008267
     4  C   -0.257943
     5  C   -0.417129
     6  C   -0.465398
     7  C   -0.404302
     8  C   -0.167426
     9  C   -0.008587
    10  C   -0.411537
    11  C   -0.128662
    12  C    0.011905
    13  C   -0.442294
    14  C   -0.196550
    15  N    0.053998
    16  C   -0.063674
    17  H    0.114377
    18  H    0.130320
    19  H    0.128727
    20  H    0.115005
    21  H    0.145848
    22  H    0.137147
    23  H    0.134889
    24  H    0.134217
    25  H    0.129474
    26  H    0.128681
    27  H    0.133022
    28  H    0.142608
    29  H    0.114569
    30  H    0.129909
    31  H    0.129580
    32  H    0.102603
    33  H    0.131833
    34  H    0.140086
    35  H    0.137262
    36  H    0.133961
    37  H    0.130800
    38  H    0.136382
    39  H    0.124664
    40  H    0.131173
    41  C   -0.282686
    42  H    0.129420
    43  H    0.134856
    44  H    0.127701
 Sum of Mulliken atomic charges =   0.00000
 Mulliken charges with hydrogens summed into heavy atoms:
              1
     1  C    0.204050
     2  C   -0.167724
     3  C    0.123272
     4  C    0.025052
     5  C   -0.148023
     6  C   -0.465398
     7  C   -0.146148
     8  C    0.108205
     9  C    0.105982
    10  C   -0.152048
    11  C   -0.026059
    12  C    0.283824
    13  C   -0.171071
    14  C    0.070632
    15  N    0.053998
    16  C    0.192163
    41  C    0.109290
 Sum of Mulliken charges with hydrogens summed into heavy atoms =   0.00000
 Electronic spatial extent (au):  <R**2>=           4215.4049
 Charge=              0.0000 electrons
 Dipole moment (field-independent basis, Debye):
    X=              0.3817    Y=             -0.4012    Z=              0.4734  Tot=              0.7286
 Quadrupole moment (field-independent basis, Debye-Ang):
   XX=           -107.4822   YY=           -109.6278   ZZ=           -109.6363
   XY=              0.0900   XZ=              0.3656   YZ=              1.5744
 Traceless Quadrupole moment (field-independent basis, Debye-Ang):
   XX=              1.4332   YY=             -0.7124   ZZ=             -0.7209
   XY=              0.0900   XZ=              0.3656   YZ=              1.5744
 Octapole moment (field-independent basis, Debye-Ang**2):
  XXX=             13.1889  YYY=              3.8561  ZZZ=             -2.1464  XYY=              3.1858
  XXY=              4.3192  XXZ=             -1.6745  XZZ=              3.0874  YZZ=             -1.1840
  YYZ=              3.1064  XYZ=              1.9914
 Hexadecapole moment (field-independent basis, Debye-Ang**3):
 XXXX=          -4169.9142 YYYY=          -1035.1592 ZZZZ=           -743.1789 XXXY=             18.9277
 XXXZ=            -16.5033 YYYX=             14.5959 YYYZ=              1.6701 ZZZX=             -3.8863
 ZZZY=              0.8841 XXYY=           -873.0432 XXZZ=           -827.6849 YYZZ=           -301.0965
 XXYZ=              0.7784 YYXZ=              6.5399 ZZXY=             -3.6456
 N-N= 1.378762598718D+03 E-N=-4.331987492120D+03  KE= 6.741022437572D+02
 1\1\GINC-ROCK\FOpt\RB3LYP\6-31+G(d,p)\C16H27N1\STYLIANAKIS\27-Mar-2016
 \0\\# opt b3lyp/6-31+g(d,p)\\2-(1-Ad)N-Meax-pip-trans\\0,1\C,-2.479262
 8142,0.2157357311,-1.2631490574\C,-2.6308158943,1.7399866443,-1.088924
 1502\C,-1.2348508562,2.3936963789,-1.1129352444\C,-1.6196106931,-0.358
 2359333,-0.1181450678\C,-0.3747008103,1.8080577221,0.0256986115\C,-0.1
 988462138,0.2653123935,-0.1197285544\C,-1.7964127633,-0.0796847792,-2.
 6149928225\C,0.466620984,0.0126303913,-1.5026653615\C,-0.4036712586,0.
 5839496144,-2.6442168258\C,-0.5561489763,2.1073706797,-2.4673077278\C,
 0.6211740631,-0.2464823213,1.1106023484\C,2.1214819247,0.135020176,1.1
 105135382\C,2.7454689781,-0.1480272373,2.4904951173\C,2.477174003,-1.5
 924137093,2.9424475304\N,0.430799483,-1.6769633714,1.4638694253\C,0.98
 06304325,-1.9297255395,2.8042554977\H,-3.4696961367,-0.2579847629,-1.2
 403288453\H,-3.1359882451,1.9627426218,-0.139177229\H,-3.2575578441,2.
 1549207155,-1.8901579683\H,-1.3304316678,3.4781182421,-0.9681280434\H,
 -1.5590007839,-1.4471764172,-0.2089900769\H,-2.099225673,-0.1620057236
 ,0.8503857023\H,-0.8464553386,2.0290419226,0.9933203735\H,0.6043788144
 ,2.3035344115,0.0300827798\H,-2.4121466215,0.2992212735,-3.44214586\H,
 -1.7003628732,-1.1645619595,-2.7598650421\H,0.6234916625,-1.0570490992
 ,-1.6747490767\H,1.4572103845,0.4842258299,-1.5306846283\H,0.085206771
 6,0.3721072285,-3.6045436938\H,-1.1538263617,2.5277742985,-3.287594622
 1\H,0.4287732022,2.592677923,-2.5078505304\H,0.1718555076,0.281974488,
 1.9659197007\H,2.2520847077,1.1933223695,0.8586660468\H,2.6566792382,-
 0.4351858254,0.3408678616\H,2.308426034,0.5447237682,3.2251029671\H,3.
 8231189984,0.0566279429,2.4729781117\H,2.7960844252,-1.7376472213,3.98
 28325896\H,3.0711504358,-2.2876911537,2.3339057103\H,0.7939386091,-2.9
 792541837,3.0606960489\H,0.407991091,-1.3208196809,3.5182795993\C,0.87
 06154643,-2.6743835544,0.4898129034\H,0.755891668,-3.6670212038,0.9376
 882737\H,0.236628276,-2.6480956752,-0.3989003789\H,1.9186289067,-2.580
 6250551,0.1558061892\\Version=EM64L-G09RevA.01\State=1-A\HF=-680.77377
 58\RMSD=5.945e-09\RMSF=1.981e-05\Dipole=0.2853894,0.0266877,-0.0019882
 \Quadrupole=-0.580195,0.3660462,0.2141488,-1.0841506,0.889233,0.275304
 6\PG=C01 [X(C16H27N1)]\\@


 IN THE WOODS WE RETURN TO REASON AND FAITH.

                                 -- EMERSON
 Job cpu time:  0 days 15 hours 22 minutes 56.8 seconds.
 File lengths (MBytes):  RWF=    133 Int=      0 D2E=      0 Chk=     15 Scr=      1
 Normal termination of Gaussian 09 at Sun Mar 27 00:55:04 2016.
