 Entering Gaussian System, Link 0=g09
 Input=3-3diMe-N-Me-azetidine-NI.gjf
 Output=3-3diMe-N-Me-azetidine-NI.out
 Initial command:
 /usr/local/g09/l1.exe /home/scratch/stylianakis/Gau-27590.inp -scrdir=/home/scratch/stylianakis/
 Entering Link 1 = /usr/local/g09/l1.exe PID=     27592.
  
 Copyright (c) 1988,1990,1992,1993,1995,1998,2003,2009, Gaussian, Inc.
                  All Rights Reserved.
  
 This is part of the Gaussian(R) 09 program.  It is based on
 the Gaussian(R) 03 system (copyright 2003, Gaussian, Inc.),
 the Gaussian(R) 98 system (copyright 1998, Gaussian, Inc.),
 the Gaussian(R) 94 system (copyright 1995, Gaussian, Inc.),
 the Gaussian 92(TM) system (copyright 1992, Gaussian, Inc.),
 the Gaussian 90(TM) system (copyright 1990, Gaussian, Inc.),
 the Gaussian 88(TM) system (copyright 1988, Gaussian, Inc.),
 the Gaussian 86(TM) system (copyright 1986, Carnegie Mellon
 University), and the Gaussian 82(TM) system (copyright 1983,
 Carnegie Mellon University). Gaussian is a federally registered
 trademark of Gaussian, Inc.
  
 This software contains proprietary and confidential information,
 including trade secrets, belonging to Gaussian, Inc.
  
 This software is provided under written license and may be
 used, copied, transmitted, or stored only in accord with that
 written license.
  
 The following legend is applicable only to US Government
 contracts under FAR:
  
                    RESTRICTED RIGHTS LEGEND
  
 Use, reproduction and disclosure by the US Government is
 subject to restrictions as set forth in subparagraphs (a)
 and (c) of the Commercial Computer Software - Restricted
 Rights clause in FAR 52.227-19.
  
 Gaussian, Inc.
 340 Quinnipiac St., Bldg. 40, Wallingford CT 06492
  
  
 ---------------------------------------------------------------
 Warning -- This program may not be used in any manner that
 competes with the business of Gaussian, Inc. or will provide
 assistance to any competitor of Gaussian, Inc.  The licensee
 of this program is prohibited from giving any competitor of
 Gaussian, Inc. access to this program.  By using this program,
 the user acknowledges that Gaussian, Inc. is engaged in the
 business of creating and licensing software in the field of
 computational chemistry and represents and warrants to the
 licensee that it is not a competitor of Gaussian, Inc. and that
 it will not use this program in any manner prohibited above.
 ---------------------------------------------------------------
  

 Cite this work as:
 Gaussian 09, Revision A.01,
 M. J. Frisch, G. W. Trucks, H. B. Schlegel, G. E. Scuseria, 
 M. A. Robb, J. R. Cheeseman, G. Scalmani, V. Barone, B. Mennucci, 
 G. A. Petersson, H. Nakatsuji, M. Caricato, X. Li, H. P. Hratchian, 
 A. F. Izmaylov, J. Bloino, G. Zheng, J. L. Sonnenberg, M. Hada, 
 M. Ehara, K. Toyota, R. Fukuda, J. Hasegawa, M. Ishida, T. Nakajima, 
 Y. Honda, O. Kitao, H. Nakai, T. Vreven, J. A. Montgomery, Jr., 
 J. E. Peralta, F. Ogliaro, M. Bearpark, J. J. Heyd, E. Brothers, 
 K. N. Kudin, V. N. Staroverov, R. Kobayashi, J. Normand, 
 K. Raghavachari, A. Rendell, J. C. Burant, S. S. Iyengar, J. Tomasi, 
 M. Cossi, N. Rega, J. M. Millam, M. Klene, J. E. Knox, J. B. Cross, 
 V. Bakken, C. Adamo, J. Jaramillo, R. Gomperts, R. E. Stratmann, 
 O. Yazyev, A. J. Austin, R. Cammi, C. Pomelli, J. W. Ochterski, 
 R. L. Martin, K. Morokuma, V. G. Zakrzewski, G. A. Voth, 
 P. Salvador, J. J. Dannenberg, S. Dapprich, A. D. Daniels, 
 O. Farkas, J. B. Foresman, J. V. Ortiz, J. Cioslowski, 
 and D. J. Fox, Gaussian, Inc., Wallingford CT, 2009.
 
 ******************************************
 Gaussian 09:  EM64L-G09RevA.01  8-May-2009
                27-Mar-2016 
 ******************************************
 %mem=16000Mb
 %nproc=8
 Will use up to    8 processors via shared memory.
 -----------------------
 # opt b3lyp/6-31+g(d,p)
 -----------------------
 1/14=-1,18=20,19=15,26=3,38=1/1,3;
 2/9=110,12=2,17=6,18=5,40=1/2;
 3/5=1,6=6,7=111,11=2,16=1,25=1,30=1,71=1,74=-5/1,2,3;
 4//1;
 5/5=2,38=5/2;
 6/7=2,8=2,9=2,10=2,28=1/1;
 7//1,2,3,16;
 1/14=-1,18=20,19=15/3(2);
 2/9=110/2;
 99//99;
 2/9=110/2;
 3/5=1,6=6,7=111,11=2,16=1,25=1,30=1,71=1,74=-5/1,2,3;
 4/5=5,16=3/1;
 5/5=2,38=5/2;
 7//1,2,3,16;
 1/14=-1,18=20,19=15/3(-5);
 2/9=110/2;
 6/7=2,8=2,9=2,10=2,19=2,28=1/1;
 99/9=1/99;
 -------------------------
 3,3diMe-N-Me-azetidine-NI
 -------------------------
 Symbolic Z-matrix:
 Charge =  0 Multiplicity = 1
 C                    -0.57502  -0.56491   0.17673 
 C                    -0.60802   0.98709  -0.01327 
 C                     0.96198  -0.63791  -0.10227 
 N                     0.79198   0.77809  -0.24127 
 C                    -1.40502  -1.30891  -0.87627 
 C                    -0.93802  -0.99391   1.60373 
 C                     1.78598   1.75409  -0.55027 
 H                    -0.78702   1.58509   0.90973 
 H                    -1.11802   1.35209  -0.93427 
 H                     1.25798  -1.10691  -1.06927 
 H                     1.60198  -0.88891   0.77373 
 H                    -1.13702  -0.99391  -1.91027 
 H                    -1.23902  -2.40791  -0.80227 
 H                    -2.49102  -1.11091  -0.73127 
 H                    -2.01202  -0.78691   1.81373 
 H                    -0.76002  -2.08391   1.74273 
 H                    -0.33302  -0.45091   2.36473 
 H                     1.85098   1.87509  -1.65527 
 H                     1.51598   2.73009  -0.08727 
 H                     2.77498   1.42809  -0.15627 
 

 GradGradGradGradGradGradGradGradGradGradGradGradGradGradGradGradGradGrad
 Berny optimization.
 Initialization pass.
                           ----------------------------
                           !    Initial Parameters    !
                           ! (Angstroms and Degrees)  !
 --------------------------                            --------------------------
 ! Name  Definition              Value          Derivative Info.                !
 --------------------------------------------------------------------------------
 ! R1    R(1,2)                  1.5639         estimate D2E/DX2                !
 ! R2    R(1,3)                  1.5638         estimate D2E/DX2                !
 ! R3    R(1,5)                  1.5334         estimate D2E/DX2                !
 ! R4    R(1,6)                  1.5337         estimate D2E/DX2                !
 ! R5    R(2,4)                  1.4338         estimate D2E/DX2                !
 ! R6    R(2,8)                  1.1143         estimate D2E/DX2                !
 ! R7    R(2,9)                  1.1143         estimate D2E/DX2                !
 ! R8    R(3,4)                  1.4329         estimate D2E/DX2                !
 ! R9    R(3,10)                 1.1147         estimate D2E/DX2                !
 ! R10   R(3,11)                 1.1135         estimate D2E/DX2                !
 ! R11   R(4,7)                  1.4269         estimate D2E/DX2                !
 ! R12   R(5,12)                 1.1136         estimate D2E/DX2                !
 ! R13   R(5,13)                 1.1139         estimate D2E/DX2                !
 ! R14   R(5,14)                 1.1134         estimate D2E/DX2                !
 ! R15   R(6,15)                 1.1137         estimate D2E/DX2                !
 ! R16   R(6,16)                 1.1132         estimate D2E/DX2                !
 ! R17   R(6,17)                 1.1136         estimate D2E/DX2                !
 ! R18   R(7,18)                 1.1135         estimate D2E/DX2                !
 ! R19   R(7,19)                 1.1135         estimate D2E/DX2                !
 ! R20   R(7,20)                 1.1134         estimate D2E/DX2                !
 ! A1    A(2,1,3)               92.6015         estimate D2E/DX2                !
 ! A2    A(2,1,5)              112.7463         estimate D2E/DX2                !
 ! A3    A(2,1,6)              112.6829         estimate D2E/DX2                !
 ! A4    A(3,1,5)              112.7579         estimate D2E/DX2                !
 ! A5    A(3,1,6)              112.6792         estimate D2E/DX2                !
 ! A6    A(5,1,6)              112.0317         estimate D2E/DX2                !
 ! A7    A(1,2,4)               81.6081         estimate D2E/DX2                !
 ! A8    A(1,2,8)              115.8068         estimate D2E/DX2                !
 ! A9    A(1,2,9)              115.7947         estimate D2E/DX2                !
 ! A10   A(4,2,8)              111.5197         estimate D2E/DX2                !
 ! A11   A(4,2,9)              111.2991         estimate D2E/DX2                !
 ! A12   A(8,2,9)              115.8078         estimate D2E/DX2                !
 ! A13   A(1,3,4)               81.638          estimate D2E/DX2                !
 ! A14   A(1,3,10)             115.8094         estimate D2E/DX2                !
 ! A15   A(1,3,11)             115.7889         estimate D2E/DX2                !
 ! A16   A(4,3,10)             111.2912         estimate D2E/DX2                !
 ! A17   A(4,3,11)             111.5456         estimate D2E/DX2                !
 ! A18   A(10,3,11)            115.7832         estimate D2E/DX2                !
 ! A19   A(2,4,3)              104.1504         estimate D2E/DX2                !
 ! A20   A(2,4,7)              127.9472         estimate D2E/DX2                !
 ! A21   A(3,4,7)              127.8992         estimate D2E/DX2                !
 ! A22   A(1,5,12)             111.722          estimate D2E/DX2                !
 ! A23   A(1,5,13)             110.6353         estimate D2E/DX2                !
 ! A24   A(1,5,14)             110.6253         estimate D2E/DX2                !
 ! A25   A(12,5,13)            107.7511         estimate D2E/DX2                !
 ! A26   A(12,5,14)            107.7792         estimate D2E/DX2                !
 ! A27   A(13,5,14)            108.1894         estimate D2E/DX2                !
 ! A28   A(1,6,15)             110.5908         estimate D2E/DX2                !
 ! A29   A(1,6,16)             110.6245         estimate D2E/DX2                !
 ! A30   A(1,6,17)             111.7695         estimate D2E/DX2                !
 ! A31   A(15,6,16)            108.219          estimate D2E/DX2                !
 ! A32   A(15,6,17)            107.724          estimate D2E/DX2                !
 ! A33   A(16,6,17)            107.7746         estimate D2E/DX2                !
 ! A34   A(4,7,18)             109.2619         estimate D2E/DX2                !
 ! A35   A(4,7,19)             109.9122         estimate D2E/DX2                !
 ! A36   A(4,7,20)             109.9913         estimate D2E/DX2                !
 ! A37   A(18,7,19)            109.3624         estimate D2E/DX2                !
 ! A38   A(18,7,20)            109.3378         estimate D2E/DX2                !
 ! A39   A(19,7,20)            108.9592         estimate D2E/DX2                !
 ! D1    D(3,1,2,4)             -0.3198         estimate D2E/DX2                !
 ! D2    D(3,1,2,8)           -110.2291         estimate D2E/DX2                !
 ! D3    D(3,1,2,9)            109.3442         estimate D2E/DX2                !
 ! D4    D(5,1,2,4)           -116.3563         estimate D2E/DX2                !
 ! D5    D(5,1,2,8)            133.7344         estimate D2E/DX2                !
 ! D6    D(5,1,2,9)             -6.6923         estimate D2E/DX2                !
 ! D7    D(6,1,2,4)            115.6129         estimate D2E/DX2                !
 ! D8    D(6,1,2,8)              5.7036         estimate D2E/DX2                !
 ! D9    D(6,1,2,9)           -134.7232         estimate D2E/DX2                !
 ! D10   D(2,1,3,4)              0.32           estimate D2E/DX2                !
 ! D11   D(2,1,3,10)          -109.3492         estimate D2E/DX2                !
 ! D12   D(2,1,3,11)           110.2715         estimate D2E/DX2                !
 ! D13   D(5,1,3,4)            116.3464         estimate D2E/DX2                !
 ! D14   D(5,1,3,10)             6.6773         estimate D2E/DX2                !
 ! D15   D(5,1,3,11)          -133.7021         estimate D2E/DX2                !
 ! D16   D(6,1,3,4)           -115.6159         estimate D2E/DX2                !
 ! D17   D(6,1,3,10)           134.7149         estimate D2E/DX2                !
 ! D18   D(6,1,3,11)            -5.6644         estimate D2E/DX2                !
 ! D19   D(2,1,5,12)            51.6548         estimate D2E/DX2                !
 ! D20   D(2,1,5,13)           171.702          estimate D2E/DX2                !
 ! D21   D(2,1,5,14)           -68.4211         estimate D2E/DX2                !
 ! D22   D(3,1,5,12)           -51.598          estimate D2E/DX2                !
 ! D23   D(3,1,5,13)            68.4491         estimate D2E/DX2                !
 ! D24   D(3,1,5,14)          -171.6739         estimate D2E/DX2                !
 ! D25   D(6,1,5,12)          -179.974          estimate D2E/DX2                !
 ! D26   D(6,1,5,13)           -59.9268         estimate D2E/DX2                !
 ! D27   D(6,1,5,14)            59.9501         estimate D2E/DX2                !
 ! D28   D(2,1,6,15)            68.4319         estimate D2E/DX2                !
 ! D29   D(2,1,6,16)          -171.6835         estimate D2E/DX2                !
 ! D30   D(2,1,6,17)           -51.5823         estimate D2E/DX2                !
 ! D31   D(3,1,6,15)           171.6097         estimate D2E/DX2                !
 ! D32   D(3,1,6,16)           -68.5057         estimate D2E/DX2                !
 ! D33   D(3,1,6,17)            51.5955         estimate D2E/DX2                !
 ! D34   D(5,1,6,15)           -59.9727         estimate D2E/DX2                !
 ! D35   D(5,1,6,16)            59.9118         estimate D2E/DX2                !
 ! D36   D(5,1,6,17)          -179.987          estimate D2E/DX2                !
 ! D37   D(1,2,4,3)              0.3596         estimate D2E/DX2                !
 ! D38   D(1,2,4,7)            179.7452         estimate D2E/DX2                !
 ! D39   D(8,2,4,3)            114.8697         estimate D2E/DX2                !
 ! D40   D(8,2,4,7)            -65.7446         estimate D2E/DX2                !
 ! D41   D(9,2,4,3)           -114.1339         estimate D2E/DX2                !
 ! D42   D(9,2,4,7)             65.2517         estimate D2E/DX2                !
 ! D43   D(1,3,4,2)             -0.3596         estimate D2E/DX2                !
 ! D44   D(1,3,4,7)           -179.7456         estimate D2E/DX2                !
 ! D45   D(10,3,4,2)           114.1603         estimate D2E/DX2                !
 ! D46   D(10,3,4,7)           -65.2257         estimate D2E/DX2                !
 ! D47   D(11,3,4,2)          -114.8619         estimate D2E/DX2                !
 ! D48   D(11,3,4,7)            65.7521         estimate D2E/DX2                !
 ! D49   D(2,4,7,18)           -89.7005         estimate D2E/DX2                !
 ! D50   D(2,4,7,19)            30.3073         estimate D2E/DX2                !
 ! D51   D(2,4,7,20)           150.2735         estimate D2E/DX2                !
 ! D52   D(3,4,7,18)            89.5446         estimate D2E/DX2                !
 ! D53   D(3,4,7,19)          -150.4477         estimate D2E/DX2                !
 ! D54   D(3,4,7,20)           -30.4814         estimate D2E/DX2                !
 --------------------------------------------------------------------------------
 Trust Radius=3.00D-01 FncErr=1.00D-07 GrdErr=1.00D-06
 Number of steps in this run= 120 maximum allowed number of steps= 120.
 GradGradGradGradGradGradGradGradGradGradGradGradGradGradGradGradGradGrad

                          Input orientation:                          
 ---------------------------------------------------------------------
 Center     Atomic      Atomic             Coordinates (Angstroms)
 Number     Number       Type             X           Y           Z
 ---------------------------------------------------------------------
      1          6           0       -0.575018   -0.564911    0.176732
      2          6           0       -0.608018    0.987089   -0.013268
      3          6           0        0.961982   -0.637911   -0.102268
      4          7           0        0.791982    0.778089   -0.241268
      5          6           0       -1.405018   -1.308911   -0.876268
      6          6           0       -0.938018   -0.993911    1.603732
      7          6           0        1.785982    1.754089   -0.550268
      8          1           0       -0.787018    1.585089    0.909732
      9          1           0       -1.118018    1.352089   -0.934268
     10          1           0        1.257982   -1.106911   -1.069268
     11          1           0        1.601982   -0.888911    0.773732
     12          1           0       -1.137018   -0.993911   -1.910268
     13          1           0       -1.239018   -2.407911   -0.802268
     14          1           0       -2.491018   -1.110911   -0.731268
     15          1           0       -2.012018   -0.786911    1.813732
     16          1           0       -0.760018   -2.083911    1.742732
     17          1           0       -0.333018   -0.450911    2.364732
     18          1           0        1.850982    1.875089   -1.655268
     19          1           0        1.515982    2.730089   -0.087268
     20          1           0        2.774982    1.428089   -0.156268
 ---------------------------------------------------------------------
                    Distance matrix (angstroms):
                    1          2          3          4          5
     1  C    0.000000
     2  C    1.563935   0.000000
     3  C    1.563822   2.261293   0.000000
     4  N    1.961393   1.433759   1.432926   0.000000
     5  C    1.533377   2.579068   2.579148   3.096062   0.000000
     6  C    1.533668   2.578362   2.578211   3.088189   2.543170
     7  C    3.388305   2.570582   2.569308   1.426917   4.435169
     8  H    2.281388   1.114259   3.004143   2.114070   3.456437
     9  H    2.281241   1.114256   2.996452   2.111356   2.677061
    10  H    2.281703   2.996986   1.114749   2.110916   2.677615
    11  H    2.280507   3.003805   1.113543   2.113105   3.455568
    12  H    2.203509   2.793351   2.793099   3.105895   1.113645
    13  H    2.189974   3.542133   2.909863   3.819722   1.113927
    14  H    2.189437   2.909092   3.541550   3.819229   1.113384
    15  H    2.189526   2.907958   3.540894   3.812436   2.806605
    16  H    2.189507   3.540859   2.908647   3.812611   2.806388
    17  H    2.204292   2.792553   2.792505   3.093106   3.519862
    18  H    3.898115   3.087295   3.085012   2.079492   4.620198
    19  H    3.911394   2.748618   3.413292   2.087629   5.046611
    20  H    3.912217   3.414618   2.749226   2.088544   5.047967
                    6          7          8          9         10
     6  C    0.000000
     7  C    4.428476   0.000000
     8  H    2.675010   2.963189   0.000000
     9  H    3.460861   2.956734   1.887905   0.000000
    10  H    3.461230   2.955244   3.917312   3.422029   0.000000
    11  H    2.674234   2.961804   3.441873   3.916343   1.887461
    12  H    3.519630   4.236158   3.837465   2.540994   2.540881
    13  H    2.806926   5.151347   4.367985   3.764262   2.828232
    14  H    2.806728   5.151089   3.586769   2.827138   3.764208
    15  H    1.113744   5.144899   2.818550   3.595283   4.371154
    16  H    1.113151   5.144921   3.762470   4.370422   3.596414
    17  H    1.113551   4.224856   2.543312   3.840630   3.841090
    18  H    5.160500   1.113504   3.690849   3.099731   3.096348
    19  H    4.769672   1.113483   2.758413   3.090995   3.969062
    20  H    4.769702   1.113388   3.721404   3.970706   3.092100
                   11         12         13         14         15
    11  H    0.000000
    12  H    3.836274   0.000000
    13  H    3.586421   1.799295   0.000000
    14  H    4.366573   1.799179   1.804094   0.000000
    15  H    3.762047   3.831012   3.173110   2.609874   0.000000
    16  H    2.818870   3.830749   2.609874   3.172344   1.804094
    17  H    2.543099   4.383707   3.831524   3.831159   1.798760
    18  H    3.688053   4.150220   5.349747   5.350041   5.834636
    19  H    3.721005   4.922389   5.873695   5.587850   5.331967
    20  H    2.758499   4.924058   5.589670   5.874343   5.630497
                   16         17         18         19         20
    16  H    0.000000
    17  H    1.798861   0.000000
    18  H    5.834159   5.132303   0.000000
    19  H    5.630601   4.421523   1.817106   0.000000
    20  H    5.332595   4.421057   1.816751   1.812470   0.000000
 Stoichiometry    C6H13N
 Framework group  C1[X(C6H13N)]
 Deg. of freedom    54
 Full point group                 C1      NOp   1
 Largest Abelian subgroup         C1      NOp   1
 Largest concise Abelian subgroup C1      NOp   1
                         Standard orientation:                         
 ---------------------------------------------------------------------
 Center     Atomic      Atomic             Coordinates (Angstroms)
 Number     Number       Type             X           Y           Z
 ---------------------------------------------------------------------
      1          6           0       -0.825230    0.000322   -0.000064
      2          6           0        0.254801    0.002779    1.131051
      3          6           0        0.255616    0.003430   -1.130242
      4          7           0        1.136161   -0.002543    0.000192
      5          6           0       -1.686870    1.268715    0.000160
      6          6           0       -1.677944   -1.274440   -0.000833
      7          6           0        2.563075    0.000374   -0.000212
      8          1           0        0.341351   -0.938426    1.721149
      9          1           0        0.346861    0.949446    1.711492
     10          1           0        0.348323    0.950706   -1.710536
     11          1           0        0.341819   -0.936717   -1.720724
     12          1           0       -1.062693    2.190999    0.000248
     13          1           0       -2.339287    1.300256   -0.902165
     14          1           0       -2.339163    1.299572    0.901929
     15          1           0       -2.329661   -1.310285    0.901611
     16          1           0       -2.329785   -1.309600   -0.902482
     17          1           0       -1.048006   -2.192684   -0.000758
     18          1           0        2.928256    1.052293   -0.001445
     19          1           0        2.943630   -0.521456    0.906825
     20          1           0        2.944532   -0.523381   -0.905643
 ---------------------------------------------------------------------
 Rotational constants (GHZ):      4.6751590      1.8522014      1.7671937
 Standard basis: 6-31+G(d,p) (6D, 7F)
 There are   198 symmetry adapted basis functions of A   symmetry.
 Integral buffers will be    131072 words long.
 Raffenetti 2 integral format.
 Two-electron integral symmetry is turned on.
   198 basis functions,   315 primitive gaussians,   198 cartesian basis functions
    28 alpha electrons       28 beta electrons
       nuclear repulsion energy       330.9225331007 Hartrees.
 NAtoms=   20 NActive=   20 NUniq=   20 SFac= 7.50D-01 NAtFMM=   80 NAOKFM=F Big=F
 One-electron integrals computed using PRISM.
 NBasis=   198 RedAO= T  NBF=   198
 NBsUse=   198 1.00D-06 NBFU=   198
 Harris functional with IExCor=  402 diagonalized for initial guess.
 ExpMin= 4.38D-02 ExpMax= 4.17D+03 ExpMxC= 6.27D+02 IAcc=2 IRadAn=         0 AccDes= 0.00D+00
 HarFok:  IExCor=  402 AccDes= 0.00D+00 IRadAn=         0 IDoV= 1
 ScaDFX=  1.000000  1.000000  1.000000  1.000000
 FoFCou: FMM=F IPFlag=           0 FMFlag=      100000 FMFlg1=           0
         NFxFlg=           0 DoJE=T BraDBF=F KetDBF=T FulRan=T
         Omega=  0.000000  0.000000  1.000000  0.000000  0.000000 ICntrl=     500 IOpCl=  0
         NMat0=    1 NMatS0=    1 NMatT0=    0 NMatD0=    1 NMtDS0=    0 NMtDT0=    0
         I1Cent=           4 NGrid=           0.
 Petite list used in FoFCou.
 Initial guess orbital symmetries:
       Occupied  (A) (A) (A) (A) (A) (A) (A) (A) (A) (A) (A) (A)
                 (A) (A) (A) (A) (A) (A) (A) (A) (A) (A) (A) (A)
                 (A) (A) (A) (A)
       Virtual   (A) (A) (A) (A) (A) (A) (A) (A) (A) (A) (A) (A)
                 (A) (A) (A) (A) (A) (A) (A) (A) (A) (A) (A) (A)
                 (A) (A) (A) (A) (A) (A) (A) (A) (A) (A) (A) (A)
                 (A) (A) (A) (A) (A) (A) (A) (A) (A) (A) (A) (A)
                 (A) (A) (A) (A) (A) (A) (A) (A) (A) (A) (A) (A)
                 (A) (A) (A) (A) (A) (A) (A) (A) (A) (A) (A) (A)
                 (A) (A) (A) (A) (A) (A) (A) (A) (A) (A) (A) (A)
                 (A) (A) (A) (A) (A) (A) (A) (A) (A) (A) (A) (A)
                 (A) (A) (A) (A) (A) (A) (A) (A) (A) (A) (A) (A)
                 (A) (A) (A) (A) (A) (A) (A) (A) (A) (A) (A) (A)
                 (A) (A) (A) (A) (A) (A) (A) (A) (A) (A) (A) (A)
                 (A) (A) (A) (A) (A) (A) (A) (A) (A) (A) (A) (A)
                 (A) (A) (A) (A) (A) (A) (A) (A) (A) (A) (A) (A)
                 (A) (A) (A) (A) (A) (A) (A) (A) (A) (A) (A) (A)
                 (A) (A)
 The electronic state of the initial guess is 1-A.
 Requested convergence on RMS density matrix=1.00D-08 within 128 cycles.
 Requested convergence on MAX density matrix=1.00D-06.
 Requested convergence on             energy=1.00D-06.
 No special actions if energy rises.
 Keep R1 ints in memory in canonical form, NReq=198326398.
 SCF Done:  E(RB3LYP) =  -291.183311662     A.U. after   12 cycles
             Convg  =    0.6256D-08             -V/T =  2.0104

 **********************************************************************

            Population analysis using the SCF density.

 **********************************************************************

 Orbital symmetries:
       Occupied  (A) (A) (A) (A) (A) (A) (A) (A) (A) (A) (A) (A)
                 (A) (A) (A) (A) (A) (A) (A) (A) (A) (A) (A) (A)
                 (A) (A) (A) (A)
       Virtual   (A) (A) (A) (A) (A) (A) (A) (A) (A) (A) (A) (A)
                 (A) (A) (A) (A) (A) (A) (A) (A) (A) (A) (A) (A)
                 (A) (A) (A) (A) (A) (A) (A) (A) (A) (A) (A) (A)
                 (A) (A) (A) (A) (A) (A) (A) (A) (A) (A) (A) (A)
                 (A) (A) (A) (A) (A) (A) (A) (A) (A) (A) (A) (A)
                 (A) (A) (A) (A) (A) (A) (A) (A) (A) (A) (A) (A)
                 (A) (A) (A) (A) (A) (A) (A) (A) (A) (A) (A) (A)
                 (A) (A) (A) (A) (A) (A) (A) (A) (A) (A) (A) (A)
                 (A) (A) (A) (A) (A) (A) (A) (A) (A) (A) (A) (A)
                 (A) (A) (A) (A) (A) (A) (A) (A) (A) (A) (A) (A)
                 (A) (A) (A) (A) (A) (A) (A) (A) (A) (A) (A) (A)
                 (A) (A) (A) (A) (A) (A) (A) (A) (A) (A) (A) (A)
                 (A) (A) (A) (A) (A) (A) (A) (A) (A) (A) (A) (A)
                 (A) (A) (A) (A) (A) (A) (A) (A) (A) (A) (A) (A)
                 (A) (A)
 The electronic state is 1-A.
 Alpha  occ. eigenvalues --  -14.30980 -10.20763 -10.20677 -10.20662 -10.20326
 Alpha  occ. eigenvalues --  -10.18344 -10.18319  -0.94706  -0.79145  -0.70970
 Alpha  occ. eigenvalues --   -0.68931  -0.68521  -0.57557  -0.52513  -0.48277
 Alpha  occ. eigenvalues --   -0.46961  -0.46330  -0.41455  -0.41232  -0.41166
 Alpha  occ. eigenvalues --   -0.40864  -0.37177  -0.36935  -0.35620  -0.33649
 Alpha  occ. eigenvalues --   -0.31626  -0.29215  -0.18560
 Alpha virt. eigenvalues --    0.00075   0.01790   0.02793   0.02999   0.04427
 Alpha virt. eigenvalues --    0.04776   0.04882   0.05016   0.05518   0.06465
 Alpha virt. eigenvalues --    0.06827   0.07788   0.08685   0.09184   0.10043
 Alpha virt. eigenvalues --    0.11030   0.11838   0.13831   0.14390   0.14782
 Alpha virt. eigenvalues --    0.15091   0.17281   0.17692   0.17897   0.18527
 Alpha virt. eigenvalues --    0.20481   0.21856   0.21934   0.22397   0.22960
 Alpha virt. eigenvalues --    0.24463   0.25419   0.25665   0.26549   0.27817
 Alpha virt. eigenvalues --    0.28548   0.29126   0.29142   0.29970   0.31912
 Alpha virt. eigenvalues --    0.32220   0.32875   0.33083   0.36861   0.37693
 Alpha virt. eigenvalues --    0.39313   0.43402   0.46063   0.61803   0.63263
 Alpha virt. eigenvalues --    0.63909   0.65933   0.67388   0.69159   0.70254
 Alpha virt. eigenvalues --    0.73891   0.74401   0.75502   0.77211   0.77219
 Alpha virt. eigenvalues --    0.81441   0.83961   0.85183   0.85833   0.87461
 Alpha virt. eigenvalues --    0.89133   0.95777   0.95912   0.96291   0.98103
 Alpha virt. eigenvalues --    0.99227   0.99928   1.00314   1.00877   1.01989
 Alpha virt. eigenvalues --    1.03398   1.06545   1.08234   1.09733   1.13043
 Alpha virt. eigenvalues --    1.14179   1.17528   1.25514   1.26989   1.31043
 Alpha virt. eigenvalues --    1.36984   1.38700   1.47932   1.49891   1.54628
 Alpha virt. eigenvalues --    1.65991   1.66612   1.68653   1.71198   1.75573
 Alpha virt. eigenvalues --    1.77506   1.83478   1.85678   1.86692   1.91442
 Alpha virt. eigenvalues --    1.91799   1.92047   1.97233   1.98900   2.01034
 Alpha virt. eigenvalues --    2.01885   2.03702   2.04023   2.05283   2.06329
 Alpha virt. eigenvalues --    2.07144   2.08745   2.09577   2.10183   2.13354
 Alpha virt. eigenvalues --    2.13755   2.14644   2.14999   2.18518   2.24243
 Alpha virt. eigenvalues --    2.29996   2.30831   2.33793   2.36207   2.38574
 Alpha virt. eigenvalues --    2.40878   2.45812   2.47416   2.52950   2.55383
 Alpha virt. eigenvalues --    2.56541   2.60389   2.65469   2.66345   2.68457
 Alpha virt. eigenvalues --    2.69996   2.71977   2.74707   2.74793   2.76374
 Alpha virt. eigenvalues --    2.77228   2.80736   2.84439   2.85283   2.87202
 Alpha virt. eigenvalues --    2.90528   2.94100   2.99032   3.00879   3.09960
 Alpha virt. eigenvalues --    3.21829   3.22976   3.23853   3.28097   3.39013
 Alpha virt. eigenvalues --    3.39116   3.41851   3.41976   3.42683   3.42701
 Alpha virt. eigenvalues --    3.45584   3.47698   3.50084   4.25422   4.39977
 Alpha virt. eigenvalues --    4.53507   4.56947   4.60253   4.67025   4.93581
          Condensed to atoms (all electrons):
              1          2          3          4          5          6
     1  C    7.548615  -0.230994  -0.231822  -0.491348  -0.280396  -0.029127
     2  C   -0.230994   5.378229   0.172394   0.338432  -0.022643  -0.101324
     3  C   -0.231822   0.172394   5.379336   0.338339  -0.022529  -0.101559
     4  N   -0.491348   0.338432   0.338339   7.525057   0.006359  -0.013434
     5  C   -0.280396  -0.022643  -0.022529   0.006359   5.920320  -0.409145
     6  C   -0.029127  -0.101324  -0.101559  -0.013434  -0.409145   5.878987
     7  C    0.205826  -0.190916  -0.191117   0.020155   0.025125   0.009304
     8  H   -0.027313   0.415242   0.001627  -0.089371  -0.031629   0.042686
     9  H   -0.117917   0.466334   0.030384  -0.096702   0.044183  -0.029600
    10  H   -0.118004   0.030277   0.466801  -0.096987   0.044200  -0.029658
    11  H   -0.027181   0.001742   0.415099  -0.089364  -0.031651   0.042669
    12  H   -0.101544  -0.018424  -0.018433   0.018827   0.475517  -0.006103
    13  H   -0.091781   0.005610  -0.012156  -0.000401   0.466140  -0.020302
    14  H   -0.091862  -0.012174   0.005607  -0.000399   0.466189  -0.020245
    15  H   -0.093737  -0.008659   0.007029  -0.000035  -0.022165   0.464582
    16  H   -0.093676   0.006975  -0.008639  -0.000024  -0.022100   0.464552
    17  H   -0.106544  -0.014557  -0.014617   0.019184  -0.005380   0.471884
    18  H   -0.038040   0.017398   0.017520  -0.118336   0.007912  -0.003703
    19  H   -0.002441   0.000964   0.006725  -0.059951  -0.002826   0.001649
    20  H   -0.002498   0.006779   0.000955  -0.059903  -0.002849   0.001683
              7          8          9         10         11         12
     1  C    0.205826  -0.027313  -0.117917  -0.118004  -0.027181  -0.101544
     2  C   -0.190916   0.415242   0.466334   0.030277   0.001742  -0.018424
     3  C   -0.191117   0.001627   0.030384   0.466801   0.415099  -0.018433
     4  N    0.020155  -0.089371  -0.096702  -0.096987  -0.089364   0.018827
     5  C    0.025125  -0.031629   0.044183   0.044200  -0.031651   0.475517
     6  C    0.009304   0.042686  -0.029600  -0.029658   0.042669  -0.006103
     7  C    5.151489  -0.007709   0.007187   0.007203  -0.007792   0.000910
     8  H   -0.007709   0.625652  -0.051122  -0.000938   0.001672   0.000110
     9  H    0.007187  -0.051122   0.626792   0.001806  -0.000940  -0.000062
    10  H    0.007203  -0.000938   0.001806   0.627087  -0.051203  -0.000063
    11  H   -0.007792   0.001672  -0.000940  -0.051203   0.625791   0.000111
    12  H    0.000910   0.000110  -0.000062  -0.000063   0.000111   0.561294
    13  H    0.000505  -0.000097   0.000150   0.000420   0.000165  -0.028515
    14  H    0.000507   0.000164   0.000424   0.000151  -0.000098  -0.028520
    15  H    0.000486   0.000365   0.000178  -0.000094   0.000135  -0.000014
    16  H    0.000489   0.000136  -0.000094   0.000177   0.000364  -0.000014
    17  H    0.001024  -0.000202   0.000126   0.000126  -0.000204  -0.000133
    18  H    0.444354  -0.001067   0.003882   0.003914  -0.001074  -0.000035
    19  H    0.404958   0.004445  -0.001735  -0.000331   0.000451   0.000008
    20  H    0.404905   0.000453  -0.000332  -0.001746   0.004467   0.000008
             13         14         15         16         17         18
     1  C   -0.091781  -0.091862  -0.093737  -0.093676  -0.106544  -0.038040
     2  C    0.005610  -0.012174  -0.008659   0.006975  -0.014557   0.017398
     3  C   -0.012156   0.005607   0.007029  -0.008639  -0.014617   0.017520
     4  N   -0.000401  -0.000399  -0.000035  -0.000024   0.019184  -0.118336
     5  C    0.466140   0.466189  -0.022165  -0.022100  -0.005380   0.007912
     6  C   -0.020302  -0.020245   0.464582   0.464552   0.471884  -0.003703
     7  C    0.000505   0.000507   0.000486   0.000489   0.001024   0.444354
     8  H   -0.000097   0.000164   0.000365   0.000136  -0.000202  -0.001067
     9  H    0.000150   0.000424   0.000178  -0.000094   0.000126   0.003882
    10  H    0.000420   0.000151  -0.000094   0.000177   0.000126   0.003914
    11  H    0.000165  -0.000098   0.000135   0.000364  -0.000204  -0.001074
    12  H   -0.028515  -0.028520  -0.000014  -0.000014  -0.000133  -0.000035
    13  H    0.561102  -0.027224  -0.000198   0.002898  -0.000014  -0.000001
    14  H   -0.027224   0.561014   0.002899  -0.000198  -0.000014  -0.000001
    15  H   -0.000198   0.002899   0.560706  -0.027034  -0.028499   0.000000
    16  H    0.002898  -0.000198  -0.027034   0.560498  -0.028467   0.000000
    17  H   -0.000014  -0.000014  -0.028499  -0.028467   0.560530   0.000006
    18  H   -0.000001  -0.000001   0.000000   0.000000   0.000006   0.623794
    19  H    0.000000  -0.000001  -0.000003   0.000000  -0.000003  -0.040100
    20  H   -0.000001   0.000000   0.000000  -0.000003  -0.000003  -0.040247
             19         20
     1  C   -0.002441  -0.002498
     2  C    0.000964   0.006779
     3  C    0.006725   0.000955
     4  N   -0.059951  -0.059903
     5  C   -0.002826  -0.002849
     6  C    0.001649   0.001683
     7  C    0.404958   0.404905
     8  H    0.004445   0.000453
     9  H   -0.001735  -0.000332
    10  H   -0.000331  -0.001746
    11  H    0.000451   0.004467
    12  H    0.000008   0.000008
    13  H    0.000000  -0.000001
    14  H   -0.000001   0.000000
    15  H   -0.000003   0.000000
    16  H    0.000000  -0.000003
    17  H   -0.000003  -0.000003
    18  H   -0.040100  -0.040247
    19  H    0.578963  -0.018392
    20  H   -0.018392   0.579085
 Mulliken atomic charges:
              1
     1  C    0.421783
     2  C   -0.240685
     3  C   -0.240942
     4  N   -0.150098
     5  C   -0.602632
     6  C   -0.613796
     7  C   -0.286893
     8  H    0.116896
     9  H    0.117057
    10  H    0.116863
    11  H    0.116840
    12  H    0.145072
    13  H    0.143701
    14  H    0.143780
    15  H    0.144056
    16  H    0.144160
    17  H    0.145756
    18  H    0.123824
    19  H    0.127620
    20  H    0.127638
 Sum of Mulliken atomic charges =   0.00000
 Mulliken charges with hydrogens summed into heavy atoms:
              1
     1  C    0.421783
     2  C   -0.006731
     3  C   -0.007240
     4  N   -0.150098
     5  C   -0.170079
     6  C   -0.179824
     7  C    0.092190
 Sum of Mulliken charges with hydrogens summed into heavy atoms =   0.00000
 Electronic spatial extent (au):  <R**2>=            857.9065
 Charge=              0.0000 electrons
 Dipole moment (field-independent basis, Debye):
    X=             -0.2003    Y=             -0.1038    Z=              0.0020  Tot=              0.2256
 Quadrupole moment (field-independent basis, Debye-Ang):
   XX=            -47.4391   YY=            -47.3445   ZZ=            -46.8396
   XY=             -0.3799   XZ=              0.0011   YZ=              0.0023
 Traceless Quadrupole moment (field-independent basis, Debye-Ang):
   XX=             -0.2314   YY=             -0.1368   ZZ=              0.3682
   XY=             -0.3799   XZ=              0.0011   YZ=              0.0023
 Octapole moment (field-independent basis, Debye-Ang**2):
  XXX=              1.9534  YYY=              0.0826  ZZZ=              0.0116  XYY=              1.8712
  XXY=             -1.6558  XXZ=             -0.0069  XZZ=              0.7688  YZZ=             -0.6307
  YYZ=              0.0041  XYZ=             -0.0016
 Hexadecapole moment (field-independent basis, Debye-Ang**3):
 XXXX=           -770.9682 YYYY=           -265.4175 ZZZZ=           -224.6262 XXXY=             -5.8616
 XXXZ=              0.0009 YYYX=              0.2672 YYYZ=              0.0095 ZZZX=              0.0170
 ZZZY=              0.0223 XXYY=           -177.5914 XXZZ=           -156.5312 YYZZ=            -80.5063
 XXYZ=              0.0072 YYXZ=              0.0019 ZZXY=             -1.5791
 N-N= 3.309225331007D+02 E-N=-1.335202273463D+03  KE= 2.881887928739D+02
 Calling FoFJK, ICntrl=      2127 FMM=F ISym2X=0 I1Cent= 0 IOpClX= 0 NMat=1 NMatS=1 NMatT=0.
 ***** Axes restored to original set *****
 -------------------------------------------------------------------
 Center     Atomic                   Forces (Hartrees/Bohr)
 Number     Number              X              Y              Z
 -------------------------------------------------------------------
      1        6          -0.031910272   -0.031348506    0.008983643
      2        6           0.025071890   -0.016007857   -0.003916670
      3        6          -0.015405068    0.025235880   -0.002113212
      4        7           0.036595673    0.035721484    0.000349981
      5        6          -0.006685291   -0.006628977   -0.003197517
      6        6          -0.004959246   -0.004663545    0.006708503
      7        6           0.002436170    0.002875638   -0.004859252
      8        1          -0.009631254   -0.001689712   -0.010307633
      9        1          -0.006703525    0.000652397    0.013093968
     10        1           0.001022372   -0.007388151    0.012842141
     11        1          -0.002330555   -0.009049276   -0.010376068
     12        1          -0.001957267   -0.002441635    0.010614750
     13        1          -0.002308363    0.010023746   -0.001292490
     14        1           0.009545738   -0.002516601   -0.001973893
     15        1           0.009883193   -0.002514152   -0.001124085
     16        1          -0.002108989    0.009715202   -0.000400588
     17        1          -0.005337270   -0.004753583   -0.008352284
     18        1           0.007306040    0.006830856    0.004682013
     19        1           0.004707193   -0.007144802   -0.005055610
     20        1          -0.007231170    0.005091594   -0.004305697
 -------------------------------------------------------------------
 Cartesian Forces:  Max     0.036595673 RMS     0.011910792

 GradGradGradGradGradGradGradGradGradGradGradGradGradGradGradGradGradGrad
 Berny optimization.
 Internal  Forces:  Max     0.027949250 RMS     0.007174903
 Search for a local minimum.
 Step number   1 out of a maximum of  120
 All quantities printed in internal units (Hartrees-Bohrs-Radians)
 Mixed Optimization -- RFO/linear search
 Second derivative matrix not updated -- first step.
     Eigenvalues ---    0.00321   0.00324   0.00556   0.01274   0.01336
     Eigenvalues ---    0.03135   0.03321   0.04080   0.04169   0.04184
     Eigenvalues ---    0.05439   0.05444   0.05548   0.05548   0.05712
     Eigenvalues ---    0.06937   0.07110   0.07776   0.07836   0.08804
     Eigenvalues ---    0.08825   0.08859   0.10756   0.16000   0.16000
     Eigenvalues ---    0.16000   0.16000   0.16000   0.16000   0.16000
     Eigenvalues ---    0.16000   0.16000   0.18564   0.24996   0.25380
     Eigenvalues ---    0.25767   0.29087   0.29114   0.32102   0.32153
     Eigenvalues ---    0.32154   0.32188   0.32207   0.32217   0.32227
     Eigenvalues ---    0.32228   0.32232   0.32234   0.32244   0.32244
     Eigenvalues ---    0.32269   0.36136   0.38739   0.414351000.00000
     Eigenvalues --- 1000.000001000.000001000.000001000.000001000.00000
     Eigenvalues --- 1000.000001000.000001000.000001000.000001000.00000
     Eigenvalues --- 1000.000001000.000001000.000001000.000001000.00000
     Eigenvalues --- 1000.000001000.000001000.000001000.000001000.00000
     Eigenvalues --- 1000.000001000.000001000.000001000.000001000.00000
     Eigenvalues --- 1000.000001000.000001000.000001000.000001000.00000
     Eigenvalues --- 1000.000001000.000001000.000001000.000001000.00000
     Eigenvalues --- 1000.000001000.000001000.000001000.000001000.00000
     Eigenvalues --- 1000.000001000.000001000.000001000.000001000.00000
     Eigenvalues --- 1000.000001000.000001000.000001000.000001000.00000
     Eigenvalues --- 1000.000001000.000001000.000001000.000001000.00000
     Eigenvalues --- 1000.000001000.000001000.00000
 RFO step:  Lambda=-2.95999196D-02 EMin= 3.20578021D-03
 Linear search not attempted -- first point.
 Maximum step size (   0.300) exceeded in Quadratic search.
    -- Step size scaled by   0.640
 Iteration  1 RMS(Cart)=  0.04003072 RMS(Int)=  0.00077568
 Iteration  2 RMS(Cart)=  0.00073441 RMS(Int)=  0.00053502
 Iteration  3 RMS(Cart)=  0.00000027 RMS(Int)=  0.00053502
 Variable       Old X    -DE/DX   Delta X   Delta X   Delta X     New X
                                 (Linear)    (Quad)   (Total)
    R1        2.95541   0.00570   0.00000   0.01806   0.01783   2.97324
    R2        2.95520   0.00570   0.00000   0.01811   0.01787   2.97306
    R3        2.89766  -0.00133   0.00000  -0.00266  -0.00266   2.89500
    R4        2.89821  -0.00173   0.00000  -0.00345  -0.00345   2.89476
    R5        2.70941   0.01761   0.00000   0.02170   0.02197   2.73138
    R6        2.10565  -0.00790   0.00000  -0.01439  -0.01439   2.09125
    R7        2.10564  -0.00754   0.00000  -0.01374  -0.01374   2.09190
    R8        2.70784   0.01811   0.00000   0.02243   0.02269   2.73052
    R9        2.10657  -0.00776   0.00000  -0.01416  -0.01416   2.09241
   R10        2.10429  -0.00746   0.00000  -0.01357  -0.01357   2.09072
   R11        2.69648   0.01233   0.00000   0.01777   0.01777   2.71425
   R12        2.10448  -0.01102   0.00000  -0.02004  -0.02004   2.08444
   R13        2.10502  -0.01032   0.00000  -0.01878  -0.01878   2.08623
   R14        2.10399  -0.01002   0.00000  -0.01820  -0.01820   2.08579
   R15        2.10467  -0.01021   0.00000  -0.01858  -0.01858   2.08609
   R16        2.10355  -0.00990   0.00000  -0.01798  -0.01798   2.08557
   R17        2.10431  -0.01092   0.00000  -0.01987  -0.01987   2.08444
   R18        2.10422  -0.00348   0.00000  -0.00632  -0.00632   2.09790
   R19        2.10418  -0.00951   0.00000  -0.01728  -0.01728   2.08689
   R20        2.10400  -0.00944   0.00000  -0.01715  -0.01715   2.08684
    A1        1.61620  -0.01303   0.00000  -0.05863  -0.05857   1.55763
    A2        1.96779   0.00538   0.00000   0.01621   0.01628   1.98408
    A3        1.96669   0.00513   0.00000   0.01561   0.01572   1.98241
    A4        1.96800   0.00536   0.00000   0.01619   0.01627   1.98426
    A5        1.96662   0.00515   0.00000   0.01568   0.01579   1.98241
    A6        1.95532  -0.00774   0.00000  -0.00992  -0.01037   1.94495
    A7        1.42433   0.02055   0.00000   0.06794   0.06762   1.49195
    A8        2.02121  -0.00325   0.00000  -0.01282  -0.01491   2.00630
    A9        2.02100  -0.00382   0.00000  -0.01686  -0.01928   2.00172
   A10        1.94639  -0.00231   0.00000   0.02032   0.02052   1.96690
   A11        1.94254  -0.00133   0.00000   0.02754   0.02802   1.97055
   A12        2.02123  -0.00303   0.00000  -0.04323  -0.04467   1.97656
   A13        1.42485   0.02042   0.00000   0.06775   0.06742   1.49227
   A14        2.02125  -0.00382   0.00000  -0.01702  -0.01944   2.00182
   A15        2.02090  -0.00323   0.00000  -0.01274  -0.01482   2.00607
   A16        1.94240  -0.00127   0.00000   0.02770   0.02819   1.97059
   A17        1.94684  -0.00228   0.00000   0.02027   0.02046   1.96730
   A18        2.02080  -0.00304   0.00000  -0.04320  -0.04464   1.97616
   A19        1.81777  -0.02795   0.00000  -0.07710  -0.07652   1.74125
   A20        2.23310   0.01390   0.00000   0.03835   0.03804   2.27114
   A21        2.23226   0.01404   0.00000   0.03867   0.03836   2.27062
   A22        1.94992  -0.00208   0.00000  -0.00761  -0.00760   1.94232
   A23        1.93095   0.00148   0.00000   0.00531   0.00530   1.93625
   A24        1.93078   0.00153   0.00000   0.00545   0.00544   1.93622
   A25        1.88061   0.00012   0.00000  -0.00014  -0.00013   1.88048
   A26        1.88110   0.00009   0.00000  -0.00027  -0.00026   1.88085
   A27        1.88826  -0.00121   0.00000  -0.00292  -0.00294   1.88532
   A28        1.93017   0.00154   0.00000   0.00552   0.00551   1.93568
   A29        1.93076   0.00150   0.00000   0.00529   0.00529   1.93605
   A30        1.95075  -0.00231   0.00000  -0.00838  -0.00837   1.94237
   A31        1.88878  -0.00123   0.00000  -0.00301  -0.00304   1.88574
   A32        1.88014   0.00024   0.00000   0.00034   0.00035   1.88049
   A33        1.88102   0.00022   0.00000   0.00011   0.00012   1.88114
   A34        1.90698   0.01511   0.00000   0.05350   0.05318   1.96016
   A35        1.91833   0.00098   0.00000   0.00206   0.00188   1.92021
   A36        1.91971   0.00075   0.00000   0.00126   0.00109   1.92080
   A37        1.90873  -0.00690   0.00000  -0.02079  -0.02110   1.88763
   A38        1.90830  -0.00683   0.00000  -0.02059  -0.02089   1.88742
   A39        1.90170  -0.00328   0.00000  -0.01600  -0.01602   1.88568
    D1       -0.00558  -0.00024   0.00000  -0.00326  -0.00327  -0.00885
    D2       -1.92386  -0.00709   0.00000  -0.05692  -0.05655  -1.98041
    D3        1.90842   0.00769   0.00000   0.05834   0.05781   1.96623
    D4       -2.03080  -0.00123   0.00000   0.00321   0.00335  -2.02745
    D5        2.33411  -0.00807   0.00000  -0.05044  -0.04993   2.28418
    D6       -0.11680   0.00670   0.00000   0.06482   0.06444  -0.05237
    D7        2.01783   0.00045   0.00000  -0.01039  -0.01046   2.00736
    D8        0.09955  -0.00640   0.00000  -0.06405  -0.06373   0.03581
    D9       -2.35136   0.00838   0.00000   0.05121   0.05063  -2.30074
   D10        0.00558   0.00024   0.00000   0.00326   0.00327   0.00886
   D11       -1.90850  -0.00769   0.00000  -0.05846  -0.05792  -1.96643
   D12        1.92460   0.00706   0.00000   0.05675   0.05638   1.98098
   D13        2.03063   0.00123   0.00000  -0.00321  -0.00334   2.02728
   D14        0.11654  -0.00670   0.00000  -0.06493  -0.06454   0.05200
   D15       -2.33354   0.00805   0.00000   0.05028   0.04976  -2.28378
   D16       -2.01788  -0.00043   0.00000   0.01045   0.01052  -2.00736
   D17        2.35122  -0.00837   0.00000  -0.05127  -0.05068   2.30054
   D18       -0.09886   0.00638   0.00000   0.06393   0.06362  -0.03525
   D19        0.90155  -0.00502   0.00000  -0.02682  -0.02686   0.87469
   D20        2.99676  -0.00523   0.00000  -0.02846  -0.02851   2.96826
   D21       -1.19417  -0.00479   0.00000  -0.02511  -0.02515  -1.21932
   D22       -0.90056   0.00501   0.00000   0.02677   0.02681  -0.87375
   D23        1.19466   0.00480   0.00000   0.02513   0.02516   1.21982
   D24       -2.99628   0.00524   0.00000   0.02847   0.02852  -2.96776
   D25       -3.14114  -0.00001   0.00000  -0.00007  -0.00007  -3.14121
   D26       -1.04592  -0.00023   0.00000  -0.00171  -0.00171  -1.04763
   D27        1.04633   0.00022   0.00000   0.00164   0.00165   1.04797
   D28        1.19436   0.00493   0.00000   0.02555   0.02555   1.21991
   D29       -2.99644   0.00537   0.00000   0.02880   0.02882  -2.96762
   D30       -0.90028   0.00512   0.00000   0.02695   0.02696  -0.87332
   D31        2.99515  -0.00535   0.00000  -0.02862  -0.02864   2.96651
   D32       -1.19565  -0.00491   0.00000  -0.02536  -0.02537  -1.22102
   D33        0.90051  -0.00516   0.00000  -0.02722  -0.02723   0.87328
   D34       -1.04672  -0.00021   0.00000  -0.00152  -0.00153  -1.04825
   D35        1.04566   0.00023   0.00000   0.00174   0.00175   1.04740
   D36       -3.14137  -0.00002   0.00000  -0.00012  -0.00012  -3.14148
   D37        0.00628   0.00020   0.00000   0.00355   0.00351   0.00978
   D38        3.13715  -0.00036   0.00000  -0.00452  -0.00436   3.13279
   D39        2.00485   0.00419   0.00000   0.01500   0.01541   2.02026
   D40       -1.14746   0.00363   0.00000   0.00693   0.00754  -1.13992
   D41       -1.99201  -0.00310   0.00000  -0.00332  -0.00410  -1.99611
   D42        1.13886  -0.00366   0.00000  -0.01139  -0.01196   1.12690
   D43       -0.00628  -0.00020   0.00000  -0.00355  -0.00351  -0.00978
   D44       -3.13715   0.00036   0.00000   0.00452   0.00436  -3.13280
   D45        1.99247   0.00305   0.00000   0.00310   0.00388   1.99635
   D46       -1.13840   0.00362   0.00000   0.01117   0.01174  -1.12666
   D47       -2.00472  -0.00418   0.00000  -0.01508  -0.01548  -2.02020
   D48        1.14759  -0.00362   0.00000  -0.00701  -0.00762   1.13997
   D49       -1.56557   0.00045   0.00000   0.00515   0.00525  -1.56032
   D50        0.52896   0.00195   0.00000   0.01407   0.01429   0.54325
   D51        2.62277  -0.00102   0.00000  -0.00361  -0.00362   2.61915
   D52        1.56285  -0.00048   0.00000  -0.00542  -0.00552   1.55732
   D53       -2.62581   0.00102   0.00000   0.00351   0.00352  -2.62229
   D54       -0.53200  -0.00195   0.00000  -0.01418  -0.01439  -0.54639
         Item               Value     Threshold  Converged?
 Maximum Force            0.027949     0.000450     NO 
 RMS     Force            0.007175     0.000300     NO 
 Maximum Displacement     0.164571     0.001800     NO 
 RMS     Displacement     0.039873     0.001200     NO 
 Predicted change in Energy=-1.417651D-02
 GradGradGradGradGradGradGradGradGradGradGradGradGradGradGradGradGradGrad

                          Input orientation:                          
 ---------------------------------------------------------------------
 Center     Atomic      Atomic             Coordinates (Angstroms)
 Number     Number       Type             X           Y           Z
 ---------------------------------------------------------------------
      1          6           0       -0.595927   -0.585486    0.182411
      2          6           0       -0.584055    0.974879   -0.019113
      3          6           0        0.950417   -0.613619   -0.106083
      4          7           0        0.833586    0.818975   -0.253892
      5          6           0       -1.430538   -1.334337   -0.861418
      6          6           0       -0.961725   -1.016823    1.606025
      7          6           0        1.833220    1.801076   -0.568891
      8          1           0       -0.803779    1.564839    0.891012
      9          1           0       -1.132297    1.329872   -0.912883
     10          1           0        1.236244   -1.122097   -1.047236
     11          1           0        1.580527   -0.904277    0.755610
     12          1           0       -1.164888   -1.022183   -1.885472
     13          1           0       -1.267833   -2.423859   -0.788921
     14          1           0       -2.507584   -1.139696   -0.718748
     15          1           0       -2.025604   -0.812653    1.818393
     16          1           0       -0.785954   -2.097074    1.748057
     17          1           0       -0.359536   -0.476154    2.355518
     18          1           0        1.938069    1.959867   -1.662621
     19          1           0        1.572536    2.768377   -0.104205
     20          1           0        2.813763    1.484159   -0.171901
 ---------------------------------------------------------------------
                    Distance matrix (angstroms):
                    1          2          3          4          5
     1  C    0.000000
     2  C    1.573369   0.000000
     3  C    1.573277   2.210315   0.000000
     4  N    2.050946   1.445383   1.444931   0.000000
     5  C    1.531970   2.599710   2.599790   3.183096   0.000000
     6  C    1.531841   2.598188   2.598109   3.170582   2.531576
     7  C    3.487247   2.613059   2.612333   1.436320   4.535251
     8  H    2.273591   1.106644   2.969357   2.132623   3.445151
     9  H    2.270674   1.106984   2.960706   2.135411   2.681345
    10  H    2.270866   2.961052   1.107256   2.135249   2.681660
    11  H    2.273134   2.969316   1.106362   2.132280   3.444742
    12  H    2.188735   2.794445   2.794220   3.169513   1.103040
    13  H    2.185077   3.551278   2.943445   3.901050   1.103986
    14  H    2.184872   2.942937   3.551040   3.900756   1.103752
    15  H    2.184495   2.941048   3.549637   3.889929   2.794217
    16  H    2.184550   3.549725   2.941676   3.890252   2.794033
    17  H    2.188659   2.791912   2.791836   3.148002   3.497456
    18  H    4.037834   3.167402   3.165612   2.122742   4.779249
    19  H    4.004095   2.806201   3.438740   2.090125   5.140437
    20  H    4.004367   3.439168   2.806611   2.090525   5.141346
                    6          7          8          9         10
     6  C    0.000000
     7  C    4.525763   0.000000
     8  H    2.683500   3.023390   0.000000
     9  H    3.446878   3.022359   1.848559   0.000000
    10  H    3.447019   3.021611   3.890774   3.411772   0.000000
    11  H    2.683080   3.022762   3.435081   3.890335   1.848305
    12  H    3.497407   4.323520   3.812080   2.545419   2.545203
    13  H    2.794498   5.245476   4.352843   3.758223   2.834028
    14  H    2.794521   5.245300   3.578937   2.833350   3.758253
    15  H    1.103914   5.236528   2.829375   3.584450   4.352842
    16  H    1.103635   5.236783   3.760911   4.352530   3.585182
    17  H    1.103038   4.306521   2.551035   3.813310   3.813461
    18  H    5.287110   1.110159   3.767602   3.222755   3.220211
    19  H    4.865707   1.104337   2.843560   3.168498   4.017236
    20  H    4.865207   1.104310   3.771326   4.017990   3.169754
                   11         12         13         14         15
    11  H    0.000000
    12  H    3.811368   0.000000
    13  H    3.578808   1.782615   0.000000
    14  H    4.352219   1.782663   1.786332   0.000000
    15  H    3.760596   3.808327   3.157260   2.603141   0.000000
    16  H    2.829832   3.808086   2.602932   3.156851   1.786454
    17  H    2.550850   4.351176   3.808682   3.808609   1.782559
    18  H    3.765502   4.309365   5.500747   5.501093   5.959449
    19  H    3.771967   5.003474   5.957840   5.683140   5.428331
    20  H    2.843550   5.004771   5.684430   5.958220   5.714551
                   16         17         18         19         20
    16  H    0.000000
    17  H    1.782757   0.000000
    18  H    5.959178   5.230548   0.000000
    19  H    5.715415   4.506675   1.793311   0.000000
    20  H    5.428576   4.505607   1.793149   1.787301   0.000000
 Stoichiometry    C6H13N
 Framework group  C1[X(C6H13N)]
 Deg. of freedom    54
 Full point group                 C1      NOp   1
 Largest Abelian subgroup         C1      NOp   1
 Largest concise Abelian subgroup C1      NOp   1
                         Standard orientation:                         
 ---------------------------------------------------------------------
 Center     Atomic      Atomic             Coordinates (Angstroms)
 Number     Number       Type             X           Y           Z
 ---------------------------------------------------------------------
      1          6           0       -0.860344    0.000518   -0.000065
      2          6           0        0.259224    0.005063    1.105393
      3          6           0        0.259687    0.005284   -1.104922
      4          7           0        1.190598   -0.003715    0.000134
      5          6           0       -1.730215    1.261572    0.000039
      6          6           0       -1.716153   -1.269965   -0.000399
      7          6           0        2.626902    0.002988   -0.000127
      8          1           0        0.314502   -0.915123    1.717653
      9          1           0        0.312186    0.933399    1.706061
     10          1           0        0.312899    0.933850   -1.705711
     11          1           0        0.314687   -0.914416   -1.717428
     12          1           0       -1.111561    2.174789   -0.000119
     13          1           0       -2.378170    1.293986   -0.893207
     14          1           0       -2.378002    1.293806    0.893125
     15          1           0       -2.363212   -1.309294    0.893129
     16          1           0       -2.363592   -1.308905   -0.893324
     17          1           0       -1.087494   -2.176321   -0.000360
     18          1           0        3.043517    1.032008   -0.001643
     19          1           0        3.007579   -0.521020    0.894335
     20          1           0        3.007869   -0.523518   -0.892964
 ---------------------------------------------------------------------
 Rotational constants (GHZ):      4.7749426      1.7831835      1.6995948
 Standard basis: 6-31+G(d,p) (6D, 7F)
 There are   198 symmetry adapted basis functions of A   symmetry.
 Integral buffers will be    131072 words long.
 Raffenetti 2 integral format.
 Two-electron integral symmetry is turned on.
   198 basis functions,   315 primitive gaussians,   198 cartesian basis functions
    28 alpha electrons       28 beta electrons
       nuclear repulsion energy       328.6532536291 Hartrees.
 NAtoms=   20 NActive=   20 NUniq=   20 SFac= 7.50D-01 NAtFMM=   80 NAOKFM=F Big=F
 One-electron integrals computed using PRISM.
 NBasis=   198 RedAO= T  NBF=   198
 NBsUse=   198 1.00D-06 NBFU=   198
 Initial guess read from the read-write file.
 B after Tr=     0.000000    0.000000    0.000000
         Rot=    1.000000    0.000000    0.000000    0.000000 Ang=   0.00 deg.
 Initial guess orbital symmetries:
       Occupied  (A) (A) (A) (A) (A) (A) (A) (A) (A) (A) (A) (A)
                 (A) (A) (A) (A) (A) (A) (A) (A) (A) (A) (A) (A)
                 (A) (A) (A) (A)
       Virtual   (A) (A) (A) (A) (A) (A) (A) (A) (A) (A) (A) (A)
                 (A) (A) (A) (A) (A) (A) (A) (A) (A) (A) (A) (A)
                 (A) (A) (A) (A) (A) (A) (A) (A) (A) (A) (A) (A)
                 (A) (A) (A) (A) (A) (A) (A) (A) (A) (A) (A) (A)
                 (A) (A) (A) (A) (A) (A) (A) (A) (A) (A) (A) (A)
                 (A) (A) (A) (A) (A) (A) (A) (A) (A) (A) (A) (A)
                 (A) (A) (A) (A) (A) (A) (A) (A) (A) (A) (A) (A)
                 (A) (A) (A) (A) (A) (A) (A) (A) (A) (A) (A) (A)
                 (A) (A) (A) (A) (A) (A) (A) (A) (A) (A) (A) (A)
                 (A) (A) (A) (A) (A) (A) (A) (A) (A) (A) (A) (A)
                 (A) (A) (A) (A) (A) (A) (A) (A) (A) (A) (A) (A)
                 (A) (A) (A) (A) (A) (A) (A) (A) (A) (A) (A) (A)
                 (A) (A) (A) (A) (A) (A) (A) (A) (A) (A) (A) (A)
                 (A) (A) (A) (A) (A) (A) (A) (A) (A) (A) (A) (A)
                 (A) (A)
 Harris functional with IExCor=  402 diagonalized for initial guess.
 ExpMin= 4.38D-02 ExpMax= 4.17D+03 ExpMxC= 6.27D+02 IAcc=2 IRadAn=         0 AccDes= 0.00D+00
 HarFok:  IExCor=  402 AccDes= 0.00D+00 IRadAn=         0 IDoV= 1
 ScaDFX=  1.000000  1.000000  1.000000  1.000000
 FoFCou: FMM=F IPFlag=           0 FMFlag=      100000 FMFlg1=           0
         NFxFlg=           0 DoJE=T BraDBF=F KetDBF=T FulRan=T
         Omega=  0.000000  0.000000  1.000000  0.000000  0.000000 ICntrl=     500 IOpCl=  0
         NMat0=    1 NMatS0=    1 NMatT0=    0 NMatD0=    1 NMtDS0=    0 NMtDT0=    0
         I1Cent=           4 NGrid=           0.
 Petite list used in FoFCou.
 Requested convergence on RMS density matrix=1.00D-08 within 128 cycles.
 Requested convergence on MAX density matrix=1.00D-06.
 Requested convergence on             energy=1.00D-06.
 No special actions if energy rises.
 Keep R1 ints in memory in canonical form, NReq=198326836.
 SCF Done:  E(RB3LYP) =  -291.196730936     A.U. after   11 cycles
             Convg  =    0.3238D-08             -V/T =  2.0104
 Calling FoFJK, ICntrl=      2127 FMM=F ISym2X=0 I1Cent= 0 IOpClX= 0 NMat=1 NMatS=1 NMatT=0.
 ***** Axes restored to original set *****
 -------------------------------------------------------------------
 Center     Atomic                   Forces (Hartrees/Bohr)
 Number     Number              X              Y              Z
 -------------------------------------------------------------------
      1        6          -0.011404393   -0.011180559    0.003237486
      2        6           0.016730144   -0.011818296   -0.003060841
      3        6          -0.011392962    0.016952132   -0.001704174
      4        7           0.016325831    0.015851655    0.001797594
      5        6          -0.001705011   -0.001716210   -0.002015359
      6        6          -0.000942677   -0.000800209    0.002884581
      7        6          -0.002420742   -0.002121791   -0.002101411
      8        1          -0.006638672    0.000592926   -0.005384968
      9        1          -0.004951896    0.001652812    0.007095215
     10        1           0.001802080   -0.005338937    0.006810293
     11        1           0.000173630   -0.006355297   -0.005619098
     12        1          -0.000942513   -0.001120904    0.004315568
     13        1          -0.000963812    0.004367911   -0.000283064
     14        1           0.004173561   -0.001066023   -0.000582583
     15        1           0.004212222   -0.001164828   -0.000726754
     16        1          -0.000987758    0.004144223   -0.000403735
     17        1          -0.002292124   -0.002074731   -0.003320437
     18        1           0.002533523    0.002330007    0.002479052
     19        1           0.001848205   -0.003140802   -0.001866441
     20        1          -0.003156637    0.002006920   -0.001550924
 -------------------------------------------------------------------
 Cartesian Forces:  Max     0.016952132 RMS     0.005973159

 GradGradGradGradGradGradGradGradGradGradGradGradGradGradGradGradGradGrad
 Berny optimization.
 Using GEDIIS/GDIIS optimizer.
 Internal  Forces:  Max     0.010337714 RMS     0.002789692
 Search for a local minimum.
 Step number   2 out of a maximum of  120
 All quantities printed in internal units (Hartrees-Bohrs-Radians)
 Mixed Optimization -- RFO/linear search
 Update second derivatives using D2CorX and points    1    2
 DE= -1.34D-02 DEPred=-1.42D-02 R= 9.47D-01
 SS=  1.41D+00  RLast= 3.00D-01 DXNew= 5.0454D-01 8.9951D-01
 Trust test= 9.47D-01 RLast= 3.00D-01 DXMaxT set to 5.05D-01
 Use linear search instead of GDIIS.
     Eigenvalues ---    0.00321   0.00324   0.00556   0.01276   0.01336
     Eigenvalues ---    0.03035   0.03132   0.04524   0.04594   0.04715
     Eigenvalues ---    0.05471   0.05472   0.05499   0.05505   0.05743
     Eigenvalues ---    0.07143   0.07170   0.07464   0.07748   0.08324
     Eigenvalues ---    0.08384   0.08639   0.10334   0.15986   0.16000
     Eigenvalues ---    0.16000   0.16000   0.16000   0.16000   0.16000
     Eigenvalues ---    0.16000   0.16160   0.20718   0.24987   0.25029
     Eigenvalues ---    0.25692   0.29065   0.29106   0.31697   0.32109
     Eigenvalues ---    0.32153   0.32173   0.32193   0.32211   0.32221
     Eigenvalues ---    0.32229   0.32232   0.32239   0.32244   0.32260
     Eigenvalues ---    0.32267   0.37229   0.38529   0.430591000.00000
     Eigenvalues --- 1000.000001000.000001000.000001000.000001000.00000
     Eigenvalues --- 1000.000001000.000001000.000001000.000001000.00000
     Eigenvalues --- 1000.000001000.000001000.000001000.000001000.00000
     Eigenvalues --- 1000.000001000.000001000.000001000.000001000.00000
     Eigenvalues --- 1000.000001000.000001000.000001000.000001000.00000
     Eigenvalues --- 1000.000001000.000001000.000001000.000001000.00000
     Eigenvalues --- 1000.000001000.000001000.000001000.000001000.00000
     Eigenvalues --- 1000.000001000.000001000.000001000.000001000.00000
     Eigenvalues --- 1000.000001000.000001000.000001000.000001000.00000
     Eigenvalues --- 1000.000001000.000001000.000001000.000001000.00000
     Eigenvalues --- 1000.000001000.000001000.000001000.000001000.00000
     Eigenvalues --- 1000.000001000.000001000.00000
 RFO step:  Lambda=-2.04419408D-03 EMin= 3.20578022D-03
 Quartic linear search produced a step of  0.73080.
 Iteration  1 RMS(Cart)=  0.03078363 RMS(Int)=  0.00150252
 Iteration  2 RMS(Cart)=  0.00109132 RMS(Int)=  0.00112722
 Iteration  3 RMS(Cart)=  0.00000081 RMS(Int)=  0.00112722
 Variable       Old X    -DE/DX   Delta X   Delta X   Delta X     New X
                                 (Linear)    (Quad)   (Total)
    R1        2.97324  -0.00055   0.01303  -0.01790  -0.00523   2.96800
    R2        2.97306  -0.00055   0.01306  -0.01781  -0.00513   2.96793
    R3        2.89500  -0.00151  -0.00194  -0.00572  -0.00766   2.88734
    R4        2.89476  -0.00148  -0.00252  -0.00459  -0.00711   2.88765
    R5        2.73138   0.00532   0.01605  -0.00814   0.00832   2.73969
    R6        2.09125  -0.00279  -0.01052   0.00216  -0.00835   2.08290
    R7        2.09190  -0.00275  -0.01004   0.00165  -0.00839   2.08351
    R8        2.73052   0.00555   0.01658  -0.00800   0.00897   2.73949
    R9        2.09241  -0.00287  -0.01035   0.00146  -0.00889   2.08352
   R10        2.09072  -0.00261  -0.00992   0.00221  -0.00770   2.08302
   R11        2.71425  -0.00080   0.01298  -0.02398  -0.01100   2.70325
   R12        2.08444  -0.00455  -0.01465  -0.00046  -0.01511   2.06933
   R13        2.08623  -0.00447  -0.01373  -0.00154  -0.01526   2.07097
   R14        2.08579  -0.00434  -0.01330  -0.00147  -0.01477   2.07102
   R15        2.08609  -0.00442  -0.01358  -0.00147  -0.01505   2.07104
   R16        2.08557  -0.00427  -0.01314  -0.00135  -0.01449   2.07108
   R17        2.08444  -0.00452  -0.01452  -0.00051  -0.01502   2.06942
   R18        2.09790  -0.00187  -0.00462  -0.00244  -0.00706   2.09084
   R19        2.08689  -0.00397  -0.01263  -0.00064  -0.01327   2.07362
   R20        2.08684  -0.00394  -0.01254  -0.00060  -0.01313   2.07371
    A1        1.55763  -0.00430  -0.04281   0.00545  -0.03734   1.52029
    A2        1.98408   0.00161   0.01190  -0.00585   0.00599   1.99006
    A3        1.98241   0.00160   0.01149  -0.00372   0.00791   1.99033
    A4        1.98426   0.00160   0.01189  -0.00596   0.00587   1.99013
    A5        1.98241   0.00162   0.01154  -0.00370   0.00798   1.99039
    A6        1.94495  -0.00212  -0.00758   0.01131   0.00324   1.94819
    A7        1.49195   0.00735   0.04942  -0.00257   0.04609   1.53804
    A8        2.00630  -0.00107  -0.01090  -0.00142  -0.01645   1.98985
    A9        2.00172  -0.00150  -0.01409  -0.00379  -0.02269   1.97903
   A10        1.96690   0.00026   0.01499   0.03029   0.04557   2.01247
   A11        1.97055   0.00094   0.02047   0.03541   0.05674   2.02729
   A12        1.97656  -0.00333  -0.03264  -0.04143  -0.07785   1.89871
   A13        1.49227   0.00728   0.04927  -0.00264   0.04586   1.53813
   A14        2.00182  -0.00149  -0.01421  -0.00372  -0.02272   1.97910
   A15        2.00607  -0.00105  -0.01083  -0.00124  -0.01615   1.98992
   A16        1.97059   0.00097   0.02060   0.03527   0.05674   2.02733
   A17        1.96730   0.00027   0.01495   0.02991   0.04514   2.01244
   A18        1.97616  -0.00333  -0.03262  -0.04123  -0.07761   1.89855
   A19        1.74125  -0.01034  -0.05592  -0.00068  -0.05579   1.68546
   A20        2.27114   0.00513   0.02780   0.00001   0.02702   2.29817
   A21        2.27062   0.00520   0.02803   0.00005   0.02730   2.29792
   A22        1.94232  -0.00041  -0.00555   0.00623   0.00068   1.94300
   A23        1.93625   0.00027   0.00388  -0.00427  -0.00041   1.93585
   A24        1.93622   0.00029   0.00398  -0.00434  -0.00037   1.93584
   A25        1.88048   0.00010  -0.00010   0.00215   0.00206   1.88255
   A26        1.88085   0.00008  -0.00019   0.00194   0.00176   1.88260
   A27        1.88532  -0.00035  -0.00215  -0.00157  -0.00374   1.88158
   A28        1.93568   0.00036   0.00403  -0.00349   0.00053   1.93621
   A29        1.93605   0.00034   0.00386  -0.00368   0.00017   1.93622
   A30        1.94237  -0.00056  -0.00612   0.00552  -0.00059   1.94178
   A31        1.88574  -0.00041  -0.00222  -0.00193  -0.00416   1.88158
   A32        1.88049   0.00014   0.00026   0.00203   0.00229   1.88278
   A33        1.88114   0.00012   0.00008   0.00165   0.00174   1.88288
   A34        1.96016   0.00548   0.03886  -0.00569   0.03284   1.99300
   A35        1.92021   0.00012   0.00137  -0.00277  -0.00160   1.91861
   A36        1.92080   0.00004   0.00080  -0.00257  -0.00197   1.91883
   A37        1.88763  -0.00240  -0.01542   0.00528  -0.01046   1.87717
   A38        1.88742  -0.00237  -0.01526   0.00534  -0.01022   1.87720
   A39        1.88568  -0.00118  -0.01171   0.00089  -0.01086   1.87482
    D1       -0.00885  -0.00027  -0.00239  -0.02269  -0.02515  -0.03400
    D2       -1.98041  -0.00391  -0.04132  -0.05490  -0.09519  -2.07560
    D3        1.96623   0.00403   0.04225   0.01486   0.05573   2.02196
    D4       -2.02745  -0.00030   0.00245  -0.01755  -0.01499  -2.04244
    D5        2.28418  -0.00394  -0.03649  -0.04975  -0.08503   2.19915
    D6       -0.05237   0.00400   0.04709   0.02000   0.06589   0.01353
    D7        2.00736  -0.00022  -0.00764  -0.02490  -0.03261   1.97476
    D8        0.03581  -0.00387  -0.04658  -0.05711  -0.10265  -0.06684
    D9       -2.30074   0.00408   0.03700   0.01264   0.04828  -2.25246
   D10        0.00886   0.00027   0.00239   0.02270   0.02515   0.03400
   D11       -1.96643  -0.00403  -0.04233  -0.01467  -0.05563  -2.02206
   D12        1.98098   0.00389   0.04120   0.05446   0.09464   2.07562
   D13        2.02728   0.00031  -0.00244   0.01765   0.01509   2.04237
   D14        0.05200  -0.00399  -0.04717  -0.01972  -0.06569  -0.01369
   D15       -2.28378   0.00392   0.03636   0.04942   0.08458  -2.19920
   D16       -2.00736   0.00023   0.00768   0.02493   0.03267  -1.97470
   D17        2.30054  -0.00407  -0.03704  -0.01243  -0.04811   2.25243
   D18       -0.03525   0.00385   0.04649   0.05670   0.10216   0.06692
   D19        0.87469  -0.00177  -0.01963  -0.00009  -0.01983   0.85486
   D20        2.96826  -0.00173  -0.02083   0.00392  -0.01704   2.95122
   D21       -1.21932  -0.00180  -0.01838  -0.00377  -0.02225  -1.24157
   D22       -0.87375   0.00176   0.01959  -0.00050   0.01920  -0.85455
   D23        1.21982   0.00180   0.01839   0.00351   0.02200   1.24182
   D24       -2.96776   0.00173   0.02084  -0.00418   0.01678  -2.95098
   D25       -3.14121  -0.00001  -0.00005  -0.00026  -0.00031  -3.14151
   D26       -1.04763   0.00003  -0.00125   0.00374   0.00248  -1.04515
   D27        1.04797  -0.00004   0.00120  -0.00395  -0.00274   1.04524
   D28        1.21991   0.00180   0.01867   0.00252   0.02121   1.24112
   D29       -2.96762   0.00174   0.02106  -0.00466   0.01644  -2.95118
   D30       -0.87332   0.00175   0.01970  -0.00138   0.01835  -0.85496
   D31        2.96651  -0.00172  -0.02093   0.00525  -0.01572   2.95079
   D32       -1.22102  -0.00178  -0.01854  -0.00193  -0.02049  -1.24151
   D33        0.87328  -0.00177  -0.01990   0.00135  -0.01857   0.85471
   D34       -1.04825   0.00004  -0.00112   0.00382   0.00270  -1.04555
   D35        1.04740  -0.00002   0.00128  -0.00336  -0.00208   1.04533
   D36       -3.14148  -0.00002  -0.00009  -0.00008  -0.00016   3.14154
   D37        0.00978   0.00026   0.00256   0.02504   0.02725   0.03703
   D38        3.13279  -0.00023  -0.00318  -0.00881  -0.01153   3.12126
   D39        2.02026   0.00225   0.01126   0.02571   0.03743   2.05769
   D40       -1.13992   0.00175   0.00551  -0.00813  -0.00136  -1.14127
   D41       -1.99611  -0.00136  -0.00299   0.02641   0.02181  -1.97430
   D42        1.12690  -0.00186  -0.00874  -0.00744  -0.01697   1.10992
   D43       -0.00978  -0.00026  -0.00256  -0.02504  -0.02725  -0.03703
   D44       -3.13280   0.00023   0.00318   0.00879   0.01153  -3.12127
   D45        1.99635   0.00134   0.00283  -0.02636  -0.02193   1.97443
   D46       -1.12666   0.00184   0.00858   0.00747   0.01685  -1.10981
   D47       -2.02020  -0.00225  -0.01131  -0.02585  -0.03761  -2.05781
   D48        1.13997  -0.00175  -0.00557   0.00798   0.00117   1.14114
   D49       -1.56032   0.00039   0.00383   0.02192   0.02619  -1.53413
   D50        0.54325   0.00107   0.01044   0.02292   0.03391   0.57717
   D51        2.61915  -0.00029  -0.00264   0.02071   0.01841   2.63756
   D52        1.55732  -0.00040  -0.00404  -0.02169  -0.02618   1.53115
   D53       -2.62229   0.00029   0.00257  -0.02069  -0.01846  -2.64074
   D54       -0.54639  -0.00107  -0.01051  -0.02290  -0.03396  -0.58035
         Item               Value     Threshold  Converged?
 Maximum Force            0.010338     0.000450     NO 
 RMS     Force            0.002790     0.000300     NO 
 Maximum Displacement     0.112218     0.001800     NO 
 RMS     Displacement     0.030891     0.001200     NO 
 Predicted change in Energy=-3.835109D-03
 GradGradGradGradGradGradGradGradGradGradGradGradGradGradGradGradGradGrad

                          Input orientation:                          
 ---------------------------------------------------------------------
 Center     Atomic      Atomic             Coordinates (Angstroms)
 Number     Number       Type             X           Y           Z
 ---------------------------------------------------------------------
      1          6           0       -0.603295   -0.592542    0.181335
      2          6           0       -0.564398    0.962536   -0.035460
      3          6           0        0.937973   -0.593103   -0.120581
      4          7           0        0.864976    0.848973   -0.249622
      5          6           0       -1.440084   -1.344002   -0.852889
      6          6           0       -0.958602   -1.013598    1.606640
      7          6           0        1.860303    1.827116   -0.564092
      8          1           0       -0.863162    1.546468    0.850350
      9          1           0       -1.160154    1.298977   -0.900034
     10          1           0        1.204935   -1.149930   -1.033978
     11          1           0        1.558272   -0.960723    0.713156
     12          1           0       -1.181542   -1.038703   -1.872238
     13          1           0       -1.279715   -2.425311   -0.774967
     14          1           0       -2.508982   -1.152234   -0.705384
     15          1           0       -2.014040   -0.812521    1.822797
     16          1           0       -0.784853   -2.085748    1.753107
     17          1           0       -0.355557   -0.471610    2.342713
     18          1           0        1.990195    2.009649   -1.647598
     19          1           0        1.603980    2.785611   -0.095389
     20          1           0        2.832395    1.514481   -0.162224
 ---------------------------------------------------------------------
                    Distance matrix (angstroms):
                    1          2          3          4          5
     1  C    0.000000
     2  C    1.570599   0.000000
     3  C    1.570561   2.164343   0.000000
     4  N    2.102263   1.449784   1.449677   0.000000
     5  C    1.527916   2.599064   2.599092   3.238267   0.000000
     6  C    1.528079   2.599422   2.599443   3.200049   2.527899
     7  C    3.532665   2.627951   2.627709   1.430500   4.586060
     8  H    2.256209   1.102223   2.960500   2.164001   3.404215
     9  H    2.248843   1.102545   2.930810   2.174095   2.658180
    10  H    2.248859   2.930886   1.102551   2.174029   2.658304
    11  H    2.256273   2.960588   1.102285   2.163931   3.404341
    12  H    2.179585   2.785602   2.785535   3.222490   1.095045
    13  H    2.175108   3.540629   2.950144   3.949255   1.095909
    14  H    2.175124   2.949993   3.540638   3.949195   1.095936
    15  H    2.175543   2.950492   3.541079   3.917169   2.787686
    16  H    2.175567   3.541131   2.950733   3.917326   2.787603
    17  H    2.178888   2.784977   2.784923   3.154970   3.485562
    18  H    4.103972   3.197090   3.195821   2.137200   4.862648
    19  H    4.044819   2.833559   3.443822   2.078577   5.185927
    20  H    4.044941   3.443678   2.834162   2.078768   5.186715
                    6          7          8          9         10
     6  C    0.000000
     7  C    4.552796   0.000000
     8  H    2.671146   3.081666   0.000000
     9  H    3.416436   3.084630   1.792568   0.000000
    10  H    3.416481   3.084332   3.885651   3.407159   0.000000
    11  H    2.671286   3.081335   3.488291   3.885674   1.792519
    12  H    3.486104   4.379153   3.767885   2.531873   2.531862
    13  H    2.787130   5.290303   4.311635   3.728304   2.804847
    14  H    2.787176   5.290287   3.523070   2.804579   3.728426
    15  H    1.095949   5.260746   2.799108   3.549838   4.317037
    16  H    1.095969   5.260871   3.743541   4.316986   3.550050
    17  H    1.095088   4.317834   2.560752   3.781238   3.781177
    18  H    5.331556   1.106425   3.820461   3.314906   3.313020
    19  H    4.888529   1.097314   2.918336   3.240057   4.065547
    20  H    4.887916   1.097361   3.831901   4.065864   3.241553
                   11         12         13         14         15
    11  H    0.000000
    12  H    3.767881   0.000000
    13  H    3.523308   1.770967   0.000000
    14  H    4.311785   1.771026   1.771062   0.000000
    15  H    3.743619   3.794403   3.144630   2.598474   0.000000
    16  H    2.799539   3.794311   2.598336   3.144558   1.771120
    17  H    2.560748   4.332396   3.793539   3.793598   1.771186
    18  H    3.818746   4.404864   5.578769   5.579235   6.003514
    19  H    3.832864   5.053880   5.994266   5.726707   5.451244
    20  H    2.918272   5.055154   5.727727   5.994722   5.730897
                   16         17         18         19         20
    16  H    0.000000
    17  H    1.771263   0.000000
    18  H    6.003163   5.251836   0.000000
    19  H    5.731806   4.515929   1.777817   0.000000
    20  H    5.451112   4.514676   1.777872   1.768966   0.000000
 Stoichiometry    C6H13N
 Framework group  C1[X(C6H13N)]
 Deg. of freedom    54
 Full point group                 C1      NOp   1
 Largest Abelian subgroup         C1      NOp   1
 Largest concise Abelian subgroup C1      NOp   1
                         Standard orientation:                         
 ---------------------------------------------------------------------
 Center     Atomic      Atomic             Coordinates (Angstroms)
 Number     Number       Type             X           Y           Z
 ---------------------------------------------------------------------
      1          6           0        0.877417    0.000206   -0.000046
[...]
     13          1           0       -1.281258   -2.426511   -0.764946
     14          1           0       -2.509506   -1.154658   -0.695557
     15          1           0       -2.007508   -0.805491    1.822391
     16          1           0       -0.777505   -2.079155    1.752904
     17          1           0       -0.343516   -0.459110    2.334229
     18          1           0        1.666150    1.696003   -1.596140
     19          1           0        1.625857    2.813084   -0.204216
     20          1           0        2.855059    1.540361   -0.273559
 ---------------------------------------------------------------------
                    Distance matrix (angstroms):
                    1          2          3          4          5
     1  C    0.000000
     2  C    1.559192   0.000000
     3  C    1.559192   2.100838   0.000000
     4  N    2.134474   1.477118   1.477117   0.000000
     5  C    1.526530   2.626310   2.626311   3.443668   0.000000
     6  C    1.531809   2.569738   2.569737   3.001703   2.527418
     7  C    3.439885   2.517473   2.517479   1.448191   4.516868
     8  H    2.289872   1.097503   3.040192   2.179531   3.343214
     9  H    2.219863   1.104958   2.674287   2.161887   2.708539
    10  H    2.219863   2.674288   1.104958   2.161885   2.708542
    11  H    2.289871   3.040193   1.097503   2.179531   3.343213
    12  H    2.182564   2.834129   2.834129   3.577657   1.095258
    13  H    2.174572   3.556659   2.988723   4.118245   1.097134
    14  H    2.174571   2.988721   3.556659   4.118244   1.097135
    15  H    2.178183   2.936466   3.513616   3.745679   2.784839
    16  H    2.178183   3.513616   2.936464   3.745677   2.784841
    17  H    2.178021   2.729777   2.729779   2.795666   3.482341
    18  H    3.672297   2.809064   2.809020   2.140240   4.409979
    19  H    4.081958   2.842091   3.434785   2.090615   5.205821
    20  H    4.082006   3.434792   2.842170   2.090622   5.205895
                    6          7          8          9         10
     6  C    0.000000
     7  C    4.447265   0.000000
     8  H    2.740778   3.136314   0.000000
     9  H    3.482799   2.678710   1.792805   0.000000
    10  H    3.482800   2.678715   3.743788   2.823103   0.000000
    11  H    2.740778   3.136324   3.826217   3.743789   1.792804
    12  H    3.489494   4.342022   3.698010   2.510447   2.510449
    13  H    2.783786   5.221488   4.282094   3.745053   3.005004
    14  H    2.783785   5.221484   3.400876   3.004999   3.745054
    15  H    1.096963   5.158404   2.792567   3.732861   4.351640
    16  H    1.096963   5.158405   3.818173   4.351639   3.732861
    17  H    1.094526   4.201067   2.705055   3.799763   3.799765
    18  H    4.940106   1.108753   3.589961   2.539560   2.539493
    19  H    4.949997   1.095532   3.107316   2.962444   3.711516
    20  H    4.950018   1.095532   4.053494   3.711541   2.962561
                   11         12         13         14         15
    11  H    0.000000
    12  H    3.698009   0.000000
    13  H    3.400876   1.772189   0.000000
    14  H    4.282093   1.772189   1.769468   0.000000
    15  H    3.818173   3.794016   3.138385   2.591135   0.000000
    16  H    2.792563   3.794018   2.591137   3.138389   1.771992
    17  H    2.705058   4.333629   3.788788   3.788787   1.775058
    18  H    3.589900   3.971022   5.135487   5.135506   5.607101
    19  H    4.053527   5.062760   6.018231   5.752010   5.513852
    20  H    3.107395   5.062849   5.752100   6.018286   5.791424
                   16         17         18         19         20
    16  H    0.000000
    17  H    1.775057   0.000000
    18  H    5.607081   4.912339   0.000000
    19  H    5.791413   4.585781   1.785202   0.000000
    20  H    5.513889   4.585775   1.785203   1.770754   0.000000
 Stoichiometry    C6H13N
 Framework group  C1[X(C6H13N)]
 Deg. of freedom    54
 Full point group                 C1      NOp   1
 Largest Abelian subgroup         C1      NOp   1
 Largest concise Abelian subgroup C1      NOp   1
                         Standard orientation:                         
 ---------------------------------------------------------------------
 Center     Atomic      Atomic             Coordinates (Angstroms)
 Number     Number       Type             X           Y           Z
 ---------------------------------------------------------------------
      1          6           0       -0.867364    0.035722    0.000000
      2          6           0        0.284821    0.048902    1.050417
      3          6           0        0.284817    0.048899   -1.050421
      4          7           0        1.222833   -0.396774   -0.000004
      5          6           0       -1.808109    1.237925    0.000000
      6          6           0       -1.644689   -1.284204    0.000003
      7          6           0        2.571184    0.131628    0.000001
      8          1           0        0.203804   -0.624682    1.913107
      9          1           0        0.497525    1.071288    1.411548
     10          1           0        0.497523    1.071284   -1.411555
     11          1           0        0.203796   -0.624685   -1.913110
     12          1           0       -1.255425    2.183510   -0.000002
     13          1           0       -2.456829    1.227197   -0.884732
     14          1           0       -2.456825    1.227199    0.884736
     15          1           0       -2.287214   -1.358378    0.885999
     16          1           0       -2.287213   -1.358382   -0.885993
     17          1           0       -0.962610   -2.140215    0.000005
     18          1           0        2.601869    1.239956   -0.000066
     19          1           0        3.108877   -0.224900    0.885419
     20          1           0        3.108937   -0.225011   -0.885335
 ---------------------------------------------------------------------
 Rotational constants (GHZ):      4.8519441      1.8200346      1.7038706

 **********************************************************************

            Population analysis using the SCF density.

 **********************************************************************

 Orbital symmetries:
       Occupied  (A) (A) (A) (A) (A) (A) (A) (A) (A) (A) (A) (A)
                 (A) (A) (A) (A) (A) (A) (A) (A) (A) (A) (A) (A)
                 (A) (A) (A) (A)
       Virtual   (A) (A) (A) (A) (A) (A) (A) (A) (A) (A) (A) (A)
                 (A) (A) (A) (A) (A) (A) (A) (A) (A) (A) (A) (A)
                 (A) (A) (A) (A) (A) (A) (A) (A) (A) (A) (A) (A)
                 (A) (A) (A) (A) (A) (A) (A) (A) (A) (A) (A) (A)
                 (A) (A) (A) (A) (A) (A) (A) (A) (A) (A) (A) (A)
                 (A) (A) (A) (A) (A) (A) (A) (A) (A) (A) (A) (A)
                 (A) (A) (A) (A) (A) (A) (A) (A) (A) (A) (A) (A)
                 (A) (A) (A) (A) (A) (A) (A) (A) (A) (A) (A) (A)
                 (A) (A) (A) (A) (A) (A) (A) (A) (A) (A) (A) (A)
                 (A) (A) (A) (A) (A) (A) (A) (A) (A) (A) (A) (A)
                 (A) (A) (A) (A) (A) (A) (A) (A) (A) (A) (A) (A)
                 (A) (A) (A) (A) (A) (A) (A) (A) (A) (A) (A) (A)
                 (A) (A) (A) (A) (A) (A) (A) (A) (A) (A) (A) (A)
                 (A) (A) (A) (A) (A) (A) (A) (A) (A) (A) (A) (A)
                 (A) (A)
 The electronic state is 1-A.
 Alpha  occ. eigenvalues --  -14.32528 -10.20637 -10.20636 -10.20324 -10.20241
 Alpha  occ. eigenvalues --  -10.17984 -10.17577  -0.94066  -0.79593  -0.71095
 Alpha  occ. eigenvalues --   -0.68796  -0.67620  -0.59799  -0.52996  -0.47896
 Alpha  occ. eigenvalues --   -0.47313  -0.45973  -0.42590  -0.41854  -0.40495
 Alpha  occ. eigenvalues --   -0.40137  -0.37394  -0.37360  -0.34307  -0.33674
 Alpha  occ. eigenvalues --   -0.31427  -0.30260  -0.21617
 Alpha virt. eigenvalues --    0.00403   0.01776   0.02803   0.02898   0.04362
 Alpha virt. eigenvalues --    0.04689   0.05028   0.05203   0.05880   0.06853
 Alpha virt. eigenvalues --    0.07264   0.07905   0.08321   0.10019   0.10427
 Alpha virt. eigenvalues --    0.11135   0.12325   0.13617   0.14367   0.14961
 Alpha virt. eigenvalues --    0.16049   0.16737   0.17826   0.18387   0.18891
 Alpha virt. eigenvalues --    0.20355   0.20832   0.21903   0.22174   0.22389
 Alpha virt. eigenvalues --    0.24277   0.25494   0.25782   0.25821   0.28071
 Alpha virt. eigenvalues --    0.28170   0.29611   0.29686   0.30775   0.31876
 Alpha virt. eigenvalues --    0.32340   0.33357   0.33786   0.36194   0.36648
 Alpha virt. eigenvalues --    0.39148   0.43181   0.45644   0.60184   0.63019
 Alpha virt. eigenvalues --    0.64552   0.66070   0.67092   0.67661   0.70118
 Alpha virt. eigenvalues --    0.72132   0.73517   0.76728   0.76910   0.77144
 Alpha virt. eigenvalues --    0.78808   0.83755   0.84986   0.85020   0.88436
 Alpha virt. eigenvalues --    0.90792   0.93577   0.94873   0.96727   0.96971
 Alpha virt. eigenvalues --    0.99417   1.00463   1.00774   1.02561   1.03953
 Alpha virt. eigenvalues --    1.04211   1.08527   1.09130   1.09166   1.12166
 Alpha virt. eigenvalues --    1.14961   1.15970   1.19165   1.28466   1.31557
 Alpha virt. eigenvalues --    1.35587   1.41941   1.46452   1.47037   1.49264
 Alpha virt. eigenvalues --    1.53508   1.59386   1.66011   1.70821   1.71598
 Alpha virt. eigenvalues --    1.79782   1.82552   1.84777   1.87439   1.87941
 Alpha virt. eigenvalues --    1.89050   1.91313   1.97943   1.98808   2.02755
 Alpha virt. eigenvalues --    2.03959   2.04339   2.04794   2.04816   2.06514
 Alpha virt. eigenvalues --    2.07731   2.10816   2.13019   2.13765   2.15125
 Alpha virt. eigenvalues --    2.15169   2.15996   2.18450   2.20754   2.23846
 Alpha virt. eigenvalues --    2.33299   2.33322   2.34936   2.38892   2.40116
 Alpha virt. eigenvalues --    2.42978   2.44711   2.50458   2.53877   2.54068
 Alpha virt. eigenvalues --    2.60301   2.60996   2.63636   2.65946   2.68093
 Alpha virt. eigenvalues --    2.71647   2.72862   2.74772   2.75772   2.77415
 Alpha virt. eigenvalues --    2.79406   2.81713   2.84339   2.87679   2.89662
 Alpha virt. eigenvalues --    2.94011   2.94438   3.00840   3.03285   3.06338
 Alpha virt. eigenvalues --    3.24065   3.26208   3.28249   3.28680   3.33253
 Alpha virt. eigenvalues --    3.44225   3.44836   3.45760   3.45811   3.46696
 Alpha virt. eigenvalues --    3.48509   3.48818   3.53355   4.28130   4.39318
 Alpha virt. eigenvalues --    4.53155   4.55432   4.57383   4.68674   4.91391
          Condensed to atoms (all electrons):
              1          2          3          4          5          6
     1  C    7.560340  -0.213189  -0.213199  -0.536841  -0.339880   0.023278
     2  C   -0.213189   5.562990   0.089312   0.356595   0.048733  -0.216098
     3  C   -0.213199   0.089312   5.562996   0.356595   0.048734  -0.216100
     4  N   -0.536841   0.356595   0.356595   7.216276   0.033998   0.055627
     5  C   -0.339880   0.048733   0.048734   0.033998   5.781672  -0.364145
     6  C    0.023278  -0.216098  -0.216100   0.055627  -0.364145   5.877365
     7  C    0.182276  -0.213634  -0.213637   0.166350  -0.013371   0.033131
     8  H   -0.012055   0.394258   0.020076  -0.050630   0.013068  -0.021783
     9  H   -0.067157   0.418227   0.014383  -0.088857  -0.022838   0.010070
    10  H   -0.067158   0.014385   0.418228  -0.088856  -0.022839   0.010071
    11  H   -0.012057   0.020076   0.394260  -0.050631   0.013068  -0.021785
    12  H   -0.108276  -0.016527  -0.016527   0.009401   0.475408   0.005294
    13  H   -0.102117   0.017021   0.001335  -0.001654   0.452463  -0.016519
    14  H   -0.102117   0.001336   0.017021  -0.001654   0.452463  -0.016519
    15  H   -0.070891  -0.009443   0.010248  -0.001231  -0.029554   0.450589
    16  H   -0.070890   0.010248  -0.009443  -0.001231  -0.029554   0.450590
    17  H   -0.066241  -0.037964  -0.037964   0.015397  -0.003659   0.489975
    18  H    0.016093  -0.016960  -0.016962  -0.120804  -0.005004   0.001548
    19  H   -0.014251   0.011178   0.014968  -0.046391  -0.000489  -0.000803
    20  H   -0.014256   0.014969   0.011181  -0.046388  -0.000489  -0.000803
              7          8          9         10         11         12
     1  C    0.182276  -0.012055  -0.067157  -0.067158  -0.012057  -0.108276
     2  C   -0.213634   0.394258   0.418227   0.014385   0.020076  -0.016527
     3  C   -0.213637   0.020076   0.014383   0.418228   0.394260  -0.016527
     4  N    0.166350  -0.050630  -0.088857  -0.088856  -0.050631   0.009401
     5  C   -0.013371   0.013068  -0.022838  -0.022839   0.013068   0.475408
     6  C    0.033131  -0.021783   0.010070   0.010071  -0.021785   0.005294
     7  C    5.148637  -0.014451   0.020281   0.020278  -0.014450   0.002637
     8  H   -0.014451   0.584844  -0.047648  -0.000899  -0.000114   0.000026
     9  H    0.020281  -0.047648   0.629888   0.005678  -0.000899   0.001255
    10  H    0.020278  -0.000899   0.005678   0.629888  -0.047647   0.001255
    11  H   -0.014450  -0.000114  -0.000899  -0.047647   0.584844   0.000026
    12  H    0.002637   0.000026   0.001255   0.001255   0.000026   0.559996
    13  H    0.000172  -0.000116   0.000136   0.000478   0.000412  -0.028259
    14  H    0.000172   0.000412   0.000478   0.000136  -0.000116  -0.028259
    15  H   -0.000086   0.001022   0.000168  -0.000118   0.000069   0.000021
    16  H   -0.000087   0.000069  -0.000118   0.000168   0.001022   0.000021
    17  H    0.002065  -0.000215   0.000116   0.000116  -0.000215  -0.000157
    18  H    0.455859  -0.000878   0.010099   0.010100  -0.000879  -0.000100
    19  H    0.392042   0.001338  -0.001016  -0.000121  -0.000059   0.000003
    20  H    0.392039  -0.000059  -0.000121  -0.001016   0.001337   0.000003
             13         14         15         16         17         18
     1  C   -0.102117  -0.102117  -0.070891  -0.070890  -0.066241   0.016093
     2  C    0.017021   0.001336  -0.009443   0.010248  -0.037964  -0.016960
     3  C    0.001335   0.017021   0.010248  -0.009443  -0.037964  -0.016962
     4  N   -0.001654  -0.001654  -0.001231  -0.001231   0.015397  -0.120804
     5  C    0.452463   0.452463  -0.029554  -0.029554  -0.003659  -0.005004
     6  C   -0.016519  -0.016519   0.450589   0.450590   0.489975   0.001548
     7  C    0.000172   0.000172  -0.000086  -0.000087   0.002065   0.455859
     8  H   -0.000116   0.000412   0.001022   0.000069  -0.000215  -0.000878
     9  H    0.000136   0.000478   0.000168  -0.000118   0.000116   0.010099
    10  H    0.000478   0.000136  -0.000118   0.000168   0.000116   0.010100
    11  H    0.000412  -0.000116   0.000069   0.001022  -0.000215  -0.000879
    12  H   -0.028259  -0.028259   0.000021   0.000021  -0.000157  -0.000100
    13  H    0.557861  -0.029338  -0.000277   0.002780   0.000028   0.000002
    14  H   -0.029338   0.557861   0.002780  -0.000277   0.000028   0.000002
    15  H   -0.000277   0.002780   0.560881  -0.029988  -0.027262   0.000001
    16  H    0.002780  -0.000277  -0.029988   0.560881  -0.027262   0.000001
    17  H    0.000028   0.000028  -0.027262  -0.027262   0.529098   0.000002
    18  H    0.000002   0.000002   0.000001   0.000001   0.000002   0.627734
    19  H    0.000000  -0.000001  -0.000001   0.000000   0.000008  -0.038650
    20  H   -0.000001   0.000000   0.000000  -0.000001   0.000008  -0.038652
             19         20
     1  C   -0.014251  -0.014256
     2  C    0.011178   0.014969
     3  C    0.014968   0.011181
     4  N   -0.046391  -0.046388
     5  C   -0.000489  -0.000489
     6  C   -0.000803  -0.000803
     7  C    0.392042   0.392039
     8  H    0.001338  -0.000059
     9  H   -0.001016  -0.000121
    10  H   -0.000121  -0.001016
    11  H   -0.000059   0.001337
    12  H    0.000003   0.000003
    13  H    0.000000  -0.000001
    14  H   -0.000001   0.000000
    15  H   -0.000001   0.000000
    16  H    0.000000  -0.000001
    17  H    0.000008   0.000008
    18  H   -0.038650  -0.038652
    19  H    0.564822  -0.022401
    20  H   -0.022401   0.564823
 Mulliken atomic charges:
              1
     1  C    0.228584
     2  C   -0.235511
     3  C   -0.235505
     4  N   -0.175071
     5  C   -0.487785
     6  C   -0.532984
     7  C   -0.346224
     8  H    0.133736
     9  H    0.117874
    10  H    0.117873
    11  H    0.133736
    12  H    0.142755
    13  H    0.145592
    14  H    0.145592
    15  H    0.143070
    16  H    0.143070
    17  H    0.164096
    18  H    0.117448
    19  H    0.139827
    20  H    0.139827
 Sum of Mulliken atomic charges =   0.00000
 Mulliken charges with hydrogens summed into heavy atoms:
              1
     1  C    0.228584
     2  C    0.016099
     3  C    0.016104
     4  N   -0.175071
     5  C   -0.053846
     6  C   -0.082747
     7  C    0.050878
 Sum of Mulliken charges with hydrogens summed into heavy atoms =   0.00000
 Electronic spatial extent (au):  <R**2>=            866.8386
 Charge=              0.0000 electrons
 Dipole moment (field-independent basis, Debye):
    X=             -0.2856    Y=              0.7759    Z=              0.0000  Tot=              0.8268
 Quadrupole moment (field-independent basis, Debye-Ang):
   XX=            -45.9038   YY=            -48.7400   ZZ=            -45.6651
   XY=              1.0237   XZ=              0.0000   YZ=              0.0000
 Traceless Quadrupole moment (field-independent basis, Debye-Ang):
   XX=              0.8658   YY=             -1.9703   ZZ=              1.1045
   XY=              1.0237   XZ=              0.0000   YZ=              0.0000
 Octapole moment (field-independent basis, Debye-Ang**2):
  XXX=              7.2919  YYY=              0.5694  ZZZ=              0.0001  XYY=             -0.8624
  XXY=             -0.4181  XXZ=              0.0001  XZZ=              0.8321  YZZ=             -2.1892
  YYZ=             -0.0001  XYZ=              0.0001
 Hexadecapole moment (field-independent basis, Debye-Ang**3):
 XXXX=           -763.2932 YYYY=           -268.2843 ZZZZ=           -198.8045 XXXY=             -5.7508
 XXXZ=              0.0002 YYYX=              0.8727 YYYZ=              0.0000 ZZZX=              0.0004
 ZZZY=              0.0001 XXYY=           -182.8775 XXZZ=           -155.2579 YYZZ=            -77.5880
 XXYZ=              0.0003 YYXZ=             -0.0002 ZZXY=             -2.1717
 N-N= 3.298283262266D+02 E-N=-1.333083030020D+03  KE= 2.883134521698D+02
 1\1\GINC-ROCK\FOpt\RB3LYP\6-31+G(d,p)\C6H13N1\STYLIANAKIS\27-Mar-2016\
 0\\# opt b3lyp/6-31+g(d,p)\\3,3diMe-N-Me-azetidine-NI\\0,1\C,-0.599076
 5402,-0.5881169272,0.175104626\C,-0.5185564274,0.9601059824,0.00896186
 93\C,0.9397071732,-0.5499268035,-0.0734213277\N,0.9374058803,0.8916858
 429,0.2484826449\C,-1.4400105661,-1.3442795666,-0.8502447466\C,-0.9509
 077824,-1.0059630353,1.6062084613\C,1.8088355532,1.7740519298,-0.49937
 90244\H,-1.0745670168,1.5845908825,0.7198655863\H,-0.7710032086,1.2748
 615955,-1.0196932432\H,1.1886116314,-0.7543172559,-1.1303998669\H,1.58
 13398201,-1.1656053333,0.5698212609\H,-1.1909096911,-1.0478237944,-1.8
 747706331\H,-1.2812584584,-2.4265114554,-0.7649457935\H,-2.5095055948,
 -1.1546583243,-0.6955569616\H,-2.0075083048,-0.8054905187,1.8223906538
 \H,-0.7775049478,-2.0791547304,1.7529042984\H,-0.3435156211,-0.4591104
 985,2.3342294742\H,1.6661501171,1.6960032463,-1.5961395228\H,1.6258574
 694,2.8130839097,-0.2042157822\H,2.8550593148,1.5403606546,-0.27355917
 31\\Version=EM64L-G09RevA.01\State=1-A\HF=-291.2111862\RMSD=5.235e-09\
 RMSF=6.751e-06\Dipole=-0.1244273,-0.1047835,-0.281691\Quadrupole=0.523
 8243,0.6246606,-1.1484849,-0.2422825,-0.8217725,-0.6861646\PG=C01 [X(C
 6H13N1)]\\@


 DON'T WORRY CHARLIE BROWN...WE LEARN MORE FROM LOSING 
 THAN WE DO FROM WINNING.
 THEN THAT MAKES ME THE SMARTEST PERSON IN THE WORLD...
 CHARLES SCHULZ 'PEANUTS'
 Job cpu time:  0 days  1 hours 59 minutes 32.7 seconds.
 File lengths (MBytes):  RWF=     21 Int=      0 D2E=      0 Chk=      4 Scr=      1
 Normal termination of Gaussian 09 at Sun Mar 27 04:38:10 2016.
