 Entering Gaussian System, Link 0=g09
 Input=bicyclooctyl-CMe2Cl.gjf
 Output=bicyclooctyl-CMe2Cl.out
 Initial command:
 /usr/local/g09/l1.exe /home/scratch/stylianakis/Gau-16017.inp -scrdir=/home/scratch/stylianakis/
 Entering Link 1 = /usr/local/g09/l1.exe PID=     16018.
  
 Copyright (c) 1988,1990,1992,1993,1995,1998,2003,2009, Gaussian, Inc.
                  All Rights Reserved.
  
 This is part of the Gaussian(R) 09 program.  It is based on
 the Gaussian(R) 03 system (copyright 2003, Gaussian, Inc.),
 the Gaussian(R) 98 system (copyright 1998, Gaussian, Inc.),
 the Gaussian(R) 94 system (copyright 1995, Gaussian, Inc.),
 the Gaussian 92(TM) system (copyright 1992, Gaussian, Inc.),
 the Gaussian 90(TM) system (copyright 1990, Gaussian, Inc.),
 the Gaussian 88(TM) system (copyright 1988, Gaussian, Inc.),
 the Gaussian 86(TM) system (copyright 1986, Carnegie Mellon
 University), and the Gaussian 82(TM) system (copyright 1983,
 Carnegie Mellon University). Gaussian is a federally registered
 trademark of Gaussian, Inc.
  
 This software contains proprietary and confidential information,
 including trade secrets, belonging to Gaussian, Inc.
  
 This software is provided under written license and may be
 used, copied, transmitted, or stored only in accord with that
 written license.
  
 The following legend is applicable only to US Government
 contracts under FAR:
  
                    RESTRICTED RIGHTS LEGEND
  
 Use, reproduction and disclosure by the US Government is
 subject to restrictions as set forth in subparagraphs (a)
 and (c) of the Commercial Computer Software - Restricted
 Rights clause in FAR 52.227-19.
  
 Gaussian, Inc.
 340 Quinnipiac St., Bldg. 40, Wallingford CT 06492
  
  
 ---------------------------------------------------------------
 Warning -- This program may not be used in any manner that
 competes with the business of Gaussian, Inc. or will provide
 assistance to any competitor of Gaussian, Inc.  The licensee
 of this program is prohibited from giving any competitor of
 Gaussian, Inc. access to this program.  By using this program,
 the user acknowledges that Gaussian, Inc. is engaged in the
 business of creating and licensing software in the field of
 computational chemistry and represents and warrants to the
 licensee that it is not a competitor of Gaussian, Inc. and that
 it will not use this program in any manner prohibited above.
 ---------------------------------------------------------------
  

 Cite this work as:
 Gaussian 09, Revision A.01,
 M. J. Frisch, G. W. Trucks, H. B. Schlegel, G. E. Scuseria, 
 M. A. Robb, J. R. Cheeseman, G. Scalmani, V. Barone, B. Mennucci, 
 G. A. Petersson, H. Nakatsuji, M. Caricato, X. Li, H. P. Hratchian, 
 A. F. Izmaylov, J. Bloino, G. Zheng, J. L. Sonnenberg, M. Hada, 
 M. Ehara, K. Toyota, R. Fukuda, J. Hasegawa, M. Ishida, T. Nakajima, 
 Y. Honda, O. Kitao, H. Nakai, T. Vreven, J. A. Montgomery, Jr., 
 J. E. Peralta, F. Ogliaro, M. Bearpark, J. J. Heyd, E. Brothers, 
 K. N. Kudin, V. N. Staroverov, R. Kobayashi, J. Normand, 
 K. Raghavachari, A. Rendell, J. C. Burant, S. S. Iyengar, J. Tomasi, 
 M. Cossi, N. Rega, J. M. Millam, M. Klene, J. E. Knox, J. B. Cross, 
 V. Bakken, C. Adamo, J. Jaramillo, R. Gomperts, R. E. Stratmann, 
 O. Yazyev, A. J. Austin, R. Cammi, C. Pomelli, J. W. Ochterski, 
 R. L. Martin, K. Morokuma, V. G. Zakrzewski, G. A. Voth, 
 P. Salvador, J. J. Dannenberg, S. Dapprich, A. D. Daniels, 
 O. Farkas, J. B. Foresman, J. V. Ortiz, J. Cioslowski, 
 and D. J. Fox, Gaussian, Inc., Wallingford CT, 2009.
 
 ******************************************
 Gaussian 09:  EM64L-G09RevA.01  8-May-2009
                27-Mar-2016 
 ******************************************
 %mem=16000Mb
 %nproc=8
 Will use up to    8 processors via shared memory.
 -----------------------
 # opt b3lyp/6-31+g(d,p)
 -----------------------
 1/14=-1,18=20,19=15,26=3,38=1/1,3;
 2/9=110,12=2,17=6,18=5,40=1/2;
 3/5=1,6=6,7=111,11=2,16=1,25=1,30=1,71=1,74=-5/1,2,3;
 4//1;
 5/5=2,38=5/2;
 6/7=2,8=2,9=2,10=2,28=1/1;
 7//1,2,3,16;
 1/14=-1,18=20,19=15/3(2);
 2/9=110/2;
 99//99;
 2/9=110/2;
 3/5=1,6=6,7=111,11=2,16=1,25=1,30=1,71=1,74=-5/1,2,3;
 4/5=5,16=3/1;
 5/5=2,38=5/2;
 7//1,2,3,16;
 1/14=-1,18=20,19=15/3(-5);
 2/9=110/2;
 6/7=2,8=2,9=2,10=2,19=2,28=1/1;
 99/9=1/99;
 -------------------
 bicyclooctyl-CMe2Cl
 -------------------
 Symbolic Z-matrix:
 Charge =  0 Multiplicity = 1
 C                    -2.56455  -0.75546   0. 
 C                    -1.11755  -1.28346   0. 
 C                    -2.56255   0.77954   0. 
 C                    -0.07655  -0.13446   0. 
 C                    -1.82155   1.27954  -1.246 
 C                    -0.38355   0.73054  -1.252 
 C                    -1.82155   1.27954   1.246 
 C                    -0.38355   0.73054   1.252 
 C                     1.39945  -0.67546   0. 
 C                     1.74745  -1.52846  -1.242 
 Cl                    2.58345   0.70954   0. 
 C                     1.74745  -1.52846   1.242 
 H                    -3.11955  -1.12846   0.894 
 H                    -3.11955  -1.12846  -0.894 
 H                    -0.97855  -1.93446  -0.893 
 H                    -0.97855  -1.93446   0.893 
 H                    -3.61255   1.16454   0. 
 H                    -1.81655   2.39554  -1.257 
 H                    -2.37055   0.95854  -2.164 
 H                     0.32645   1.58554  -1.324 
 H                    -0.24655   0.12754  -2.179 
 H                    -2.37055   0.95854   2.164 
 H                    -1.81655   2.39554   1.257 
 H                    -0.24655   0.12754   2.179 
 H                     0.32645   1.58554   1.324 
 H                     2.80445  -1.88246  -1.215 
 H                     1.12245  -2.44546  -1.307 
 H                     1.63645  -0.97146  -2.199 
 H                     2.80445  -1.88246   1.215 
 H                     1.63645  -0.97146   2.199 
 H                     1.12245  -2.44546   1.307 
 

 GradGradGradGradGradGradGradGradGradGradGradGradGradGradGradGradGradGrad
 Berny optimization.
 Initialization pass.
                           ----------------------------
                           !    Initial Parameters    !
                           ! (Angstroms and Degrees)  !
 --------------------------                            --------------------------
 ! Name  Definition              Value          Derivative Info.                !
 --------------------------------------------------------------------------------
 ! R1    R(1,2)                  1.5403         estimate D2E/DX2                !
 ! R2    R(1,3)                  1.535          estimate D2E/DX2                !
 ! R3    R(1,13)                 1.1164         estimate D2E/DX2                !
 ! R4    R(1,14)                 1.1164         estimate D2E/DX2                !
 ! R5    R(2,4)                  1.5504         estimate D2E/DX2                !
 ! R6    R(2,15)                 1.1138         estimate D2E/DX2                !
 ! R7    R(2,16)                 1.1138         estimate D2E/DX2                !
 ! R8    R(3,5)                  1.5335         estimate D2E/DX2                !
 ! R9    R(3,7)                  1.5335         estimate D2E/DX2                !
 ! R10   R(3,17)                 1.1184         estimate D2E/DX2                !
 ! R11   R(4,6)                  1.5524         estimate D2E/DX2                !
 ! R12   R(4,8)                  1.5524         estimate D2E/DX2                !
 ! R13   R(4,9)                  1.572          estimate D2E/DX2                !
 ! R14   R(5,6)                  1.5392         estimate D2E/DX2                !
 ! R15   R(5,18)                 1.1161         estimate D2E/DX2                !
 ! R16   R(5,19)                 1.1168         estimate D2E/DX2                !
 ! R17   R(6,20)                 1.1137         estimate D2E/DX2                !
 ! R18   R(6,21)                 1.1143         estimate D2E/DX2                !
 ! R19   R(7,8)                  1.5392         estimate D2E/DX2                !
 ! R20   R(7,22)                 1.1168         estimate D2E/DX2                !
 ! R21   R(7,23)                 1.1161         estimate D2E/DX2                !
 ! R22   R(8,24)                 1.1143         estimate D2E/DX2                !
 ! R23   R(8,25)                 1.1137         estimate D2E/DX2                !
 ! R24   R(9,10)                 1.5464         estimate D2E/DX2                !
 ! R25   R(9,11)                 1.8221         estimate D2E/DX2                !
 ! R26   R(9,12)                 1.5464         estimate D2E/DX2                !
 ! R27   R(10,26)                1.115          estimate D2E/DX2                !
 ! R28   R(10,27)                1.1116         estimate D2E/DX2                !
 ! R29   R(10,28)                1.1128         estimate D2E/DX2                !
 ! R30   R(12,29)                1.115          estimate D2E/DX2                !
 ! R31   R(12,30)                1.1128         estimate D2E/DX2                !
 ! R32   R(12,31)                1.1116         estimate D2E/DX2                !
 ! A1    A(2,1,3)              109.972          estimate D2E/DX2                !
 ! A2    A(2,1,13)             110.6391         estimate D2E/DX2                !
 ! A3    A(2,1,14)             110.6391         estimate D2E/DX2                !
 ! A4    A(3,1,13)             109.5574         estimate D2E/DX2                !
 ! A5    A(3,1,14)             109.5574         estimate D2E/DX2                !
 ! A6    A(13,1,14)            106.4084         estimate D2E/DX2                !
 ! A7    A(1,2,4)              112.1301         estimate D2E/DX2                !
 ! A8    A(1,2,15)             108.5171         estimate D2E/DX2                !
 ! A9    A(1,2,16)             108.5171         estimate D2E/DX2                !
 ! A10   A(4,2,15)             110.4478         estimate D2E/DX2                !
 ! A11   A(4,2,16)             110.4478         estimate D2E/DX2                !
 ! A12   A(15,2,16)            106.5957         estimate D2E/DX2                !
 ! A13   A(1,3,5)              109.0675         estimate D2E/DX2                !
 ! A14   A(1,3,7)              109.0675         estimate D2E/DX2                !
 ! A15   A(1,3,17)             110.0617         estimate D2E/DX2                !
 ! A16   A(5,3,7)              108.6867         estimate D2E/DX2                !
 ! A17   A(5,3,17)             109.964          estimate D2E/DX2                !
 ! A18   A(7,3,17)             109.964          estimate D2E/DX2                !
 ! A19   A(2,4,6)              106.2691         estimate D2E/DX2                !
 ! A20   A(2,4,8)              106.2691         estimate D2E/DX2                !
 ! A21   A(2,4,9)              112.0473         estimate D2E/DX2                !
 ! A22   A(6,4,8)              107.5084         estimate D2E/DX2                !
 ! A23   A(6,4,9)              112.1748         estimate D2E/DX2                !
 ! A24   A(8,4,9)              112.1748         estimate D2E/DX2                !
 ! A25   A(3,5,6)              109.7734         estimate D2E/DX2                !
 ! A26   A(3,5,18)             109.646          estimate D2E/DX2                !
 ! A27   A(3,5,19)             109.6725         estimate D2E/DX2                !
 ! A28   A(6,5,18)             110.6356         estimate D2E/DX2                !
 ! A29   A(6,5,19)             110.7039         estimate D2E/DX2                !
 ! A30   A(18,5,19)            106.351          estimate D2E/DX2                !
 ! A31   A(4,6,5)              112.3548         estimate D2E/DX2                !
 ! A32   A(4,6,20)             110.7221         estimate D2E/DX2                !
 ! A33   A(4,6,21)             110.1868         estimate D2E/DX2                !
 ! A34   A(5,6,20)             108.785          estimate D2E/DX2                !
 ! A35   A(5,6,21)             108.126          estimate D2E/DX2                !
 ! A36   A(20,6,21)            106.456          estimate D2E/DX2                !
 ! A37   A(3,7,8)              109.7734         estimate D2E/DX2                !
 ! A38   A(3,7,22)             109.6725         estimate D2E/DX2                !
 ! A39   A(3,7,23)             109.646          estimate D2E/DX2                !
 ! A40   A(8,7,22)             110.7039         estimate D2E/DX2                !
 ! A41   A(8,7,23)             110.6356         estimate D2E/DX2                !
 ! A42   A(22,7,23)            106.351          estimate D2E/DX2                !
 ! A43   A(4,8,7)              112.3548         estimate D2E/DX2                !
 ! A44   A(4,8,24)             110.1868         estimate D2E/DX2                !
 ! A45   A(4,8,25)             110.7221         estimate D2E/DX2                !
 ! A46   A(7,8,24)             108.126          estimate D2E/DX2                !
 ! A47   A(7,8,25)             108.785          estimate D2E/DX2                !
 ! A48   A(24,8,25)            106.456          estimate D2E/DX2                !
 ! A49   A(4,9,10)             113.6488         estimate D2E/DX2                !
 ! A50   A(4,9,11)             110.3968         estimate D2E/DX2                !
 ! A51   A(4,9,12)             113.6488         estimate D2E/DX2                !
 ! A52   A(10,9,11)            105.846          estimate D2E/DX2                !
 ! A53   A(10,9,12)            106.8675         estimate D2E/DX2                !
 ! A54   A(11,9,12)            105.846          estimate D2E/DX2                !
 ! A55   A(9,10,26)            111.6544         estimate D2E/DX2                !
 ! A56   A(9,10,27)            112.0532         estimate D2E/DX2                !
 ! A57   A(9,10,28)            113.0885         estimate D2E/DX2                !
 ! A58   A(26,10,27)           105.8129         estimate D2E/DX2                !
 ! A59   A(26,10,28)           105.9192         estimate D2E/DX2                !
 ! A60   A(27,10,28)           107.8496         estimate D2E/DX2                !
 ! A61   A(9,12,29)            111.6544         estimate D2E/DX2                !
 ! A62   A(9,12,30)            113.0885         estimate D2E/DX2                !
 ! A63   A(9,12,31)            112.0532         estimate D2E/DX2                !
 ! A64   A(29,12,30)           105.9192         estimate D2E/DX2                !
 ! A65   A(29,12,31)           105.8129         estimate D2E/DX2                !
 ! A66   A(30,12,31)           107.8496         estimate D2E/DX2                !
 ! D1    D(3,1,2,4)              0.0            estimate D2E/DX2                !
 ! D2    D(3,1,2,15)          -122.2716         estimate D2E/DX2                !
 ! D3    D(3,1,2,16)           122.2716         estimate D2E/DX2                !
 ! D4    D(13,1,2,4)          -121.1635         estimate D2E/DX2                !
 ! D5    D(13,1,2,15)          116.5649         estimate D2E/DX2                !
 ! D6    D(13,1,2,16)            1.1081         estimate D2E/DX2                !
 ! D7    D(14,1,2,4)           121.1635         estimate D2E/DX2                !
 ! D8    D(14,1,2,15)           -1.1081         estimate D2E/DX2                !
 ! D9    D(14,1,2,16)         -116.5649         estimate D2E/DX2                !
 ! D10   D(2,1,3,5)             59.2821         estimate D2E/DX2                !
 ! D11   D(2,1,3,7)            -59.2821         estimate D2E/DX2                !
 ! D12   D(2,1,3,17)           180.0            estimate D2E/DX2                !
 ! D13   D(13,1,3,5)          -178.9082         estimate D2E/DX2                !
 ! D14   D(13,1,3,7)            62.5276         estimate D2E/DX2                !
 ! D15   D(13,1,3,17)          -58.1903         estimate D2E/DX2                !
 ! D16   D(14,1,3,5)           -62.5276         estimate D2E/DX2                !
 ! D17   D(14,1,3,7)           178.9082         estimate D2E/DX2                !
 ! D18   D(14,1,3,17)           58.1903         estimate D2E/DX2                !
 ! D19   D(1,2,4,6)            -57.1538         estimate D2E/DX2                !
 ! D20   D(1,2,4,8)             57.1538         estimate D2E/DX2                !
 ! D21   D(1,2,4,9)            180.0            estimate D2E/DX2                !
 ! D22   D(15,2,4,6)            64.0126         estimate D2E/DX2                !
 ! D23   D(15,2,4,8)           178.3202         estimate D2E/DX2                !
 ! D24   D(15,2,4,9)           -58.8336         estimate D2E/DX2                !
 ! D25   D(16,2,4,6)          -178.3202         estimate D2E/DX2                !
 ! D26   D(16,2,4,8)           -64.0126         estimate D2E/DX2                !
 ! D27   D(16,2,4,9)            58.8336         estimate D2E/DX2                !
 ! D28   D(1,3,5,6)            -58.4052         estimate D2E/DX2                !
 ! D29   D(1,3,5,18)           179.8599         estimate D2E/DX2                !
 ! D30   D(1,3,5,19)            63.4316         estimate D2E/DX2                !
 ! D31   D(7,3,5,6)             60.397          estimate D2E/DX2                !
 ! D32   D(7,3,5,18)           -61.3379         estimate D2E/DX2                !
 ! D33   D(7,3,5,19)          -177.7662         estimate D2E/DX2                !
 ! D34   D(17,3,5,6)          -179.1829         estimate D2E/DX2                !
 ! D35   D(17,3,5,18)           59.0822         estimate D2E/DX2                !
 ! D36   D(17,3,5,19)          -57.3461         estimate D2E/DX2                !
 ! D37   D(1,3,7,8)             58.4052         estimate D2E/DX2                !
 ! D38   D(1,3,7,22)           -63.4316         estimate D2E/DX2                !
 ! D39   D(1,3,7,23)          -179.8599         estimate D2E/DX2                !
 ! D40   D(5,3,7,8)            -60.397          estimate D2E/DX2                !
 ! D41   D(5,3,7,22)           177.7662         estimate D2E/DX2                !
 ! D42   D(5,3,7,23)            61.3379         estimate D2E/DX2                !
 ! D43   D(17,3,7,8)           179.1829         estimate D2E/DX2                !
 ! D44   D(17,3,7,22)           57.3461         estimate D2E/DX2                !
 ! D45   D(17,3,7,23)          -59.0822         estimate D2E/DX2                !
 ! D46   D(2,4,6,5)             58.0745         estimate D2E/DX2                !
 ! D47   D(2,4,6,20)           179.9346         estimate D2E/DX2                !
 ! D48   D(2,4,6,21)           -62.563          estimate D2E/DX2                !
 ! D49   D(8,4,6,5)            -55.3833         estimate D2E/DX2                !
 ! D50   D(8,4,6,20)            66.4768         estimate D2E/DX2                !
 ! D51   D(8,4,6,21)          -176.0208         estimate D2E/DX2                !
 ! D52   D(9,4,6,5)           -179.1596         estimate D2E/DX2                !
 ! D53   D(9,4,6,20)           -57.2996         estimate D2E/DX2                !
 ! D54   D(9,4,6,21)            60.2028         estimate D2E/DX2                !
 ! D55   D(2,4,8,7)            -58.0745         estimate D2E/DX2                !
 ! D56   D(2,4,8,24)            62.563          estimate D2E/DX2                !
 ! D57   D(2,4,8,25)          -179.9346         estimate D2E/DX2                !
 ! D58   D(6,4,8,7)             55.3833         estimate D2E/DX2                !
 ! D59   D(6,4,8,24)           176.0208         estimate D2E/DX2                !
 ! D60   D(6,4,8,25)           -66.4768         estimate D2E/DX2                !
 ! D61   D(9,4,8,7)            179.1596         estimate D2E/DX2                !
 ! D62   D(9,4,8,24)           -60.2028         estimate D2E/DX2                !
 ! D63   D(9,4,8,25)            57.2996         estimate D2E/DX2                !
 ! D64   D(2,4,9,10)            61.2588         estimate D2E/DX2                !
 ! D65   D(2,4,9,11)           180.0            estimate D2E/DX2                !
 ! D66   D(2,4,9,12)           -61.2588         estimate D2E/DX2                !
 ! D67   D(6,4,9,10)           -58.1775         estimate D2E/DX2                !
 ! D68   D(6,4,9,11)            60.5637         estimate D2E/DX2                !
 ! D69   D(6,4,9,12)           179.3048         estimate D2E/DX2                !
 ! D70   D(8,4,9,10)          -179.3048         estimate D2E/DX2                !
 ! D71   D(8,4,9,11)           -60.5637         estimate D2E/DX2                !
 ! D72   D(8,4,9,12)            58.1775         estimate D2E/DX2                !
 ! D73   D(3,5,6,4)             -1.3372         estimate D2E/DX2                !
 ! D74   D(3,5,6,20)          -124.2931         estimate D2E/DX2                !
 ! D75   D(3,5,6,21)           120.4812         estimate D2E/DX2                !
 ! D76   D(18,5,6,4)           119.804          estimate D2E/DX2                !
 ! D77   D(18,5,6,20)           -3.152          estimate D2E/DX2                !
 ! D78   D(18,5,6,21)         -118.3776         estimate D2E/DX2                !
 ! D79   D(19,5,6,4)          -122.5558         estimate D2E/DX2                !
 ! D80   D(19,5,6,20)          114.4883         estimate D2E/DX2                !
 ! D81   D(19,5,6,21)           -0.7374         estimate D2E/DX2                !
 ! D82   D(3,7,8,4)              1.3372         estimate D2E/DX2                !
 ! D83   D(3,7,8,24)          -120.4812         estimate D2E/DX2                !
 ! D84   D(3,7,8,25)           124.2931         estimate D2E/DX2                !
 ! D85   D(22,7,8,4)           122.5558         estimate D2E/DX2                !
 ! D86   D(22,7,8,24)            0.7374         estimate D2E/DX2                !
 ! D87   D(22,7,8,25)         -114.4883         estimate D2E/DX2                !
 ! D88   D(23,7,8,4)          -119.804          estimate D2E/DX2                !
 ! D89   D(23,7,8,24)          118.3776         estimate D2E/DX2                !
 ! D90   D(23,7,8,25)            3.152          estimate D2E/DX2                !
 ! D91   D(4,9,10,26)          179.1965         estimate D2E/DX2                !
 ! D92   D(4,9,10,27)          -62.3028         estimate D2E/DX2                !
 ! D93   D(4,9,10,28)           59.8521         estimate D2E/DX2                !
 ! D94   D(11,9,10,26)          57.878          estimate D2E/DX2                !
 ! D95   D(11,9,10,27)         176.3787         estimate D2E/DX2                !
 ! D96   D(11,9,10,28)         -61.4664         estimate D2E/DX2                !
 ! D97   D(12,9,10,26)         -54.6206         estimate D2E/DX2                !
 ! D98   D(12,9,10,27)          63.8801         estimate D2E/DX2                !
 ! D99   D(12,9,10,28)        -173.965          estimate D2E/DX2                !
 ! D100  D(4,9,12,29)         -179.1965         estimate D2E/DX2                !
 ! D101  D(4,9,12,30)          -59.8521         estimate D2E/DX2                !
 ! D102  D(4,9,12,31)           62.3028         estimate D2E/DX2                !
 ! D103  D(10,9,12,29)          54.6206         estimate D2E/DX2                !
 ! D104  D(10,9,12,30)         173.965          estimate D2E/DX2                !
 ! D105  D(10,9,12,31)         -63.8801         estimate D2E/DX2                !
 ! D106  D(11,9,12,29)         -57.878          estimate D2E/DX2                !
 ! D107  D(11,9,12,30)          61.4664         estimate D2E/DX2                !
 ! D108  D(11,9,12,31)        -176.3787         estimate D2E/DX2                !
 --------------------------------------------------------------------------------
 Trust Radius=3.00D-01 FncErr=1.00D-07 GrdErr=1.00D-06
 Number of steps in this run= 186 maximum allowed number of steps= 186.
 GradGradGradGradGradGradGradGradGradGradGradGradGradGradGradGradGradGrad

                          Input orientation:                          
 ---------------------------------------------------------------------
 Center     Atomic      Atomic             Coordinates (Angstroms)
 Number     Number       Type             X           Y           Z
 ---------------------------------------------------------------------
      1          6           0       -2.564549   -0.755461    0.000000
      2          6           0       -1.117549   -1.283461    0.000000
      3          6           0       -2.562549    0.779539    0.000000
      4          6           0       -0.076549   -0.134461    0.000000
      5          6           0       -1.821549    1.279539   -1.246000
      6          6           0       -0.383549    0.730539   -1.252000
      7          6           0       -1.821549    1.279539    1.246000
      8          6           0       -0.383549    0.730539    1.252000
      9          6           0        1.399451   -0.675461    0.000000
     10          6           0        1.747451   -1.528461   -1.242000
     11         17           0        2.583451    0.709539    0.000000
     12          6           0        1.747451   -1.528461    1.242000
     13          1           0       -3.119549   -1.128461    0.894000
     14          1           0       -3.119549   -1.128461   -0.894000
     15          1           0       -0.978549   -1.934461   -0.893000
     16          1           0       -0.978549   -1.934461    0.893000
     17          1           0       -3.612549    1.164539    0.000000
     18          1           0       -1.816549    2.395539   -1.257000
     19          1           0       -2.370549    0.958539   -2.164000
     20          1           0        0.326451    1.585539   -1.324000
     21          1           0       -0.246549    0.127539   -2.179000
     22          1           0       -2.370549    0.958539    2.164000
     23          1           0       -1.816549    2.395539    1.257000
     24          1           0       -0.246549    0.127539    2.179000
     25          1           0        0.326451    1.585539    1.324000
     26          1           0        2.804451   -1.882461   -1.215000
     27          1           0        1.122451   -2.445461   -1.307000
     28          1           0        1.636451   -0.971461   -2.199000
     29          1           0        2.804451   -1.882461    1.215000
     30          1           0        1.636451   -0.971461    2.199000
     31          1           0        1.122451   -2.445461    1.307000
 ---------------------------------------------------------------------
                    Distance matrix (angstroms):
                    1          2          3          4          5
     1  C    0.000000
     2  C    1.540322   0.000000
     3  C    1.535001   2.518729   0.000000
     4  C    2.564329   1.550446   2.648696   0.000000
     5  C    2.499158   2.935490   1.533492   2.568450   0.000000
     6  C    2.921038   2.482429   2.513552   1.552410   1.539247
     7  C    2.499158   2.935490   1.533492   2.568450   2.492000
     8  C    2.921038   2.482429   2.513552   1.552410   2.934152
     9  C    3.964807   2.589392   4.220719   1.572023   3.968549
    10  C    4.553398   3.132222   5.044356   2.610129   4.541216
    11  Cl   5.352395   4.203504   5.146476   2.790687   4.613181
    12  C    4.553398   3.132222   5.044356   2.610129   5.178105
    13  H    1.116418   2.198014   2.179438   3.323721   3.473164
    14  H    1.116418   2.198014   2.179438   3.323721   2.758110
    15  H    2.168614   1.113809   3.266849   2.202511   3.341415
    16  H    2.168614   1.113809   3.266849   2.202511   3.951679
    17  H    2.187397   3.495387   1.118358   3.767054   2.184816
    18  H    3.473954   3.950151   2.178995   3.317913   1.116065
    19  H    2.767368   3.358492   2.179863   3.337661   1.116766
    20  H    3.948562   3.474086   3.278557   2.207665   2.171088
    21  H    3.301644   2.738175   3.246075   2.201269   2.162919
    22  H    2.767368   3.358492   2.179863   3.337661   3.468795
    23  H    3.473954   3.950151   2.178995   3.317913   2.740527
    24  H    3.301644   2.738175   3.246075   2.201269   3.941872
    25  H    3.948562   3.474086   3.278557   2.207665   3.363397
    26  H    5.618943   4.149351   6.112868   3.582163   5.603488
    27  H    4.261258   2.841847   5.068343   2.913172   4.748314
    28  H    4.746647   3.538002   5.053039   2.910419   4.234734
    29  H    5.618943   4.149351   6.112868   3.582163   6.120020
    30  H    4.746647   3.538002   5.053039   2.910419   5.375201
    31  H    4.261258   2.841847   5.068343   2.913172   5.390786
                    6          7          8          9         10
     6  C    0.000000
     7  C    2.934152   0.000000
     8  C    2.504000   1.539247   0.000000
     9  C    2.592958   3.968549   2.592958   0.000000
    10  C    3.105534   5.178105   3.982999   1.546375   0.000000
    11  Cl   3.220409   4.613181   3.220409   1.822109   2.692602
    12  C    3.982999   4.541216   3.105534   1.546375   2.484000
    13  H    3.942955   2.758110   3.327122   4.628802   5.330121
    14  H    3.327122   3.473164   3.942955   4.628802   4.895793
    15  H    2.754112   3.951679   3.472359   2.835033   2.778077
    16  H    3.472359   3.341415   2.754112   2.835033   3.486278
    17  H    3.490315   2.184816   3.490315   5.339077   6.125717
    18  H    2.196756   2.740527   3.334786   4.621011   5.300952
    19  H    2.198158   3.468795   3.958435   4.643894   4.898283
    20  H    1.113692   3.363397   2.805513   2.831329   3.423881
    21  H    1.114319   3.941872   3.486279   2.846430   2.756146
    22  H    3.958435   1.116766   2.198158   4.643894   5.894398
    23  H    3.334786   1.116065   2.196756   4.621011   5.860450
    24  H    3.486279   2.162919   1.114319   2.846430   4.292041
    25  H    2.805513   2.171088   1.113692   2.831329   4.277919
    26  H    4.122194   6.120020   4.803874   2.215197   1.115031
    27  H    3.515400   5.390786   4.347815   2.217629   1.111638
    28  H    2.806067   5.375201   4.345872   2.231454   1.112843
    29  H    4.803874   5.603488   4.122194   2.215197   2.698039
    30  H    4.345872   4.234734   2.806067   2.231454   3.487557
    31  H    4.347815   4.748314   3.515400   2.217629   2.780093
                   11         12         13         14         15
    11  Cl   0.000000
    12  C    2.692602   0.000000
    13  H    6.058192   4.895793   0.000000
    14  H    6.058192   5.330121   1.788000   0.000000
    15  H    4.525045   3.486278   2.902910   2.287688   0.000000
    16  H    4.525045   2.778077   2.287688   2.902910   1.786000
    17  H    6.212684   6.125717   2.510007   2.510007   4.164037
    18  H    4.876745   5.860450   4.329340   3.774673   4.425341
    19  H    5.411748   5.894398   3.777292   2.555283   3.452905
    20  H    2.759420   4.277919   4.915306   4.407450   3.778781
    21  H    3.618793   4.292041   4.390330   3.388641   2.538004
    22  H    5.411748   4.898283   2.555283   3.777292   4.433098
    23  H    4.876745   5.300952   3.774673   4.329340   4.906490
    24  H    3.618793   2.756146   3.388641   4.390330   3.771585
    25  H    2.759420   3.423881   4.407450   4.915306   4.359875
    26  H    2.871155   2.698039   6.333259   5.980412   3.797035
    27  H    3.714404   2.780093   4.957162   4.460899   2.201526
    28  H    2.925435   3.487557   5.675459   4.934289   3.077536
    29  H    2.871155   1.115031   5.980412   6.333259   4.330988
    30  H    2.925435   1.112843   4.934289   5.675459   4.162458
    31  H    3.714404   1.111638   4.460899   4.957162   3.084692
                   16         17         18         19         20
    16  H    0.000000
    17  H    4.164037   0.000000
    18  H    4.906490   2.514165   0.000000
    19  H    4.433098   2.503577   1.787326   0.000000
    20  H    4.359875   4.176833   2.291951   2.893534   0.000000
    21  H    3.771585   4.141662   2.908403   2.280825   1.784690
    22  H    3.452905   2.503577   3.751683   4.328000   4.453435
    23  H    4.425341   2.514165   2.514000   3.751683   3.451103
    24  H    2.538004   4.141662   4.406225   4.905465   3.837330
    25  H    3.778781   4.176833   3.451103   4.453435   2.648000
    26  H    4.330988   7.206825   6.297356   5.979340   4.263729
    27  H    3.084692   6.095947   5.663524   4.952041   4.108876
    28  H    4.162458   6.078659   4.913986   4.447716   3.003327
    29  H    3.797035   7.206825   6.765036   6.802172   4.961253
    30  H    3.077536   6.078659   5.933282   6.230306   4.545974
    31  H    2.201526   6.095947   6.216679   5.986327   4.879010
                   21         22         23         24         25
    21  H    0.000000
    22  H    4.905465   0.000000
    23  H    4.406225   1.787326   0.000000
    24  H    4.358000   2.280825   2.908403   0.000000
    25  H    3.837330   2.893534   2.291951   1.784690   0.000000
    26  H    3.778624   6.802172   6.765036   4.986776   4.961253
    27  H    3.042182   5.986327   6.216679   4.543862   4.879010
    28  H    2.180342   6.230306   5.933282   4.890846   4.545974
    29  H    4.986776   5.979340   6.297356   3.778624   4.263729
    30  H    4.890846   4.447716   4.913986   2.180342   3.003327
    31  H    4.543862   4.952041   5.663524   3.042182   4.108876
                   26         27         28         29         30
    26  H    0.000000
    27  H    1.776107   0.000000
    28  H    1.778314   1.797925   0.000000
    29  H    2.430000   3.083274   3.721497   0.000000
    30  H    3.721497   3.837826   4.398000   1.778314   0.000000
    31  H    3.083274   2.614000   3.837826   1.776107   1.797925
                   31
    31  H    0.000000
 Stoichiometry    C11H19Cl
 Framework group  CS[SG(C5HCl),X(C6H18)]
 Deg. of freedom    47
 Full point group                 CS      NOp   2
 Largest Abelian subgroup         CS      NOp   2
 Largest concise Abelian subgroup CS      NOp   2
                         Standard orientation:                         
 ---------------------------------------------------------------------
 Center     Atomic      Atomic             Coordinates (Angstroms)
 Number     Number       Type             X           Y           Z
 ---------------------------------------------------------------------
      1          6           0       -2.383887   -1.210255    0.000000
      2          6           0       -1.693630    0.166749    0.000000
      3          6           0       -1.329118   -2.325464    0.000000
      4          6           0       -0.147950    0.045281    0.000000
      5          6           0       -0.447005   -2.180699    1.246000
      6          6           0        0.222295   -0.794596    1.252000
      7          6           0       -0.447005   -2.180699   -1.246000
      8          6           0        0.222295   -0.794596   -1.252000
      9          6           0        0.554482    1.451641    0.000000
     10          6           0        0.222295    2.310922    1.242000
     11         17           0        2.366125    1.256629    0.000000
     12          6           0        0.222295    2.310922   -1.242000
     13          1           0       -3.043554   -1.319769   -0.894000
     14          1           0       -3.043554   -1.319769    0.894000
     15          1           0       -2.039234    0.735677    0.893000
     16          1           0       -2.039234    0.735677   -0.893000
     17          1           0       -1.828718   -3.326027    0.000000
     18          1           0        0.322429   -2.989063    1.257000
     19          1           0       -1.066625   -2.323922    2.164000
     20          1           0        1.325459   -0.929335    1.324000
     21          1           0       -0.091826   -0.261955    2.179000
     22          1           0       -1.066625   -2.323922   -2.164000
     23          1           0        0.322429   -2.989063   -1.257000
     24          1           0       -0.091826   -0.261955   -2.179000
     25          1           0        1.325459   -0.929335   -1.324000
     26          1           0        0.748259    3.293738    1.215000
     27          1           0       -0.861583    2.549088    1.307000
     28          1           0        0.523764    1.829584    2.199000
     29          1           0        0.748259    3.293738   -1.215000
     30          1           0        0.523764    1.829584   -2.199000
     31          1           0       -0.861583    2.549088   -1.307000
 ---------------------------------------------------------------------
 Rotational constants (GHZ):      1.4101214      0.6058676      0.5752700
 Standard basis: 6-31+G(d,p) (6D, 7F)
 There are   193 symmetry adapted basis functions of A'  symmetry.
 There are   134 symmetry adapted basis functions of A"  symmetry.
 Integral buffers will be    131072 words long.
 Raffenetti 2 integral format.
 Two-electron integral symmetry is turned on.
   327 basis functions,   541 primitive gaussians,   327 cartesian basis functions
    51 alpha electrons       51 beta electrons
       nuclear repulsion energy       899.3348967496 Hartrees.
 NAtoms=   31 NActive=   31 NUniq=   19 SFac= 2.00D+00 NAtFMM=   80 NAOKFM=F Big=F
 One-electron integrals computed using PRISM.
 NBasis=   327 RedAO= T  NBF=   193   134
 NBsUse=   327 1.00D-06 NBFU=   193   134
 Harris functional with IExCor=  402 diagonalized for initial guess.
 ExpMin= 4.38D-02 ExpMax= 2.52D+04 ExpMxC= 3.78D+03 IAcc=2 IRadAn=         0 AccDes= 0.00D+00
 HarFok:  IExCor=  402 AccDes= 0.00D+00 IRadAn=         0 IDoV= 1
 ScaDFX=  1.000000  1.000000  1.000000  1.000000
 FoFCou: FMM=F IPFlag=           0 FMFlag=      100000 FMFlg1=           0
         NFxFlg=           0 DoJE=T BraDBF=F KetDBF=T FulRan=T
         Omega=  0.000000  0.000000  1.000000  0.000000  0.000000 ICntrl=     500 IOpCl=  0
         NMat0=    1 NMatS0=    1 NMatT0=    0 NMatD0=    1 NMtDS0=    0 NMtDT0=    0
         I1Cent=           4 NGrid=           0.
 Petite list used in FoFCou.
 Initial guess orbital symmetries:
       Occupied  (A') (A") (A') (A") (A') (A') (A") (A') (A') (A')
                 (A') (A') (A') (A') (A") (A') (A') (A') (A') (A")
                 (A') (A') (A") (A") (A') (A') (A') (A') (A") (A')
                 (A') (A') (A') (A") (A") (A") (A') (A") (A') (A")
                 (A') (A") (A') (A") (A') (A") (A') (A") (A') (A')
                 (A")
       Virtual   (A') (A') (A') (A") (A') (A') (A") (A') (A") (A')
                 (A') (A') (A') (A") (A") (A") (A') (A') (A") (A')
                 (A') (A") (A') (A") (A') (A") (A') (A") (A') (A')
                 (A") (A') (A') (A") (A') (A') (A") (A') (A") (A')
                 (A') (A") (A") (A') (A") (A') (A') (A") (A') (A")
                 (A') (A") (A') (A") (A') (A") (A') (A') (A') (A")
                 (A') (A") (A') (A') (A") (A') (A") (A') (A") (A')
                 (A') (A") (A') (A') (A") (A') (A") (A') (A') (A')
                 (A') (A") (A") (A') (A') (A') (A") (A') (A') (A")
                 (A') (A") (A') (A') (A") (A') (A') (A") (A") (A')
                 (A') (A") (A') (A') (A") (A") (A') (A") (A') (A')
                 (A") (A') (A") (A") (A') (A") (A") (A') (A") (A')
                 (A') (A") (A') (A') (A") (A') (A") (A') (A') (A')
                 (A") (A') (A") (A') (A') (A") (A') (A") (A') (A')
                 (A') (A") (A') (A") (A") (A') (A") (A') (A") (A')
                 (A') (A") (A") (A') (A") (A") (A') (A') (A") (A")
                 (A') (A') (A") (A') (A') (A") (A") (A') (A') (A")
                 (A') (A') (A') (A") (A') (A') (A") (A') (A") (A')
                 (A") (A') (A') (A") (A') (A") (A') (A") (A') (A')
                 (A") (A') (A') (A") (A") (A') (A") (A") (A") (A')
                 (A") (A') (A") (A') (A") (A') (A") (A') (A") (A')
                 (A") (A') (A') (A") (A') (A') (A") (A") (A') (A')
                 (A') (A") (A') (A") (A") (A') (A') (A") (A") (A')
                 (A') (A') (A") (A") (A') (A') (A") (A') (A") (A')
                 (A") (A') (A') (A") (A') (A') (A") (A') (A') (A")
                 (A") (A') (A') (A") (A') (A") (A') (A") (A") (A')
                 (A') (A") (A') (A") (A') (A') (A") (A') (A') (A")
                 (A') (A') (A') (A") (A') (A')
 The electronic state of the initial guess is 1-A'.
 Requested convergence on RMS density matrix=1.00D-08 within 128 cycles.
 Requested convergence on MAX density matrix=1.00D-06.
 Requested convergence on             energy=1.00D-06.
 No special actions if energy rises.
 Keep R1 ints in memory in canonical form, NReq=1456264792.
 SCF Done:  E(RB3LYP) =  -890.850898582     A.U. after   14 cycles
             Convg  =    0.2646D-08             -V/T =  2.0069

 **********************************************************************

            Population analysis using the SCF density.

 **********************************************************************

 Orbital symmetries:
       Occupied  (A') (A') (A') (A") (A') (A') (A') (A') (A") (A')
                 (A") (A') (A') (A') (A') (A") (A') (A') (A') (A')
                 (A") (A') (A") (A') (A') (A") (A') (A') (A") (A')
                 (A') (A') (A") (A') (A") (A") (A') (A") (A') (A")
                 (A') (A") (A') (A') (A") (A") (A') (A') (A") (A')
                 (A")
       Virtual   (A') (A') (A') (A") (A') (A') (A") (A') (A") (A')
                 (A') (A") (A') (A') (A') (A") (A") (A') (A") (A')
                 (A') (A") (A') (A") (A') (A') (A") (A") (A') (A')
                 (A") (A') (A") (A') (A") (A") (A') (A') (A") (A')
                 (A') (A') (A') (A") (A') (A") (A') (A') (A") (A")
                 (A') (A") (A') (A') (A") (A') (A") (A') (A') (A")
                 (A') (A') (A") (A') (A") (A') (A') (A') (A") (A')
                 (A") (A") (A') (A") (A') (A') (A") (A') (A') (A')
                 (A') (A") (A') (A") (A') (A") (A') (A') (A") (A')
                 (A') (A") (A') (A') (A") (A') (A') (A") (A') (A")
                 (A') (A') (A") (A') (A") (A') (A") (A") (A') (A')
                 (A") (A') (A") (A') (A") (A") (A") (A') (A") (A')
                 (A') (A") (A') (A') (A") (A') (A") (A') (A') (A')
                 (A') (A") (A') (A") (A') (A") (A') (A") (A') (A')
                 (A') (A') (A") (A") (A") (A') (A") (A') (A') (A")
                 (A') (A") (A") (A') (A") (A') (A") (A") (A') (A')
                 (A") (A') (A') (A") (A') (A") (A") (A') (A') (A")
                 (A') (A') (A') (A') (A") (A') (A") (A') (A") (A')
                 (A") (A') (A") (A') (A') (A") (A') (A") (A') (A')
                 (A") (A') (A") (A') (A") (A') (A") (A") (A") (A')
                 (A") (A') (A") (A') (A") (A') (A") (A') (A") (A')
                 (A") (A') (A') (A") (A') (A') (A") (A") (A') (A')
                 (A') (A") (A') (A") (A") (A') (A') (A") (A') (A')
                 (A") (A") (A') (A") (A') (A') (A") (A') (A") (A')
                 (A') (A") (A') (A") (A') (A') (A") (A') (A') (A")
                 (A') (A") (A') (A") (A') (A") (A") (A') (A") (A')
                 (A') (A") (A') (A") (A') (A') (A') (A') (A") (A")
                 (A') (A') (A') (A') (A") (A')
 The electronic state is 1-A'.
 Alpha  occ. eigenvalues -- -101.52811 -10.26435 -10.21175 -10.19374 -10.19374
 Alpha  occ. eigenvalues --  -10.19162 -10.18929 -10.18845 -10.18460 -10.18459
 Alpha  occ. eigenvalues --  -10.18375 -10.18375  -9.44372  -7.20734  -7.19816
 Alpha  occ. eigenvalues --   -7.19806  -0.88170  -0.84785  -0.76902  -0.74382
 Alpha  occ. eigenvalues --   -0.74212  -0.73571  -0.69281  -0.61480  -0.60836
 Alpha  occ. eigenvalues --   -0.60537  -0.55473  -0.50047  -0.48007  -0.47792
 Alpha  occ. eigenvalues --   -0.47738  -0.45088  -0.43184  -0.42948  -0.40750
 Alpha  occ. eigenvalues --   -0.39807  -0.39260  -0.37681  -0.37651  -0.37015
 Alpha  occ. eigenvalues --   -0.36432  -0.36062  -0.35494  -0.35166  -0.34912
 Alpha  occ. eigenvalues --   -0.31588  -0.30427  -0.29254  -0.29169  -0.28183
 Alpha  occ. eigenvalues --   -0.28103
 Alpha virt. eigenvalues --   -0.00811   0.00865   0.01433   0.01468   0.02119
 Alpha virt. eigenvalues --    0.02996   0.03328   0.03575   0.03707   0.04453
 Alpha virt. eigenvalues --    0.05233   0.06181   0.06361   0.06690   0.07539
 Alpha virt. eigenvalues --    0.07637   0.08547   0.09715   0.10395   0.10627
 Alpha virt. eigenvalues --    0.11453   0.11550   0.11726   0.12350   0.13071
 Alpha virt. eigenvalues --    0.13213   0.13369   0.14470   0.14701   0.15370
 Alpha virt. eigenvalues --    0.15415   0.15875   0.16430   0.16680   0.16997
 Alpha virt. eigenvalues --    0.17257   0.17337   0.17948   0.18168   0.18504
 Alpha virt. eigenvalues --    0.18774   0.20098   0.20804   0.20873   0.21236
 Alpha virt. eigenvalues --    0.21534   0.22021   0.23013   0.23321   0.23664
 Alpha virt. eigenvalues --    0.23732   0.25218   0.25341   0.25663   0.25998
 Alpha virt. eigenvalues --    0.26288   0.27003   0.27485   0.28379   0.28471
 Alpha virt. eigenvalues --    0.29387   0.30043   0.30775   0.31205   0.32192
 Alpha virt. eigenvalues --    0.32215   0.32755   0.34058   0.35155   0.36292
 Alpha virt. eigenvalues --    0.36522   0.37237   0.38187   0.39613   0.40136
 Alpha virt. eigenvalues --    0.41905   0.42196   0.44513   0.45489   0.52847
 Alpha virt. eigenvalues --    0.60017   0.62085   0.63459   0.63801   0.64497
 Alpha virt. eigenvalues --    0.66482   0.66818   0.67616   0.68342   0.68543
 Alpha virt. eigenvalues --    0.69507   0.69696   0.71311   0.72291   0.73256
 Alpha virt. eigenvalues --    0.74662   0.74821   0.75338   0.76946   0.78519
 Alpha virt. eigenvalues --    0.78765   0.80770   0.81012   0.82812   0.85796
 Alpha virt. eigenvalues --    0.86058   0.87520   0.87712   0.88247   0.88922
 Alpha virt. eigenvalues --    0.90798   0.91621   0.92734   0.93961   0.93998
 Alpha virt. eigenvalues --    0.95048   0.96047   0.97621   0.98165   0.98406
 Alpha virt. eigenvalues --    1.00018   1.01381   1.04083   1.04557   1.04756
 Alpha virt. eigenvalues --    1.05160   1.08501   1.09026   1.10393   1.10992
 Alpha virt. eigenvalues --    1.11680   1.11966   1.13936   1.14704   1.16207
 Alpha virt. eigenvalues --    1.16688   1.17834   1.18888   1.19198   1.22626
 Alpha virt. eigenvalues --    1.26062   1.27092   1.28210   1.34504   1.36375
 Alpha virt. eigenvalues --    1.37051   1.42495   1.46316   1.49686   1.49925
 Alpha virt. eigenvalues --    1.52204   1.53009   1.56918   1.61399   1.65021
 Alpha virt. eigenvalues --    1.69950   1.71982   1.75711   1.76089   1.77658
 Alpha virt. eigenvalues --    1.77884   1.78763   1.80374   1.82591   1.83423
 Alpha virt. eigenvalues --    1.85501   1.86753   1.87745   1.88644   1.91327
 Alpha virt. eigenvalues --    1.91809   1.93515   1.94811   1.95816   1.96078
 Alpha virt. eigenvalues --    1.96940   1.98278   1.99730   2.00356   2.01238
 Alpha virt. eigenvalues --    2.01660   2.03748   2.05509   2.06245   2.07837
 Alpha virt. eigenvalues --    2.11140   2.11215   2.11716   2.11795   2.15207
 Alpha virt. eigenvalues --    2.16677   2.17591   2.21732   2.21838   2.26590
 Alpha virt. eigenvalues --    2.26930   2.30273   2.31560   2.32891   2.33193
 Alpha virt. eigenvalues --    2.36644   2.37508   2.40392   2.40821   2.42199
 Alpha virt. eigenvalues --    2.43033   2.43611   2.45895   2.46572   2.48957
 Alpha virt. eigenvalues --    2.49302   2.52084   2.55215   2.56252   2.60823
 Alpha virt. eigenvalues --    2.61911   2.62866   2.64298   2.64826   2.66565
 Alpha virt. eigenvalues --    2.69072   2.70720   2.71372   2.73628   2.74668
 Alpha virt. eigenvalues --    2.75256   2.76458   2.76912   2.77296   2.78432
 Alpha virt. eigenvalues --    2.78487   2.81459   2.81675   2.83142   2.83970
 Alpha virt. eigenvalues --    2.85629   2.87847   2.87918   2.88930   2.94163
 Alpha virt. eigenvalues --    2.96307   2.96720   3.03906   3.04652   3.07843
 Alpha virt. eigenvalues --    3.22668   3.23273   3.25285   3.27339   3.27779
 Alpha virt. eigenvalues --    3.37765   3.38182   3.38687   3.42325   3.43508
 Alpha virt. eigenvalues --    3.43969   3.45339   3.45372   3.47368   3.48143
 Alpha virt. eigenvalues --    3.49351   3.55186   3.56637   3.56774   4.30167
 Alpha virt. eigenvalues --    4.42515   4.49082   4.50137   4.50315   4.55475
 Alpha virt. eigenvalues --    4.66289   4.70544   4.73492   4.89142   4.89335
 Alpha virt. eigenvalues --    5.09875
          Condensed to atoms (all electrons):
              1          2          3          4          5          6
     1  C    6.007735  -1.080548   0.462156  -0.262686  -0.364638   0.594773
     2  C   -1.080548   9.851142  -0.208599  -0.028521   0.550755  -1.832670
     3  C    0.462156  -0.208599   5.485081  -0.427023   0.362427  -0.013512
     4  C   -0.262686  -0.028521  -0.427023  14.119813   0.242931  -2.180209
     5  C   -0.364638   0.550755   0.362427   0.242931   6.094297  -1.209575
     6  C    0.594773  -1.832670  -0.013512  -2.180209  -1.209575  10.366267
     7  C   -0.364638   0.550755   0.362427   0.242931  -0.318762   0.425042
     8  C    0.594773  -1.832670  -0.013512  -2.180209   0.425042  -1.031826
     9  C    0.147625  -0.448142  -0.143505  -4.911186  -0.155845   0.943518
    10  C   -0.051921   0.139137  -0.025336   0.600309  -0.009902   0.059822
    11  Cl   0.016174  -0.178553  -0.026651   0.470762   0.012497  -0.078431
    12  C   -0.051921   0.139137  -0.025336   0.600309   0.027568  -0.530540
    13  H    0.440863  -0.075591  -0.048857  -0.011463   0.021545  -0.010712
    14  H    0.440863  -0.075591  -0.048857  -0.011463  -0.027864   0.038925
    15  H   -0.015450   0.457907   0.021705  -0.092058  -0.001639  -0.025150
    16  H   -0.015450   0.457907   0.021705  -0.092058   0.001025   0.013794
    17  H   -0.040297   0.013862   0.302937   0.048888  -0.042220   0.016112
    18  H    0.018934  -0.002039  -0.044362  -0.004558   0.450445  -0.091563
    19  H   -0.030956   0.035051  -0.040103  -0.012426   0.431777  -0.067079
    20  H    0.000446  -0.003165   0.020702  -0.096222  -0.029680   0.482938
    21  H   -0.001090  -0.006728   0.017166  -0.059243  -0.014737   0.409363
    22  H   -0.030956   0.035051  -0.040103  -0.012426   0.022518  -0.010632
    23  H    0.018934  -0.002039  -0.044362  -0.004558  -0.031424   0.035395
    24  H   -0.001090  -0.006728   0.017166  -0.059243  -0.000725   0.018723
    25  H    0.000446  -0.003165   0.020702  -0.096222  -0.001903  -0.016449
    26  H   -0.001109   0.009024  -0.000003  -0.015086  -0.000042   0.005529
    27  H   -0.003370  -0.038598  -0.001489   0.067001   0.004406   0.001188
    28  H    0.001160  -0.010386   0.000661   0.076388  -0.002870  -0.019778
    29  H   -0.001109   0.009024  -0.000003  -0.015086   0.000054  -0.012704
    30  H    0.001160  -0.010386   0.000661   0.076388  -0.001645   0.001869
    31  H   -0.003370  -0.038598  -0.001489   0.067001  -0.000133  -0.000218
              7          8          9         10         11         12
     1  C   -0.364638   0.594773   0.147625  -0.051921   0.016174  -0.051921
     2  C    0.550755  -1.832670  -0.448142   0.139137  -0.178553   0.139137
     3  C    0.362427  -0.013512  -0.143505  -0.025336  -0.026651  -0.025336
     4  C    0.242931  -2.180209  -4.911186   0.600309   0.470762   0.600309
     5  C   -0.318762   0.425042  -0.155845  -0.009902   0.012497   0.027568
     6  C    0.425042  -1.031826   0.943518   0.059822  -0.078431  -0.530540
     7  C    6.094297  -1.209575  -0.155845   0.027568   0.012497  -0.009902
     8  C   -1.209575  10.366267   0.943518  -0.530540  -0.078431   0.059822
     9  C   -0.155845   0.943518  13.336542  -1.257608  -0.452988  -1.257608
    10  C    0.027568  -0.530540  -1.257608   6.459057  -0.040907  -0.242450
    11  Cl   0.012497  -0.078431  -0.452988  -0.040907  17.377929  -0.040907
    12  C   -0.009902   0.059822  -1.257608  -0.242450  -0.040907   6.459057
    13  H   -0.027864   0.038925  -0.004406  -0.001687   0.000195   0.000668
    14  H    0.021545  -0.010712  -0.004406   0.000668   0.000195  -0.001687
    15  H    0.001025   0.013794  -0.017032  -0.024986  -0.000306  -0.001173
    16  H   -0.001639  -0.025150  -0.017032  -0.001173  -0.000306  -0.024986
    17  H   -0.042220   0.016112   0.014165   0.000242  -0.000127   0.000242
    18  H   -0.031424   0.035395  -0.009905  -0.000661   0.000163   0.000293
    19  H    0.022518  -0.010632  -0.005951  -0.000775  -0.000403   0.000387
    20  H   -0.001903  -0.016449  -0.019335  -0.009980  -0.001283   0.001074
    21  H   -0.000725   0.018723  -0.035782  -0.013610  -0.000397   0.000142
    22  H    0.431777  -0.067079  -0.005951   0.000387  -0.000403  -0.000775
    23  H    0.450445  -0.091563  -0.009905   0.000293   0.000163  -0.000661
    24  H   -0.014737   0.409363  -0.035782   0.000142  -0.000397  -0.013610
    25  H   -0.029680   0.482938  -0.019335   0.001074  -0.001283  -0.009980
    26  H    0.000054  -0.012704  -0.076560   0.450598   0.000359  -0.009865
    27  H   -0.000133  -0.000218  -0.132376   0.446006   0.021876  -0.018820
    28  H   -0.001645   0.001869  -0.213956   0.528761  -0.009324   0.001186
    29  H   -0.000042   0.005529  -0.076560  -0.009865   0.000359   0.450598
    30  H   -0.002870  -0.019778  -0.213956   0.001186  -0.009324   0.528761
    31  H    0.004406   0.001188  -0.132376  -0.018820   0.021876   0.446006
             13         14         15         16         17         18
     1  C    0.440863   0.440863  -0.015450  -0.015450  -0.040297   0.018934
     2  C   -0.075591  -0.075591   0.457907   0.457907   0.013862  -0.002039
     3  C   -0.048857  -0.048857   0.021705   0.021705   0.302937  -0.044362
     4  C   -0.011463  -0.011463  -0.092058  -0.092058   0.048888  -0.004558
     5  C    0.021545  -0.027864  -0.001639   0.001025  -0.042220   0.450445
     6  C   -0.010712   0.038925  -0.025150   0.013794   0.016112  -0.091563
     7  C   -0.027864   0.021545   0.001025  -0.001639  -0.042220  -0.031424
     8  C    0.038925  -0.010712   0.013794  -0.025150   0.016112   0.035395
     9  C   -0.004406  -0.004406  -0.017032  -0.017032   0.014165  -0.009905
    10  C   -0.001687   0.000668  -0.024986  -0.001173   0.000242  -0.000661
    11  Cl   0.000195   0.000195  -0.000306  -0.000306  -0.000127   0.000163
    12  C    0.000668  -0.001687  -0.001173  -0.024986   0.000242   0.000293
    13  H    0.581511  -0.031451   0.003883  -0.012149  -0.003510  -0.000165
    14  H   -0.031451   0.581511  -0.012149   0.003883  -0.003510   0.000071
    15  H    0.003883  -0.012149   0.584358  -0.033463  -0.000144   0.000000
    16  H   -0.012149   0.003883  -0.033463   0.584358  -0.000144   0.000014
    17  H   -0.003510  -0.003510  -0.000144  -0.000144   0.616696  -0.003345
    18  H   -0.000165   0.000071   0.000000   0.000014  -0.003345   0.580770
    19  H    0.000064   0.003200  -0.000042   0.000003  -0.003672  -0.031274
    20  H    0.000012   0.000001   0.000100  -0.000148  -0.000132  -0.011497
    21  H    0.000000  -0.000069   0.002817   0.000110  -0.000151   0.004050
    22  H    0.003200   0.000064   0.000003  -0.000042  -0.003672   0.000093
    23  H    0.000071  -0.000165   0.000014   0.000000  -0.003345   0.003418
    24  H   -0.000069   0.000000   0.000110   0.002817  -0.000151   0.000003
    25  H    0.000001   0.000012  -0.000148   0.000100  -0.000132  -0.000075
    26  H    0.000000   0.000000   0.000066  -0.000013   0.000000   0.000000
    27  H   -0.000002   0.000003  -0.000367  -0.000169   0.000000   0.000000
    28  H    0.000000   0.000002  -0.000055   0.000042   0.000000   0.000000
    29  H    0.000000   0.000000  -0.000013   0.000066   0.000000   0.000000
    30  H    0.000002   0.000000   0.000042  -0.000055   0.000000   0.000000
    31  H    0.000003  -0.000002  -0.000169  -0.000367   0.000000   0.000000
             19         20         21         22         23         24
     1  C   -0.030956   0.000446  -0.001090  -0.030956   0.018934  -0.001090
     2  C    0.035051  -0.003165  -0.006728   0.035051  -0.002039  -0.006728
     3  C   -0.040103   0.020702   0.017166  -0.040103  -0.044362   0.017166
     4  C   -0.012426  -0.096222  -0.059243  -0.012426  -0.004558  -0.059243
     5  C    0.431777  -0.029680  -0.014737   0.022518  -0.031424  -0.000725
     6  C   -0.067079   0.482938   0.409363  -0.010632   0.035395   0.018723
     7  C    0.022518  -0.001903  -0.000725   0.431777   0.450445  -0.014737
     8  C   -0.010632  -0.016449   0.018723  -0.067079  -0.091563   0.409363
     9  C   -0.005951  -0.019335  -0.035782  -0.005951  -0.009905  -0.035782
    10  C   -0.000775  -0.009980  -0.013610   0.000387   0.000293   0.000142
    11  Cl  -0.000403  -0.001283  -0.000397  -0.000403   0.000163  -0.000397
    12  C    0.000387   0.001074   0.000142  -0.000775  -0.000661  -0.013610
    13  H    0.000064   0.000012   0.000000   0.003200   0.000071  -0.000069
    14  H    0.003200   0.000001  -0.000069   0.000064  -0.000165   0.000000
    15  H   -0.000042   0.000100   0.002817   0.000003   0.000014   0.000110
    16  H    0.000003  -0.000148   0.000110  -0.000042   0.000000   0.002817
    17  H   -0.003672  -0.000132  -0.000151  -0.003672  -0.003345  -0.000151
    18  H   -0.031274  -0.011497   0.004050   0.000093   0.003418   0.000003
    19  H    0.584482   0.003553  -0.012424  -0.000168   0.000093   0.000013
    20  H    0.003553   0.547587  -0.031063   0.000001  -0.000075   0.000051
    21  H   -0.012424  -0.031063   0.590787   0.000013   0.000003  -0.000150
    22  H   -0.000168   0.000001   0.000013   0.584482  -0.031274  -0.012424
    23  H    0.000093  -0.000075   0.000003  -0.031274   0.580770   0.004050
    24  H    0.000013   0.000051  -0.000150  -0.012424   0.004050   0.590787
    25  H    0.000001   0.002209   0.000051   0.003553  -0.011497  -0.031063
    26  H    0.000000  -0.000014   0.000069   0.000000   0.000000  -0.000001
    27  H    0.000001   0.000035  -0.000210   0.000000   0.000000  -0.000006
    28  H    0.000011   0.000135  -0.000208   0.000000   0.000000   0.000001
    29  H    0.000000  -0.000002  -0.000001   0.000000   0.000000   0.000069
    30  H    0.000000  -0.000006   0.000001   0.000011   0.000000  -0.000208
    31  H    0.000000  -0.000001  -0.000006   0.000001   0.000000  -0.000210
             25         26         27         28         29         30
     1  C    0.000446  -0.001109  -0.003370   0.001160  -0.001109   0.001160
     2  C   -0.003165   0.009024  -0.038598  -0.010386   0.009024  -0.010386
     3  C    0.020702  -0.000003  -0.001489   0.000661  -0.000003   0.000661
     4  C   -0.096222  -0.015086   0.067001   0.076388  -0.015086   0.076388
     5  C   -0.001903  -0.000042   0.004406  -0.002870   0.000054  -0.001645
     6  C   -0.016449   0.005529   0.001188  -0.019778  -0.012704   0.001869
     7  C   -0.029680   0.000054  -0.000133  -0.001645  -0.000042  -0.002870
     8  C    0.482938  -0.012704  -0.000218   0.001869   0.005529  -0.019778
     9  C   -0.019335  -0.076560  -0.132376  -0.213956  -0.076560  -0.213956
    10  C    0.001074   0.450598   0.446006   0.528761  -0.009865   0.001186
    11  Cl  -0.001283   0.000359   0.021876  -0.009324   0.000359  -0.009324
    12  C   -0.009980  -0.009865  -0.018820   0.001186   0.450598   0.528761
    13  H    0.000001   0.000000  -0.000002   0.000000   0.000000   0.000002
    14  H    0.000012   0.000000   0.000003   0.000002   0.000000   0.000000
    15  H   -0.000148   0.000066  -0.000367  -0.000055  -0.000013   0.000042
    16  H    0.000100  -0.000013  -0.000169   0.000042   0.000066  -0.000055
    17  H   -0.000132   0.000000   0.000000   0.000000   0.000000   0.000000
    18  H   -0.000075   0.000000   0.000000   0.000000   0.000000   0.000000
    19  H    0.000001   0.000000   0.000001   0.000011   0.000000   0.000000
    20  H    0.002209  -0.000014   0.000035   0.000135  -0.000002  -0.000006
    21  H    0.000051   0.000069  -0.000210  -0.000208  -0.000001   0.000001
    22  H    0.003553   0.000000   0.000000   0.000000   0.000000   0.000011
    23  H   -0.011497   0.000000   0.000000   0.000000   0.000000   0.000000
    24  H   -0.031063  -0.000001  -0.000006   0.000001   0.000069  -0.000208
    25  H    0.547587  -0.000002  -0.000001  -0.000006  -0.000014   0.000135
    26  H   -0.000002   0.541070  -0.028977  -0.026156   0.002541   0.000122
    27  H   -0.000001  -0.028977   0.560039  -0.027222   0.000121   0.000086
    28  H   -0.000006  -0.026156  -0.027222   0.542879   0.000122  -0.000146
    29  H   -0.000014   0.002541   0.000121   0.000122   0.541070  -0.026156
    30  H    0.000135   0.000122   0.000086  -0.000146  -0.026156   0.542879
    31  H    0.000035   0.000121   0.000696   0.000086  -0.028977  -0.027222
             31
     1  C   -0.003370
     2  C   -0.038598
     3  C   -0.001489
     4  C    0.067001
     5  C   -0.000133
     6  C   -0.000218
     7  C    0.004406
     8  C    0.001188
     9  C   -0.132376
    10  C   -0.018820
    11  Cl   0.021876
    12  C    0.446006
    13  H    0.000003
    14  H   -0.000002
    15  H   -0.000169
    16  H   -0.000367
    17  H    0.000000
    18  H    0.000000
    19  H    0.000000
    20  H   -0.000001
    21  H   -0.000006
    22  H    0.000001
    23  H    0.000000
    24  H   -0.000210
    25  H    0.000035
    26  H    0.000121
    27  H    0.000696
    28  H    0.000086
    29  H   -0.028977
    30  H   -0.027222
    31  H    0.560039
 Mulliken atomic charges:
              1
     1  C   -0.425442
     2  C   -0.366032
     3  C    0.057604
     4  C   -0.040776
     5  C   -0.433684
     6  C   -0.282208
     7  C   -0.433684
     8  C   -0.282208
     9  C    0.427965
    10  C   -0.475030
    11  Cl  -0.014622
    12  C   -0.475030
    13  H    0.136983
    14  H    0.136983
    15  H    0.138519
    16  H    0.138519
    17  H    0.117517
    18  H    0.137220
    19  H    0.134752
    20  H    0.162112
    21  H    0.133300
    22  H    0.134752
    23  H    0.137220
    24  H    0.133300
    25  H    0.162112
    26  H    0.160980
    27  H    0.150497
    28  H    0.158450
    29  H    0.160980
    30  H    0.158450
    31  H    0.150497
 Sum of Mulliken atomic charges =   0.00000
 Mulliken charges with hydrogens summed into heavy atoms:
              1
     1  C   -0.151475
     2  C   -0.088993
     3  C    0.175122
     4  C   -0.040776
     5  C   -0.161711
     6  C    0.013204
     7  C   -0.161711
     8  C    0.013204
     9  C    0.427965
    10  C   -0.005103
    11  Cl  -0.014622
    12  C   -0.005103
 Sum of Mulliken charges with hydrogens summed into heavy atoms =   0.00000
 Electronic spatial extent (au):  <R**2>=           2333.0987
 Charge=              0.0000 electrons
 Dipole moment (field-independent basis, Debye):
    X=             -2.1924    Y=             -0.0596    Z=              0.0000  Tot=              2.1932
 Quadrupole moment (field-independent basis, Debye-Ang):
   XX=            -89.7576   YY=            -83.2229   ZZ=            -83.7260
   XY=             -3.0770   XZ=              0.0000   YZ=              0.0000
 Traceless Quadrupole moment (field-independent basis, Debye-Ang):
   XX=             -4.1888   YY=              2.3459   ZZ=              1.8428
   XY=             -3.0770   XZ=              0.0000   YZ=              0.0000
 Octapole moment (field-independent basis, Debye-Ang**2):
  XXX=              0.5939  YYY=             11.7636  ZZZ=              0.0000  XYY=              1.7804
  XXY=             -6.4744  XXZ=              0.0000  XZZ=              0.5075  YZZ=              3.7669
  YYZ=              0.0000  XYZ=              0.0000
 Hexadecapole moment (field-independent basis, Debye-Ang**3):
 XXXX=          -1090.1433 YYYY=          -1567.6211 ZZZZ=           -599.8691 XXXY=           -311.1697
 XXXZ=              0.0000 YYYX=           -293.1102 YYYZ=              0.0000 ZZZX=              0.0000
 ZZZY=              0.0000 XXYY=           -451.6595 XXZZ=           -277.7390 YYZZ=           -369.0567
 XXYZ=              0.0000 YYXZ=              0.0000 ZZXY=            -95.7752
 N-N= 8.993348967496D+02 E-N=-3.886830326896D+03  KE= 8.847777809347D+02
 Symmetry A'   KE= 7.129706068561D+02
 Symmetry A"   KE= 1.718071740786D+02
 Calling FoFJK, ICntrl=      2127 FMM=F ISym2X=1 I1Cent= 0 IOpClX= 0 NMat=1 NMatS=1 NMatT=0.
 ***** Axes restored to original set *****
 -------------------------------------------------------------------
 Center     Atomic                   Forces (Hartrees/Bohr)
 Number     Number              X              Y              Z
 -------------------------------------------------------------------
      1        6          -0.018348193   -0.001782072    0.000000000
      2        6           0.007471562   -0.024800648    0.000000000
      3        6          -0.016585688    0.007108699    0.000000000
      4        6          -0.004048472    0.007594140    0.000000000
      5        6          -0.013371057    0.009111047   -0.007503064
      6        6           0.015812363    0.004658940   -0.017305926
      7        6          -0.013371057    0.009111047    0.007503064
      8        6           0.015812363    0.004658940    0.017305926
      9        6          -0.002465349   -0.025150449    0.000000000
     10        6           0.005476045   -0.005680787   -0.016297602
     11       17           0.006515861    0.010698743    0.000000000
     12        6           0.005476045   -0.005680787    0.016297602
     13        1           0.005563843    0.003797889   -0.009729709
     14        1           0.005563843    0.003797889    0.009729709
     15        1           0.001216279    0.006172251    0.009700060
     16        1           0.001216279    0.006172251   -0.009700060
     17        1           0.011488634   -0.004586294    0.000000000
     18        1          -0.000712121   -0.011611413    0.000038369
     19        1           0.005644022    0.003832131    0.009683121
     20        1          -0.004621367   -0.011837990    0.001850889
     21        1           0.001680112    0.005216594    0.010851940
     22        1           0.005644022    0.003832131   -0.009683121
     23        1          -0.000712121   -0.011611413   -0.000038369
     24        1           0.001680112    0.005216594   -0.010851940
     25        1          -0.004621367   -0.011837990   -0.001850889
     26        1          -0.011608686    0.006602600    0.003638419
     27        1           0.003349980    0.010136353    0.002695010
     28        1          -0.000443591   -0.004938675    0.011676834
     29        1          -0.011608686    0.006602600   -0.003638419
     30        1          -0.000443591   -0.004938675   -0.011676834
     31        1           0.003349980    0.010136353   -0.002695010
 -------------------------------------------------------------------
 Cartesian Forces:  Max     0.025150449 RMS     0.008959304

 GradGradGradGradGradGradGradGradGradGradGradGradGradGradGradGradGradGrad
 Berny optimization.
 Internal  Forces:  Max     0.013011365 RMS     0.004188428
 Search for a local minimum.
 Step number   1 out of a maximum of  186
 All quantities printed in internal units (Hartrees-Bohrs-Radians)
 Mixed Optimization -- RFO/linear search
 Second derivative matrix not updated -- first step.
     Eigenvalues ---    0.00230   0.00230   0.00230   0.00254   0.00516
     Eigenvalues ---    0.00520   0.01836   0.01840   0.02077   0.03194
     Eigenvalues ---    0.03196   0.03531   0.03989   0.04023   0.04073
     Eigenvalues ---    0.04527   0.04540   0.04720   0.04822   0.05031
     Eigenvalues ---    0.05058   0.05075   0.05075   0.05271   0.05276
     Eigenvalues ---    0.05319   0.05319   0.05978   0.07171   0.07245
     Eigenvalues ---    0.07810   0.07840   0.07849   0.07849   0.07850
     Eigenvalues ---    0.07870   0.08193   0.08241   0.08241   0.08475
     Eigenvalues ---    0.08534   0.09479   0.10763   0.12537   0.12554
     Eigenvalues ---    0.16000   0.16000   0.16000   0.16000   0.16000
     Eigenvalues ---    0.16000   0.17660   0.17901   0.17943   0.18808
     Eigenvalues ---    0.24450   0.24512   0.24589   0.25803   0.25860
     Eigenvalues ---    0.26315   0.26345   0.27962   0.27962   0.28423
     Eigenvalues ---    0.28494   0.28524   0.28563   0.31731   0.31894
     Eigenvalues ---    0.31894   0.31930   0.31930   0.31966   0.31966
     Eigenvalues ---    0.32073   0.32073   0.32147   0.32147   0.32200
     Eigenvalues ---    0.32200   0.32212   0.32212   0.32301   0.32301
     Eigenvalues ---    0.32427   0.324271000.000001000.000001000.00000
     Eigenvalues --- 1000.000001000.000001000.000001000.000001000.00000
     Eigenvalues --- 1000.000001000.000001000.000001000.000001000.00000
     Eigenvalues --- 1000.000001000.000001000.000001000.000001000.00000
     Eigenvalues --- 1000.000001000.000001000.000001000.000001000.00000
     Eigenvalues --- 1000.000001000.000001000.000001000.000001000.00000
     Eigenvalues --- 1000.000001000.000001000.000001000.000001000.00000
     Eigenvalues --- 1000.000001000.000001000.000001000.000001000.00000
     Eigenvalues --- 1000.000001000.000001000.000001000.000001000.00000
     Eigenvalues --- 1000.000001000.000001000.000001000.000001000.00000
     Eigenvalues --- 1000.000001000.000001000.000001000.000001000.00000
     Eigenvalues --- 1000.000001000.000001000.000001000.000001000.00000
     Eigenvalues --- 1000.000001000.000001000.000001000.000001000.00000
     Eigenvalues --- 1000.000001000.000001000.000001000.000001000.00000
     Eigenvalues --- 1000.000001000.000001000.000001000.000001000.00000
     Eigenvalues --- 1000.000001000.000001000.000001000.000001000.00000
     Eigenvalues --- 1000.000001000.000001000.000001000.000001000.00000
     Eigenvalues --- 1000.000001000.000001000.000001000.000001000.00000
     Eigenvalues --- 1000.000001000.000001000.000001000.000001000.00000
     Eigenvalues --- 1000.000001000.000001000.000001000.000001000.00000
     Eigenvalues --- 1000.000001000.000001000.000001000.000001000.00000
     Eigenvalues --- 1000.000001000.000001000.000001000.000001000.00000
     Eigenvalues --- 1000.000001000.000001000.000001000.000001000.00000
     Eigenvalues --- 1000.000001000.000001000.000001000.000001000.00000
     Eigenvalues --- 1000.00000
 RFO step:  Lambda=-1.30756691D-02 EMin= 2.30000000D-03
 Linear search not attempted -- first point.
 Iteration  1 RMS(Cart)=  0.02151375 RMS(Int)=  0.00030553
 Iteration  2 RMS(Cart)=  0.00030043 RMS(Int)=  0.00013572
 Iteration  3 RMS(Cart)=  0.00000016 RMS(Int)=  0.00013572
 ClnCor:  largest displacement from symmetrization is 1.57D-11 for atom    16.
 Variable       Old X    -DE/DX   Delta X   Delta X   Delta X     New X
                                 (Linear)    (Quad)   (Total)
    R1        2.91079   0.01055   0.00000   0.03540   0.03541   2.94620
    R2        2.90073   0.00082   0.00000   0.00566   0.00559   2.90632
    R3        2.10972  -0.01183   0.00000  -0.03558  -0.03558   2.07415
    R4        2.10972  -0.01183   0.00000  -0.03558  -0.03558   2.07415
    R5        2.92992   0.00359   0.00000   0.00936   0.00944   2.93936
    R6        2.10479  -0.01123   0.00000  -0.03352  -0.03352   2.07127
    R7        2.10479  -0.01123   0.00000  -0.03352  -0.03352   2.07127
    R8        2.89788   0.00071   0.00000   0.00567   0.00563   2.90351
    R9        2.89788   0.00071   0.00000   0.00567   0.00563   2.90351
   R10        2.11339  -0.01236   0.00000  -0.03743  -0.03743   2.07596
   R11        2.93363   0.00137   0.00000   0.00130   0.00133   2.93496
   R12        2.93363   0.00137   0.00000   0.00130   0.00133   2.93496
   R13        2.97069  -0.00149   0.00000  -0.00547  -0.00547   2.96522
   R14        2.90876   0.01031   0.00000   0.03449   0.03448   2.94324
   R15        2.10906  -0.01162   0.00000  -0.03491  -0.03491   2.07414
   R16        2.11038  -0.01183   0.00000  -0.03564  -0.03564   2.07474
   R17        2.10457  -0.01216   0.00000  -0.03626  -0.03626   2.06831
   R18        2.10576  -0.01164   0.00000  -0.03481  -0.03481   2.07095
   R19        2.90876   0.01031   0.00000   0.03449   0.03448   2.94324
   R20        2.11038  -0.01183   0.00000  -0.03564  -0.03564   2.07474
   R21        2.10906  -0.01162   0.00000  -0.03491  -0.03491   2.07414
   R22        2.10576  -0.01164   0.00000  -0.03481  -0.03481   2.07095
   R23        2.10457  -0.01216   0.00000  -0.03626  -0.03626   2.06831
   R24        2.92223  -0.00548   0.00000  -0.01874  -0.01874   2.90349
   R25        3.44329   0.01237   0.00000   0.04802   0.04802   3.49131
   R26        2.92223  -0.00548   0.00000  -0.01874  -0.01874   2.90349
   R27        2.10710  -0.01301   0.00000  -0.03898  -0.03898   2.06812
   R28        2.10069  -0.01041   0.00000  -0.03085  -0.03085   2.06984
   R29        2.10297  -0.01247   0.00000  -0.03710  -0.03710   2.06587
   R30        2.10710  -0.01301   0.00000  -0.03898  -0.03898   2.06812
   R31        2.10297  -0.01247   0.00000  -0.03710  -0.03710   2.06587
   R32        2.10069  -0.01041   0.00000  -0.03085  -0.03085   2.06984
    A1        1.91937   0.00162   0.00000   0.00891   0.00883   1.92821
    A2        1.93102  -0.00039   0.00000  -0.00091  -0.00090   1.93012
    A3        1.93102  -0.00039   0.00000  -0.00091  -0.00090   1.93012
    A4        1.91214  -0.00047   0.00000  -0.00147  -0.00146   1.91068
    A5        1.91214  -0.00047   0.00000  -0.00147  -0.00146   1.91068
    A6        1.85718   0.00002   0.00000  -0.00465  -0.00467   1.85250
    A7        1.95704  -0.00288   0.00000  -0.01922  -0.01901   1.93803
    A8        1.89398   0.00254   0.00000   0.02280   0.02259   1.91657
    A9        1.89398   0.00254   0.00000   0.02280   0.02259   1.91657
   A10        1.92768  -0.00048   0.00000  -0.00858  -0.00848   1.91920
   A11        1.92768  -0.00048   0.00000  -0.00858  -0.00848   1.91920
   A12        1.86045  -0.00103   0.00000  -0.00764  -0.00804   1.85241
   A13        1.90359  -0.00015   0.00000  -0.00267  -0.00271   1.90088
   A14        1.90359  -0.00015   0.00000  -0.00267  -0.00271   1.90088
   A15        1.92094   0.00001   0.00000   0.00004   0.00007   1.92101
   A16        1.89694  -0.00048   0.00000  -0.00245  -0.00246   1.89448
   A17        1.91923   0.00038   0.00000   0.00381   0.00383   1.92306
   A18        1.91923   0.00038   0.00000   0.00381   0.00383   1.92306
   A19        1.85475   0.00148   0.00000   0.01378   0.01357   1.86831
   A20        1.85475   0.00148   0.00000   0.01378   0.01357   1.86831
   A21        1.95559  -0.00176   0.00000  -0.01660  -0.01655   1.93904
   A22        1.87637   0.00113   0.00000   0.01149   0.01126   1.88763
   A23        1.95782  -0.00099   0.00000  -0.00959  -0.00950   1.94832
   A24        1.95782  -0.00099   0.00000  -0.00959  -0.00950   1.94832
   A25        1.91591   0.00107   0.00000   0.00668   0.00659   1.92250
   A26        1.91368  -0.00071   0.00000  -0.00496  -0.00495   1.90873
   A27        1.91415  -0.00023   0.00000  -0.00072  -0.00070   1.91345
   A28        1.93096   0.00009   0.00000   0.00221   0.00225   1.93320
   A29        1.93215  -0.00022   0.00000   0.00060   0.00062   1.93277
   A30        1.85618  -0.00006   0.00000  -0.00427  -0.00430   1.85188
   A31        1.96096  -0.00193   0.00000  -0.01552  -0.01535   1.94561
   A32        1.93247  -0.00184   0.00000  -0.01981  -0.01969   1.91278
   A33        1.92312  -0.00117   0.00000  -0.01455  -0.01447   1.90866
   A34        1.89866   0.00331   0.00000   0.03173   0.03146   1.93012
   A35        1.88715   0.00261   0.00000   0.02704   0.02680   1.91396
   A36        1.85801  -0.00077   0.00000  -0.00693  -0.00778   1.85023
   A37        1.91591   0.00107   0.00000   0.00668   0.00659   1.92250
   A38        1.91415  -0.00023   0.00000  -0.00072  -0.00070   1.91345
   A39        1.91368  -0.00071   0.00000  -0.00496  -0.00495   1.90873
   A40        1.93215  -0.00022   0.00000   0.00060   0.00062   1.93277
   A41        1.93096   0.00009   0.00000   0.00221   0.00225   1.93320
   A42        1.85618  -0.00006   0.00000  -0.00427  -0.00430   1.85188
   A43        1.96096  -0.00193   0.00000  -0.01552  -0.01535   1.94561
   A44        1.92312  -0.00117   0.00000  -0.01455  -0.01447   1.90866
   A45        1.93247  -0.00184   0.00000  -0.01981  -0.01969   1.91278
   A46        1.88715   0.00261   0.00000   0.02704   0.02680   1.91396
   A47        1.89866   0.00331   0.00000   0.03173   0.03146   1.93012
   A48        1.85801  -0.00077   0.00000  -0.00693  -0.00778   1.85023
   A49        1.98355  -0.00146   0.00000  -0.00524  -0.00533   1.97821
   A50        1.92679  -0.00078   0.00000  -0.02099  -0.02105   1.90574
   A51        1.98355  -0.00146   0.00000  -0.00524  -0.00533   1.97821
   A52        1.84736   0.00009   0.00000   0.00123   0.00101   1.84837
   A53        1.86519   0.00379   0.00000   0.03085   0.03082   1.89601
   A54        1.84736   0.00009   0.00000   0.00123   0.00101   1.84837
   A55        1.94874  -0.00534   0.00000  -0.02926  -0.02943   1.91931
   A56        1.95570  -0.00331   0.00000  -0.02026  -0.02045   1.93524
   A57        1.97377  -0.00104   0.00000  -0.00646  -0.00655   1.96722
   A58        1.84678   0.00470   0.00000   0.02806   0.02779   1.87457
   A59        1.84864   0.00377   0.00000   0.02384   0.02378   1.87242
   A60        1.88233   0.00212   0.00000   0.00947   0.00936   1.89169
   A61        1.94874  -0.00534   0.00000  -0.02926  -0.02943   1.91931
   A62        1.97377  -0.00104   0.00000  -0.00646  -0.00655   1.96722
   A63        1.95570  -0.00331   0.00000  -0.02026  -0.02045   1.93524
   A64        1.84864   0.00377   0.00000   0.02384   0.02378   1.87242
   A65        1.84678   0.00470   0.00000   0.02806   0.02779   1.87457
   A66        1.88233   0.00212   0.00000   0.00947   0.00936   1.89169
    D1        0.00000   0.00000   0.00000   0.00000   0.00000   0.00000
    D2       -2.13404   0.00073   0.00000   0.00758   0.00774  -2.12631
    D3        2.13404  -0.00073   0.00000  -0.00758  -0.00774   2.12631
    D4       -2.11470  -0.00023   0.00000  -0.00345  -0.00344  -2.11814
    D5        2.03444   0.00050   0.00000   0.00414   0.00429   2.03874
    D6        0.01934  -0.00096   0.00000  -0.01103  -0.01118   0.00816
    D7        2.11470   0.00023   0.00000   0.00345   0.00344   2.11814
    D8       -0.01934   0.00096   0.00000   0.01103   0.01118  -0.00816
    D9       -2.03444  -0.00050   0.00000  -0.00414  -0.00429  -2.03874
   D10        1.03467  -0.00038   0.00000  -0.00304  -0.00305   1.03162
   D11       -1.03467   0.00038   0.00000   0.00304   0.00305  -1.03162
   D12        3.14159   0.00000   0.00000   0.00000   0.00000   3.14159
   D13       -3.12254  -0.00012   0.00000   0.00061   0.00059  -3.12194
   D14        1.09131   0.00063   0.00000   0.00668   0.00669   1.09800
   D15       -1.01561   0.00026   0.00000   0.00365   0.00364  -1.01197
   D16       -1.09131  -0.00063   0.00000  -0.00668  -0.00669  -1.09800
   D17        3.12254   0.00012   0.00000  -0.00061  -0.00059   3.12194
   D18        1.01561  -0.00026   0.00000  -0.00365  -0.00364   1.01197
   D19       -0.99752  -0.00131   0.00000  -0.01275  -0.01282  -1.01034
   D20        0.99752   0.00131   0.00000   0.01275   0.01282   1.01034
   D21        3.14159   0.00000   0.00000   0.00000   0.00000   3.14159
   D22        1.11723  -0.00037   0.00000  -0.00276  -0.00280   1.11443
   D23        3.11227   0.00224   0.00000   0.02275   0.02284   3.13512
   D24       -1.02684   0.00093   0.00000   0.01000   0.01002  -1.01682
   D25       -3.11227  -0.00224   0.00000  -0.02275  -0.02284  -3.13512
   D26       -1.11723   0.00037   0.00000   0.00276   0.00280  -1.11443
   D27        1.02684  -0.00093   0.00000  -0.01000  -0.01002   1.01682
   D28       -1.01936   0.00025   0.00000   0.00159   0.00161  -1.01775
   D29        3.13915  -0.00010   0.00000  -0.00225  -0.00221   3.13693
   D30        1.10709   0.00052   0.00000   0.00618   0.00620   1.11329
   D31        1.05413  -0.00030   0.00000  -0.00459  -0.00461   1.04951
   D32       -1.07055  -0.00065   0.00000  -0.00844  -0.00844  -1.07899
   D33       -3.10261  -0.00003   0.00000   0.00000  -0.00003  -3.10264
[...]
 Alpha virt. eigenvalues --    1.69806   1.72475   1.73778   1.75466   1.76693
 Alpha virt. eigenvalues --    1.77290   1.78876   1.80929   1.83402   1.83962
 Alpha virt. eigenvalues --    1.86501   1.87465   1.88468   1.88890   1.91018
 Alpha virt. eigenvalues --    1.91412   1.92663   1.94848   1.94882   1.95556
 Alpha virt. eigenvalues --    1.97012   1.99417   2.01227   2.02165   2.03033
 Alpha virt. eigenvalues --    2.04004   2.04524   2.06945   2.07009   2.08149
 Alpha virt. eigenvalues --    2.12373   2.12594   2.13159   2.13589   2.16183
 Alpha virt. eigenvalues --    2.16906   2.18029   2.23911   2.24449   2.26377
 Alpha virt. eigenvalues --    2.26893   2.30296   2.33375   2.33729   2.35497
 Alpha virt. eigenvalues --    2.37735   2.39567   2.42559   2.42679   2.43913
 Alpha virt. eigenvalues --    2.44254   2.44633   2.46474   2.47817   2.49550
 Alpha virt. eigenvalues --    2.51901   2.53068   2.57363   2.58757   2.62095
 Alpha virt. eigenvalues --    2.62808   2.63996   2.64343   2.65729   2.67645
 Alpha virt. eigenvalues --    2.69060   2.70782   2.71864   2.74463   2.76173
 Alpha virt. eigenvalues --    2.76582   2.78798   2.79183   2.79407   2.79744
 Alpha virt. eigenvalues --    2.81070   2.83855   2.84808   2.85155   2.86440
 Alpha virt. eigenvalues --    2.86837   2.89031   2.91213   2.92059   2.97192
 Alpha virt. eigenvalues --    2.97940   2.98729   3.05996   3.07076   3.10498
 Alpha virt. eigenvalues --    3.28720   3.28981   3.29902   3.31794   3.32253
 Alpha virt. eigenvalues --    3.41255   3.42087   3.42260   3.44990   3.46259
 Alpha virt. eigenvalues --    3.46699   3.48315   3.48736   3.49278   3.51690
 Alpha virt. eigenvalues --    3.52169   3.58379   3.59854   3.60132   4.30554
 Alpha virt. eigenvalues --    4.42482   4.48580   4.50149   4.50261   4.56169
 Alpha virt. eigenvalues --    4.66545   4.70167   4.74174   4.89296   4.89500
 Alpha virt. eigenvalues --    5.10019
          Condensed to atoms (all electrons):
              1          2          3          4          5          6
     1  C    5.941837  -0.983627   0.458614  -0.215598  -0.347784   0.551357
     2  C   -0.983627   9.610575  -0.201378  -0.045714   0.509046  -1.734992
     3  C    0.458614  -0.201378   5.504277  -0.512696   0.345344   0.027246
     4  C   -0.215598  -0.045714  -0.512696  14.867734   0.275982  -2.376481
     5  C   -0.347784   0.509046   0.345344   0.275982   6.026442  -1.129638
     6  C    0.551357  -1.734992   0.027246  -2.376481  -1.129638  10.277466
     7  C   -0.347784   0.509046   0.345344   0.275982  -0.300914   0.398413
     8  C    0.551357  -1.734992   0.027246  -2.376481   0.398413  -0.967622
     9  C    0.111222  -0.436048  -0.107743  -5.423945  -0.163148   1.082657
    10  C   -0.047139   0.133683  -0.030085   0.679647  -0.013237   0.039912
    11  Cl   0.013483  -0.155404  -0.029414   0.525832   0.014612  -0.115530
    12  C   -0.047139   0.133683  -0.030085   0.679647   0.031197  -0.566684
    13  H    0.442327  -0.074552  -0.048049  -0.011805   0.019324  -0.007495
    14  H    0.442327  -0.074552  -0.048049  -0.011805  -0.026199   0.035405
    15  H   -0.015578   0.458955   0.021694  -0.092322  -0.002036  -0.021572
    16  H   -0.015578   0.458955   0.021694  -0.092322   0.000707   0.013711
    17  H   -0.040844   0.015130   0.301874   0.047836  -0.039846   0.014033
    18  H    0.017215  -0.000036  -0.044412  -0.004613   0.449309  -0.087122
    19  H   -0.027480   0.030036  -0.042797  -0.009430   0.436082  -0.070092
    20  H    0.000747  -0.000344   0.020110  -0.101056  -0.028923   0.489290
    21  H   -0.001427  -0.007491   0.018418  -0.068852  -0.013151   0.417463
    22  H   -0.027480   0.030036  -0.042797  -0.009430   0.020141  -0.006704
    23  H    0.017215  -0.000036  -0.044412  -0.004613  -0.029331   0.032127
    24  H   -0.001427  -0.007491   0.018418  -0.068852  -0.001449   0.020102
    25  H    0.000747  -0.000344   0.020110  -0.101056  -0.001248  -0.021547
    26  H   -0.001195   0.009696   0.000158  -0.021243  -0.000143   0.006005
    27  H   -0.003095  -0.041371  -0.001682   0.074956   0.003850   0.001150
    28  H    0.001560  -0.008286   0.000241   0.084654  -0.002901  -0.029884
    29  H   -0.001195   0.009696   0.000158  -0.021243  -0.000167  -0.011837
    30  H    0.001560  -0.008286   0.000241   0.084654  -0.001234   0.002326
    31  H   -0.003095  -0.041371  -0.001682   0.074956   0.000030  -0.000666
              7          8          9         10         11         12
     1  C   -0.347784   0.551357   0.111222  -0.047139   0.013483  -0.047139
     2  C    0.509046  -1.734992  -0.436048   0.133683  -0.155404   0.133683
     3  C    0.345344   0.027246  -0.107743  -0.030085  -0.029414  -0.030085
     4  C    0.275982  -2.376481  -5.423945   0.679647   0.525832   0.679647
     5  C   -0.300914   0.398413  -0.163148  -0.013237   0.014612   0.031197
     6  C    0.398413  -0.967622   1.082657   0.039912  -0.115530  -0.566684
     7  C    6.026442  -1.129638  -0.163148   0.031197   0.014612  -0.013237
     8  C   -1.129638  10.277466   1.082657  -0.566684  -0.115530   0.039912
     9  C   -0.163148   1.082657  13.888008  -1.429273  -0.373125  -1.429273
    10  C    0.031197  -0.566684  -1.429273   6.666922  -0.044057  -0.336510
    11  Cl   0.014612  -0.115530  -0.373125  -0.044057  17.355483  -0.044057
    12  C   -0.013237   0.039912  -1.429273  -0.336510  -0.044057   6.666922
    13  H   -0.026199   0.035405  -0.005166  -0.002007   0.000151   0.000939
    14  H    0.019324  -0.007495  -0.005166   0.000939   0.000151  -0.002007
    15  H    0.000707   0.013711  -0.013935  -0.029144  -0.000331  -0.001145
    16  H   -0.002036  -0.021572  -0.013935  -0.001145  -0.000331  -0.029144
    17  H   -0.039846   0.014033   0.014402   0.000237  -0.000102   0.000237
    18  H   -0.029331   0.032127  -0.010599  -0.000868   0.000226   0.000287
    19  H    0.020141  -0.006704  -0.006301  -0.000896  -0.000417   0.000324
    20  H   -0.001248  -0.021547  -0.011102  -0.011507  -0.005731   0.001778
    21  H   -0.001449   0.020102  -0.032166  -0.016909   0.000170  -0.000337
    22  H    0.436082  -0.070092  -0.006301   0.000324  -0.000417  -0.000896
    23  H    0.449309  -0.087122  -0.010599   0.000287   0.000226  -0.000868
    24  H   -0.013151   0.417463  -0.032166  -0.000337   0.000170  -0.016909
    25  H   -0.028923   0.489290  -0.011102   0.001778  -0.005731  -0.011507
    26  H   -0.000167  -0.011837  -0.086399   0.467606  -0.000402  -0.010526
    27  H    0.000030  -0.000666  -0.131995   0.443936   0.020246  -0.019753
    28  H   -0.001234   0.002326  -0.219637   0.537125  -0.009476   0.000623
    29  H   -0.000143   0.006005  -0.086399  -0.010526  -0.000402   0.467606
    30  H   -0.002901  -0.029884  -0.219637   0.000623  -0.009476   0.537125
    31  H    0.003850   0.001150  -0.131995  -0.019753   0.020246   0.443936
             13         14         15         16         17         18
     1  C    0.442327   0.442327  -0.015578  -0.015578  -0.040844   0.017215
     2  C   -0.074552  -0.074552   0.458955   0.458955   0.015130  -0.000036
     3  C   -0.048049  -0.048049   0.021694   0.021694   0.301874  -0.044412
     4  C   -0.011805  -0.011805  -0.092322  -0.092322   0.047836  -0.004613
     5  C    0.019324  -0.026199  -0.002036   0.000707  -0.039846   0.449309
     6  C   -0.007495   0.035405  -0.021572   0.013711   0.014033  -0.087122
     7  C   -0.026199   0.019324   0.000707  -0.002036  -0.039846  -0.029331
     8  C    0.035405  -0.007495   0.013711  -0.021572   0.014033   0.032127
     9  C   -0.005166  -0.005166  -0.013935  -0.013935   0.014402  -0.010599
    10  C   -0.002007   0.000939  -0.029144  -0.001145   0.000237  -0.000868
    11  Cl   0.000151   0.000151  -0.000331  -0.000331  -0.000102   0.000226
    12  C    0.000939  -0.002007  -0.001145  -0.029144   0.000237   0.000287
    13  H    0.579813  -0.032666   0.003834  -0.011243  -0.003486  -0.000176
    14  H   -0.032666   0.579813  -0.011243   0.003834  -0.003486   0.000079
    15  H    0.003834  -0.011243   0.583984  -0.036140  -0.000140  -0.000002
    16  H   -0.011243   0.003834  -0.036140   0.583984  -0.000140   0.000014
    17  H   -0.003486  -0.003486  -0.000140  -0.000140   0.616059  -0.003366
    18  H   -0.000176   0.000079  -0.000002   0.000014  -0.003366   0.578196
    19  H    0.000074   0.003223  -0.000040   0.000004  -0.003567  -0.032393
    20  H    0.000012   0.000001   0.000099  -0.000159  -0.000126  -0.010334
    21  H    0.000000  -0.000056   0.002776   0.000105  -0.000147   0.003924
    22  H    0.003223   0.000074   0.000004  -0.000040  -0.003567   0.000093
    23  H    0.000079  -0.000176   0.000014  -0.000002  -0.003366   0.003412
    24  H   -0.000056   0.000000   0.000105   0.002776  -0.000147   0.000004
    25  H    0.000001   0.000012  -0.000159   0.000099  -0.000126  -0.000061
    26  H    0.000000   0.000000   0.000070  -0.000013   0.000000   0.000000
    27  H   -0.000001   0.000003  -0.000315  -0.000210   0.000000   0.000000
    28  H    0.000000   0.000002  -0.000099   0.000048   0.000000   0.000000
    29  H    0.000000   0.000000  -0.000013   0.000070   0.000000   0.000000
    30  H    0.000002   0.000000   0.000048  -0.000099   0.000000   0.000000
    31  H    0.000003  -0.000001  -0.000210  -0.000315   0.000000   0.000000
             19         20         21         22         23         24
     1  C   -0.027480   0.000747  -0.001427  -0.027480   0.017215  -0.001427
     2  C    0.030036  -0.000344  -0.007491   0.030036  -0.000036  -0.007491
     3  C   -0.042797   0.020110   0.018418  -0.042797  -0.044412   0.018418
     4  C   -0.009430  -0.101056  -0.068852  -0.009430  -0.004613  -0.068852
     5  C    0.436082  -0.028923  -0.013151   0.020141  -0.029331  -0.001449
     6  C   -0.070092   0.489290   0.417463  -0.006704   0.032127   0.020102
     7  C    0.020141  -0.001248  -0.001449   0.436082   0.449309  -0.013151
     8  C   -0.006704  -0.021547   0.020102  -0.070092  -0.087122   0.417463
     9  C   -0.006301  -0.011102  -0.032166  -0.006301  -0.010599  -0.032166
    10  C   -0.000896  -0.011507  -0.016909   0.000324   0.000287  -0.000337
    11  Cl  -0.000417  -0.005731   0.000170  -0.000417   0.000226   0.000170
    12  C    0.000324   0.001778  -0.000337  -0.000896  -0.000868  -0.016909
    13  H    0.000074   0.000012   0.000000   0.003223   0.000079  -0.000056
    14  H    0.003223   0.000001  -0.000056   0.000074  -0.000176   0.000000
    15  H   -0.000040   0.000099   0.002776   0.000004   0.000014   0.000105
    16  H    0.000004  -0.000159   0.000105  -0.000040  -0.000002   0.002776
    17  H   -0.003567  -0.000126  -0.000147  -0.003567  -0.003366  -0.000147
    18  H   -0.032393  -0.010334   0.003924   0.000093   0.003412   0.000004
    19  H    0.582885   0.003471  -0.011501  -0.000180   0.000093   0.000014
    20  H    0.003471   0.540576  -0.032862  -0.000002  -0.000061   0.000071
    21  H   -0.011501  -0.032862   0.592406   0.000014   0.000004  -0.000167
    22  H   -0.000180  -0.000002   0.000014   0.582885  -0.032393  -0.011501
    23  H    0.000093  -0.000061   0.000004  -0.032393   0.578196   0.003924
    24  H    0.000014   0.000071  -0.000167  -0.011501   0.003924   0.592406
    25  H   -0.000002   0.002239   0.000071   0.003471  -0.010334  -0.032862
    26  H    0.000000  -0.000018   0.000082   0.000000   0.000000  -0.000002
    27  H    0.000001   0.000049  -0.000302   0.000000   0.000000  -0.000008
    28  H    0.000011   0.000128   0.000120   0.000000   0.000000   0.000001
    29  H    0.000000  -0.000002  -0.000002   0.000000   0.000000   0.000082
    30  H    0.000000  -0.000009   0.000001   0.000011   0.000000   0.000120
    31  H    0.000000  -0.000002  -0.000008   0.000001   0.000000  -0.000302
             25         26         27         28         29         30
     1  C    0.000747  -0.001195  -0.003095   0.001560  -0.001195   0.001560
     2  C   -0.000344   0.009696  -0.041371  -0.008286   0.009696  -0.008286
     3  C    0.020110   0.000158  -0.001682   0.000241   0.000158   0.000241
     4  C   -0.101056  -0.021243   0.074956   0.084654  -0.021243   0.084654
     5  C   -0.001248  -0.000143   0.003850  -0.002901  -0.000167  -0.001234
     6  C   -0.021547   0.006005   0.001150  -0.029884  -0.011837   0.002326
     7  C   -0.028923  -0.000167   0.000030  -0.001234  -0.000143  -0.002901
     8  C    0.489290  -0.011837  -0.000666   0.002326   0.006005  -0.029884
     9  C   -0.011102  -0.086399  -0.131995  -0.219637  -0.086399  -0.219637
    10  C    0.001778   0.467606   0.443936   0.537125  -0.010526   0.000623
    11  Cl  -0.005731  -0.000402   0.020246  -0.009476  -0.000402  -0.009476
    12  C   -0.011507  -0.010526  -0.019753   0.000623   0.467606   0.537125
    13  H    0.000001   0.000000  -0.000001   0.000000   0.000000   0.000002
    14  H    0.000012   0.000000   0.000003   0.000002   0.000000   0.000000
    15  H   -0.000159   0.000070  -0.000315  -0.000099  -0.000013   0.000048
    16  H    0.000099  -0.000013  -0.000210   0.000048   0.000070  -0.000099
    17  H   -0.000126   0.000000   0.000000   0.000000   0.000000   0.000000
    18  H   -0.000061   0.000000   0.000000   0.000000   0.000000   0.000000
    19  H   -0.000002   0.000000   0.000001   0.000011   0.000000   0.000000
    20  H    0.002239  -0.000018   0.000049   0.000128  -0.000002  -0.000009
    21  H    0.000071   0.000082  -0.000302   0.000120  -0.000002   0.000001
    22  H    0.003471   0.000000   0.000000   0.000000   0.000000   0.000011
    23  H   -0.010334   0.000000   0.000000   0.000000   0.000000   0.000000
    24  H   -0.032862  -0.000002  -0.000008   0.000001   0.000082   0.000120
    25  H    0.540576  -0.000002  -0.000002  -0.000009  -0.000018   0.000128
    26  H   -0.000002   0.534733  -0.027900  -0.025036   0.003169   0.000110
    27  H   -0.000002  -0.027900   0.558723  -0.027930   0.000100   0.000075
    28  H   -0.000009  -0.025036  -0.027930   0.535382   0.000110  -0.000160
    29  H   -0.000018   0.003169   0.000100   0.000110   0.534733  -0.025036
    30  H    0.000128   0.000110   0.000075  -0.000160  -0.025036   0.535382
    31  H    0.000049   0.000100   0.000881   0.000075  -0.027900  -0.027930
             31
     1  C   -0.003095
     2  C   -0.041371
     3  C   -0.001682
     4  C    0.074956
     5  C    0.000030
     6  C   -0.000666
     7  C    0.003850
     8  C    0.001150
     9  C   -0.131995
    10  C   -0.019753
    11  Cl   0.020246
    12  C    0.443936
    13  H    0.000003
    14  H   -0.000001
    15  H   -0.000210
    16  H   -0.000315
    17  H    0.000000
    18  H    0.000000
    19  H    0.000000
    20  H   -0.000002
    21  H   -0.000008
    22  H    0.000001
    23  H    0.000000
    24  H   -0.000302
    25  H    0.000049
    26  H    0.000100
    27  H    0.000881
    28  H    0.000075
    29  H   -0.027900
    30  H   -0.027930
    31  H    0.558723
 Mulliken atomic charges:
              1
     1  C   -0.424107
     2  C   -0.352218
     3  C    0.054093
     4  C   -0.102326
     5  C   -0.429129
     6  C   -0.260799
     7  C   -0.429129
     8  C   -0.260799
     9  C    0.381355
    10  C   -0.444138
    11  Cl  -0.055678
    12  C   -0.444138
    13  H    0.137714
    14  H    0.137714
    15  H    0.138425
    16  H    0.138425
    17  H    0.118465
    18  H    0.138427
    19  H    0.135442
    20  H    0.166464
    21  H    0.131173
    22  H    0.135442
    23  H    0.138427
    24  H    0.131173
    25  H    0.166464
    26  H    0.163155
    27  H    0.151230
    28  H    0.162245
    29  H    0.163155
    30  H    0.162245
    31  H    0.151230
 Sum of Mulliken atomic charges =   0.00000
 Mulliken charges with hydrogens summed into heavy atoms:
              1
     1  C   -0.148679
     2  C   -0.075368
     3  C    0.172558
     4  C   -0.102326
     5  C   -0.155260
     6  C    0.036837
     7  C   -0.155260
     8  C    0.036837
     9  C    0.381355
    10  C    0.032492
    11  Cl  -0.055678
    12  C    0.032492
 Sum of Mulliken charges with hydrogens summed into heavy atoms =   0.00000
 Electronic spatial extent (au):  <R**2>=           2331.8065
 Charge=              0.0000 electrons
 Dipole moment (field-independent basis, Debye):
    X=             -2.4944    Y=             -0.0658    Z=              0.0000  Tot=              2.4953
 Quadrupole moment (field-independent basis, Debye-Ang):
   XX=            -90.2789   YY=            -82.5363   ZZ=            -83.3129
   XY=             -3.1999   XZ=              0.0000   YZ=              0.0000
 Traceless Quadrupole moment (field-independent basis, Debye-Ang):
   XX=             -4.9029   YY=              2.8397   ZZ=              2.0632
   XY=             -3.1999   XZ=              0.0000   YZ=              0.0000
 Octapole moment (field-independent basis, Debye-Ang**2):
  XXX=             -3.0763  YYY=             10.1884  ZZZ=              0.0000  XYY=              0.6912
  XXY=             -7.7692  XXZ=              0.0000  XZZ=              0.4242  YZZ=              3.6602
  YYZ=              0.0000  XYZ=              0.0000
 Hexadecapole moment (field-independent basis, Debye-Ang**3):
 XXXX=          -1110.8794 YYYY=          -1540.1979 ZZZZ=           -594.1198 XXXY=           -313.9863
 XXXZ=              0.0000 YYYX=           -291.0356 YYYZ=              0.0000 ZZZX=              0.0000
 ZZZY=              0.0000 XXYY=           -450.0207 XXZZ=           -279.3012 YYZZ=           -364.6018
 XXYZ=              0.0000 YYXZ=              0.0000 ZZXY=            -95.7578
 N-N= 8.988183648141D+02 E-N=-3.886138120783D+03  KE= 8.851156328341D+02
 Symmetry A'   KE= 7.131252141625D+02
 Symmetry A"   KE= 1.719904186716D+02
 1\1\GINC-ROCK\FOpt\RB3LYP\6-31+G(d,p)\C11H19Cl1\STYLIANAKIS\27-Mar-201
 6\0\\# opt b3lyp/6-31+g(d,p)\\bicyclooctyl-CMe2Cl\\0,1\C,-2.5790757694
 ,-0.7550008405,0.\C,-1.1195036155,-1.3068512513,0.\C,-2.5683853533,0.7
 828379439,0.\C,-0.0859118687,-0.1385823103,0.\C,-1.8247209393,1.279176
 2248,-1.2496246285\C,-0.3682795087,0.7273161816,-1.2592706807\C,-1.824
 7209393,1.2791762248,1.2496246285\C,-0.3682795087,0.7273161816,1.25927
 06807\C,1.3789261648,-0.7127895799,0.\C,1.7363090047,-1.5250635345,-1.
 2515884114\Cl,2.5911052399,0.7317854042,0.\C,1.7363090047,-1.525063534
 5,1.2515884114\H,-3.1233669311,-1.1209823703,0.8788405207\H,-3.1233669
 311,-1.1209823703,-0.8788405207\H,-0.9654519571,-1.94149318,-0.8784789
 575\H,-0.9654519571,-1.94149318,0.8784789575\H,-3.5978477863,1.1620039
 098,0.\H,-1.8191101728,2.3756858907,-1.2633130649\H,-2.3609160822,0.95
 96231089,-2.1515163857\H,0.3533486599,1.5471602421,-1.3017145495\H,-0.
 2120593734,0.1257176633,-2.1598963954\H,-2.3609160822,0.9596231089,2.1
 515163857\H,-1.8191101728,2.3756858907,1.2633130649\H,-0.2120593734,0.
 1257176633,2.1598963954\H,0.3533486599,1.5471602421,1.3017145495\H,2.7
 784012858,-1.8497396509,-1.1959526659\H,1.1084403007,-2.4202399513,-1.
 3122140588\H,1.6127423976,-0.9500043525,-2.1703910864\H,2.7784012858,-
 1.8497396509,1.1959526659\H,1.6127423976,-0.9500043525,2.1703910864\H,
 1.1084403007,-2.4202399513,1.3122140588\\Version=EM64L-G09RevA.01\Stat
 e=1-A'\HF=-890.8584937\RMSD=4.445e-09\RMSF=3.144e-05\Dipole=-0.734721,
 -0.6511025,0.\Quadrupole=-3.3355877,1.8016825,1.5339051,-2.7103786,0.,
 0.\PG=CS [SG(C5H1Cl1),X(C6H18)]\\@


 The juvenile sea squirt wanders through the sea searching
 for a suitable rock or hunk of coral to cling to and make
 its home for life.  For this task it has a rudimentary
 nervous system.  When it finds its spot and takes root, it
 doesn't need its brain any more so it eats it.
 It's rather like getting tenure.

                               -- source unknown
 Job cpu time:  0 days  2 hours 52 minutes 53.2 seconds.
 File lengths (MBytes):  RWF=     56 Int=      0 D2E=      0 Chk=      8 Scr=      1
 Normal termination of Gaussian 09 at Sun Mar 27 10:27:00 2016.
