 Entering Gaussian System, Link 0=g09
 Input=Butane-a.gjf
 Output=Butane-a.out
 Initial command:
 /usr/local/g09/l1.exe /home/scratch/stylianakis/Gau-18560.inp -scrdir=/home/scratch/stylianakis/
 Entering Link 1 = /usr/local/g09/l1.exe PID=     18561.
  
 Copyright (c) 1988,1990,1992,1993,1995,1998,2003,2009, Gaussian, Inc.
                  All Rights Reserved.
  
 This is part of the Gaussian(R) 09 program.  It is based on
 the Gaussian(R) 03 system (copyright 2003, Gaussian, Inc.),
 the Gaussian(R) 98 system (copyright 1998, Gaussian, Inc.),
 the Gaussian(R) 94 system (copyright 1995, Gaussian, Inc.),
 the Gaussian 92(TM) system (copyright 1992, Gaussian, Inc.),
 the Gaussian 90(TM) system (copyright 1990, Gaussian, Inc.),
 the Gaussian 88(TM) system (copyright 1988, Gaussian, Inc.),
 the Gaussian 86(TM) system (copyright 1986, Carnegie Mellon
 University), and the Gaussian 82(TM) system (copyright 1983,
 Carnegie Mellon University). Gaussian is a federally registered
 trademark of Gaussian, Inc.
  
 This software contains proprietary and confidential information,
 including trade secrets, belonging to Gaussian, Inc.
  
 This software is provided under written license and may be
 used, copied, transmitted, or stored only in accord with that
 written license.
  
 The following legend is applicable only to US Government
 contracts under FAR:
  
                    RESTRICTED RIGHTS LEGEND
  
 Use, reproduction and disclosure by the US Government is
 subject to restrictions as set forth in subparagraphs (a)
 and (c) of the Commercial Computer Software - Restricted
 Rights clause in FAR 52.227-19.
  
 Gaussian, Inc.
 340 Quinnipiac St., Bldg. 40, Wallingford CT 06492
  
  
 ---------------------------------------------------------------
 Warning -- This program may not be used in any manner that
 competes with the business of Gaussian, Inc. or will provide
 assistance to any competitor of Gaussian, Inc.  The licensee
 of this program is prohibited from giving any competitor of
 Gaussian, Inc. access to this program.  By using this program,
 the user acknowledges that Gaussian, Inc. is engaged in the
 business of creating and licensing software in the field of
 computational chemistry and represents and warrants to the
 licensee that it is not a competitor of Gaussian, Inc. and that
 it will not use this program in any manner prohibited above.
 ---------------------------------------------------------------
  

 Cite this work as:
 Gaussian 09, Revision A.01,
 M. J. Frisch, G. W. Trucks, H. B. Schlegel, G. E. Scuseria, 
 M. A. Robb, J. R. Cheeseman, G. Scalmani, V. Barone, B. Mennucci, 
 G. A. Petersson, H. Nakatsuji, M. Caricato, X. Li, H. P. Hratchian, 
 A. F. Izmaylov, J. Bloino, G. Zheng, J. L. Sonnenberg, M. Hada, 
 M. Ehara, K. Toyota, R. Fukuda, J. Hasegawa, M. Ishida, T. Nakajima, 
 Y. Honda, O. Kitao, H. Nakai, T. Vreven, J. A. Montgomery, Jr., 
 J. E. Peralta, F. Ogliaro, M. Bearpark, J. J. Heyd, E. Brothers, 
 K. N. Kudin, V. N. Staroverov, R. Kobayashi, J. Normand, 
 K. Raghavachari, A. Rendell, J. C. Burant, S. S. Iyengar, J. Tomasi, 
 M. Cossi, N. Rega, J. M. Millam, M. Klene, J. E. Knox, J. B. Cross, 
 V. Bakken, C. Adamo, J. Jaramillo, R. Gomperts, R. E. Stratmann, 
 O. Yazyev, A. J. Austin, R. Cammi, C. Pomelli, J. W. Ochterski, 
 R. L. Martin, K. Morokuma, V. G. Zakrzewski, G. A. Voth, 
 P. Salvador, J. J. Dannenberg, S. Dapprich, A. D. Daniels, 
 O. Farkas, J. B. Foresman, J. V. Ortiz, J. Cioslowski, 
 and D. J. Fox, Gaussian, Inc., Wallingford CT, 2009.
 
 ******************************************
 Gaussian 09:  EM64L-G09RevA.01  8-May-2009
                27-Mar-2016 
 ******************************************
 %mem=16000Mb
 %nproc=8
 Will use up to    8 processors via shared memory.
 -----------------------
 # opt b3lyp/6-31+g(d,p)
 -----------------------
 1/14=-1,18=20,19=15,26=3,38=1/1,3;
 2/9=110,12=2,17=6,18=5,40=1/2;
 3/5=1,6=6,7=111,11=2,16=1,25=1,30=1,71=1,74=-5/1,2,3;
 4//1;
 5/5=2,38=5/2;
 6/7=2,8=2,9=2,10=2,28=1/1;
 7//1,2,3,16;
 1/14=-1,18=20,19=15/3(2);
 2/9=110/2;
 99//99;
 2/9=110/2;
 3/5=1,6=6,7=111,11=2,16=1,25=1,30=1,71=1,74=-5/1,2,3;
 4/5=5,16=3/1;
 5/5=2,38=5/2;
 7//1,2,3,16;
 1/14=-1,18=20,19=15/3(-5);
 2/9=110/2;
 6/7=2,8=2,9=2,10=2,19=2,28=1/1;
 99/9=1/99;
 --------
 butane-a
 --------
 Symbolic Z-matrix:
 Charge =  0 Multiplicity = 1
 C                     0.73729  -1.81106   0. 
 C                     0.71729  -0.27606   0. 
 C                    -0.71671   0.27594   0. 
 C                    -0.73771   1.81094   0. 
 H                     1.78329  -2.19706   0. 
 H                     0.22529  -2.21906   0.901 
 H                     0.22529  -2.21906  -0.901 
 H                     1.26129   0.09894   0.899 
 H                     1.26129   0.09894  -0.899 
 H                    -1.26171  -0.09906  -0.899 
 H                    -1.26171  -0.09906   0.899 
 H                    -1.78271   2.19694   0. 
 H                    -0.22571   2.21994   0.901 
 H                    -0.22571   2.21994  -0.901 
 

 GradGradGradGradGradGradGradGradGradGradGradGradGradGradGradGradGradGrad
 Berny optimization.
 Initialization pass.
                           ----------------------------
                           !    Initial Parameters    !
                           ! (Angstroms and Degrees)  !
 --------------------------                            --------------------------
 ! Name  Definition              Value          Derivative Info.                !
 --------------------------------------------------------------------------------
 ! R1    R(1,2)                  1.5351         estimate D2E/DX2                !
 ! R2    R(1,5)                  1.1149         estimate D2E/DX2                !
 ! R3    R(1,6)                  1.1137         estimate D2E/DX2                !
 ! R4    R(1,7)                  1.1137         estimate D2E/DX2                !
 ! R5    R(2,3)                  1.5366         estimate D2E/DX2                !
 ! R6    R(2,8)                  1.1157         estimate D2E/DX2                !
 ! R7    R(2,9)                  1.1157         estimate D2E/DX2                !
 ! R8    R(3,4)                  1.5351         estimate D2E/DX2                !
 ! R9    R(3,10)                 1.1162         estimate D2E/DX2                !
 ! R10   R(3,11)                 1.1162         estimate D2E/DX2                !
 ! R11   R(4,12)                 1.114          estimate D2E/DX2                !
 ! R12   R(4,13)                 1.1141         estimate D2E/DX2                !
 ! R13   R(4,14)                 1.1141         estimate D2E/DX2                !
 ! A1    A(2,1,5)              111.0018         estimate D2E/DX2                !
 ! A2    A(2,1,6)              111.1195         estimate D2E/DX2                !
 ! A3    A(2,1,7)              111.1195         estimate D2E/DX2                !
 ! A4    A(5,1,6)              107.7256         estimate D2E/DX2                !
 ! A5    A(5,1,7)              107.7256         estimate D2E/DX2                !
 ! A6    A(6,1,7)              107.9944         estimate D2E/DX2                !
 ! A7    A(1,2,3)              111.8001         estimate D2E/DX2                !
 ! A8    A(1,2,8)              109.2526         estimate D2E/DX2                !
 ! A9    A(1,2,9)              109.2526         estimate D2E/DX2                !
 ! A10   A(3,2,8)              109.5297         estimate D2E/DX2                !
 ! A11   A(3,2,9)              109.5297         estimate D2E/DX2                !
 ! A12   A(8,2,9)              107.3713         estimate D2E/DX2                !
 ! A13   A(2,3,4)              111.8374         estimate D2E/DX2                !
 ! A14   A(2,3,10)             109.5717         estimate D2E/DX2                !
 ! A15   A(2,3,11)             109.5717         estimate D2E/DX2                !
 ! A16   A(4,3,10)             109.2237         estimate D2E/DX2                !
 ! A17   A(4,3,11)             109.2237         estimate D2E/DX2                !
 ! A18   A(10,3,11)            107.3032         estimate D2E/DX2                !
 ! A19   A(3,4,12)             111.0569         estimate D2E/DX2                !
 ! A20   A(3,4,13)             111.1487         estimate D2E/DX2                !
 ! A21   A(3,4,14)             111.1487         estimate D2E/DX2                !
 ! A22   A(12,4,13)            107.6914         estimate D2E/DX2                !
 ! A23   A(12,4,14)            107.6914         estimate D2E/DX2                !
 ! A24   A(13,4,14)            107.9425         estimate D2E/DX2                !
 ! D1    D(5,1,2,3)            180.0            estimate D2E/DX2                !
 ! D2    D(5,1,2,8)            -58.5959         estimate D2E/DX2                !
 ! D3    D(5,1,2,9)             58.5959         estimate D2E/DX2                !
 ! D4    D(6,1,2,3)            -60.1395         estimate D2E/DX2                !
 ! D5    D(6,1,2,8)             61.2646         estimate D2E/DX2                !
 ! D6    D(6,1,2,9)            178.4565         estimate D2E/DX2                !
 ! D7    D(7,1,2,3)             60.1395         estimate D2E/DX2                !
 ! D8    D(7,1,2,8)           -178.4565         estimate D2E/DX2                !
 ! D9    D(7,1,2,9)            -61.2646         estimate D2E/DX2                !
 ! D10   D(1,2,3,4)            180.0            estimate D2E/DX2                !
 ! D11   D(1,2,3,10)           -58.7395         estimate D2E/DX2                !
 ! D12   D(1,2,3,11)            58.7395         estimate D2E/DX2                !
 ! D13   D(8,2,3,4)             58.7562         estimate D2E/DX2                !
 ! D14   D(8,2,3,10)          -179.9833         estimate D2E/DX2                !
 ! D15   D(8,2,3,11)           -62.5044         estimate D2E/DX2                !
 ! D16   D(9,2,3,4)            -58.7562         estimate D2E/DX2                !
 ! D17   D(9,2,3,10)            62.5044         estimate D2E/DX2                !
 ! D18   D(9,2,3,11)           179.9833         estimate D2E/DX2                !
 ! D19   D(2,3,4,12)           180.0            estimate D2E/DX2                !
 ! D20   D(2,3,4,13)           -60.1263         estimate D2E/DX2                !
 ! D21   D(2,3,4,14)            60.1263         estimate D2E/DX2                !
 ! D22   D(10,3,4,12)           58.5384         estimate D2E/DX2                !
 ! D23   D(10,3,4,13)          178.4121         estimate D2E/DX2                !
 ! D24   D(10,3,4,14)          -61.3352         estimate D2E/DX2                !
 ! D25   D(11,3,4,12)          -58.5384         estimate D2E/DX2                !
 ! D26   D(11,3,4,13)           61.3352         estimate D2E/DX2                !
 ! D27   D(11,3,4,14)         -178.4121         estimate D2E/DX2                !
 --------------------------------------------------------------------------------
 Trust Radius=3.00D-01 FncErr=1.00D-07 GrdErr=1.00D-06
 Number of steps in this run=  74 maximum allowed number of steps= 100.
 GradGradGradGradGradGradGradGradGradGradGradGradGradGradGradGradGradGrad

                          Input orientation:                          
 ---------------------------------------------------------------------
 Center     Atomic      Atomic             Coordinates (Angstroms)
 Number     Number       Type             X           Y           Z
 ---------------------------------------------------------------------
      1          6           0        0.737294   -1.811059    0.000000
      2          6           0        0.717294   -0.276059    0.000000
      3          6           0       -0.716706    0.275941    0.000000
      4          6           0       -0.737706    1.810941    0.000000
      5          1           0        1.783294   -2.197059    0.000000
      6          1           0        0.225294   -2.219059    0.901000
      7          1           0        0.225294   -2.219059   -0.901000
      8          1           0        1.261294    0.098941    0.899000
      9          1           0        1.261294    0.098941   -0.899000
     10          1           0       -1.261706   -0.099059   -0.899000
     11          1           0       -1.261706   -0.099059    0.899000
     12          1           0       -1.782706    2.196941    0.000000
     13          1           0       -0.225706    2.219941    0.901000
     14          1           0       -0.225706    2.219941   -0.901000
 ---------------------------------------------------------------------
                    Distance matrix (angstroms):
                    1          2          3          4          5
     1  C    0.000000
     2  C    1.535130   0.000000
     3  C    2.543558   1.536574   0.000000
     4  C    3.910819   2.544129   1.535144   0.000000
     5  H    1.114949   2.196952   3.516494   4.734924   0.000000
     6  H    1.113737   2.197525   2.814994   4.240291   1.799902
     7  H    1.113737   2.197525   2.814994   4.240291   1.799902
     8  H    2.175058   1.115689   2.179911   2.781213   2.520377
     9  H    2.175058   1.115689   2.179911   2.781213   2.520377
    10  H    2.781213   2.180819   1.116177   2.175058   3.805500
    11  H    2.781213   2.180819   1.116177   2.175058   3.805500
    12  H    4.734392   3.516494   2.196952   1.114011   5.658939
    13  H    4.241242   2.816215   2.198185   1.114103   4.935359
    14  H    4.241242   2.816215   2.198185   1.114103   4.935359
                    6          7          8          9         10
     6  H    0.000000
     7  H    1.802000   0.000000
     8  H    2.538981   3.112301   0.000000
     9  H    3.112301   2.538981   1.798000   0.000000
    10  H    3.153660   2.589512   3.104438   2.530757   0.000000
    11  H    2.589512   3.153660   2.530757   3.104438   1.798000
    12  H    4.934057   4.934057   3.804700   3.804700   2.520170
    13  H    4.461852   4.811998   2.590331   3.154332   3.113046
    14  H    4.811998   4.461852   3.154332   2.590331   2.539894
                   11         12         13         14
    11  H    0.000000
    12  H    2.520170   0.000000
    13  H    2.539894   1.799049   0.000000
    14  H    3.113046   1.799049   1.802000   0.000000
 Stoichiometry    C4H10
 Framework group  CS[SG(C4H2),X(H8)]
 Deg. of freedom    21
 Full point group                 CS      NOp   2
 Largest Abelian subgroup         CS      NOp   2
 Largest concise Abelian subgroup CS      NOp   2
                         Standard orientation:                         
 ---------------------------------------------------------------------
 Center     Atomic      Atomic             Coordinates (Angstroms)
 Number     Number       Type             X           Y           Z
 ---------------------------------------------------------------------
      1          6           0       -1.425207   -1.338776    0.000000
      2          6           0        0.000102   -0.768583    0.000000
      3          6           0        0.000000    0.767991    0.000000
      4          6           0        1.424949    1.339118    0.000000
      5          1           0       -1.409600   -2.453616    0.000000
      6          1           0       -1.989924   -1.007562    0.901000
      7          1           0       -1.989924   -1.007562   -0.901000
      8          1           0        0.545520   -1.141517    0.899000
      9          1           0        0.545520   -1.141517   -0.899000
     10          1           0       -0.545778    1.141859   -0.899000
     11          1           0       -0.545778    1.141859    0.899000
     12          1           0        1.409702    2.453025    0.000000
     13          1           0        1.990599    1.008264    0.901000
     14          1           0        1.990599    1.008264   -0.901000
 ---------------------------------------------------------------------
 Rotational constants (GHZ):     22.6410977      3.6272250      3.4011812
 Standard basis: 6-31+G(d,p) (6D, 7F)
 There are    84 symmetry adapted basis functions of A'  symmetry.
 There are    42 symmetry adapted basis functions of A"  symmetry.
 Integral buffers will be    131072 words long.
 Raffenetti 2 integral format.
 Two-electron integral symmetry is turned on.
   126 basis functions,   198 primitive gaussians,   126 cartesian basis functions
    17 alpha electrons       17 beta electrons
       nuclear repulsion energy       129.5867759780 Hartrees.
 NAtoms=   14 NActive=   14 NUniq=   10 SFac= 1.47D+00 NAtFMM=   80 NAOKFM=F Big=F
 One-electron integrals computed using PRISM.
 NBasis=   126 RedAO= T  NBF=    84    42
 NBsUse=   126 1.00D-06 NBFU=    84    42
 Harris functional with IExCor=  402 diagonalized for initial guess.
 ExpMin= 4.38D-02 ExpMax= 3.05D+03 ExpMxC= 4.57D+02 IAcc=2 IRadAn=         0 AccDes= 0.00D+00
 HarFok:  IExCor=  402 AccDes= 0.00D+00 IRadAn=         0 IDoV= 1
 ScaDFX=  1.000000  1.000000  1.000000  1.000000
 FoFCou: FMM=F IPFlag=           0 FMFlag=      100000 FMFlg1=           0
         NFxFlg=           0 DoJE=T BraDBF=F KetDBF=T FulRan=T
         Omega=  0.000000  0.000000  1.000000  0.000000  0.000000 ICntrl=     500 IOpCl=  0
         NMat0=    1 NMatS0=    1 NMatT0=    0 NMatD0=    1 NMtDS0=    0 NMtDT0=    0
         I1Cent=           4 NGrid=           0.
 Petite list used in FoFCou.
 Initial guess orbital symmetries:
       Occupied  (A') (A') (A') (A') (A') (A') (A') (A') (A") (A')
                 (A') (A") (A') (A') (A") (A') (A")
       Virtual   (A') (A') (A") (A') (A') (A') (A') (A") (A') (A")
                 (A') (A") (A') (A') (A') (A") (A") (A') (A') (A")
                 (A') (A') (A') (A') (A") (A') (A') (A') (A') (A')
                 (A') (A") (A') (A") (A') (A") (A') (A') (A") (A')
                 (A') (A") (A") (A') (A') (A") (A') (A") (A') (A')
                 (A') (A') (A") (A') (A') (A') (A') (A') (A") (A")
                 (A") (A') (A') (A') (A') (A') (A") (A") (A") (A")
                 (A') (A") (A") (A') (A") (A') (A") (A") (A') (A")
                 (A') (A') (A") (A') (A') (A') (A') (A') (A") (A')
                 (A') (A") (A") (A') (A') (A') (A') (A') (A") (A')
                 (A") (A') (A') (A") (A") (A') (A') (A') (A')
 The electronic state of the initial guess is 1-A'.
 Requested convergence on RMS density matrix=1.00D-08 within 128 cycles.
 Requested convergence on MAX density matrix=1.00D-06.
 Requested convergence on             energy=1.00D-06.
 No special actions if energy rises.
 Keep R1 ints in memory in canonical form, NReq=33224573.
 SCF Done:  E(RB3LYP) =  -158.474421036     A.U. after   10 cycles
             Convg  =    0.9313D-08             -V/T =  2.0121

 **********************************************************************

            Population analysis using the SCF density.

 **********************************************************************

 Orbital symmetries:
       Occupied  (A') (A') (A') (A') (A') (A') (A') (A') (A") (A')
                 (A') (A") (A') (A") (A') (A") (A')
       Virtual   (A') (A') (A') (A") (A') (A') (A") (A') (A") (A')
                 (A') (A") (A') (A') (A') (A") (A') (A") (A') (A")
                 (A') (A') (A') (A") (A') (A') (A') (A') (A') (A')
                 (A') (A") (A') (A") (A') (A") (A') (A') (A") (A')
                 (A') (A") (A") (A') (A") (A') (A') (A") (A') (A')
                 (A') (A') (A") (A') (A') (A') (A') (A') (A") (A")
                 (A") (A') (A') (A') (A') (A') (A") (A") (A") (A")
                 (A') (A") (A") (A') (A") (A') (A") (A") (A') (A")
                 (A') (A') (A") (A') (A') (A') (A') (A") (A') (A')
                 (A') (A") (A") (A') (A') (A') (A') (A') (A") (A')
                 (A") (A') (A') (A") (A") (A') (A') (A') (A')
 The electronic state is 1-A'.
 Alpha  occ. eigenvalues --  -10.18701 -10.18679 -10.18132 -10.18129  -0.79188
 Alpha  occ. eigenvalues --   -0.72026  -0.62531  -0.57230  -0.46713  -0.42385
 Alpha  occ. eigenvalues --   -0.41609  -0.40897  -0.36613  -0.34934  -0.33399
 Alpha  occ. eigenvalues --   -0.32453  -0.32055
 Alpha virt. eigenvalues --    0.01680   0.02072   0.03168   0.03842   0.05072
 Alpha virt. eigenvalues --    0.06898   0.07334   0.07554   0.08271   0.08354
 Alpha virt. eigenvalues --    0.10395   0.11144   0.12979   0.14690   0.15754
 Alpha virt. eigenvalues --    0.18422   0.18546   0.20132   0.20353   0.21072
 Alpha virt. eigenvalues --    0.22971   0.26068   0.27402   0.27699   0.28417
 Alpha virt. eigenvalues --    0.31905   0.33950   0.34325   0.35104   0.60894
 Alpha virt. eigenvalues --    0.62599   0.64617   0.64941   0.66030   0.69072
 Alpha virt. eigenvalues --    0.69359   0.69396   0.71718   0.77519   0.80972
 Alpha virt. eigenvalues --    0.83734   0.89675   0.94304   0.95306   0.96924
 Alpha virt. eigenvalues --    0.97364   1.00308   1.06171   1.06645   1.09452
 Alpha virt. eigenvalues --    1.09467   1.09772   1.29714   1.31222   1.36330
 Alpha virt. eigenvalues --    1.44478   1.47235   1.61300   1.63724   1.69067
 Alpha virt. eigenvalues --    1.69546   1.78357   1.83953   1.90718   1.93186
 Alpha virt. eigenvalues --    2.00459   2.03963   2.04045   2.06673   2.07062
 Alpha virt. eigenvalues --    2.08769   2.10130   2.11613   2.12282   2.24288
 Alpha virt. eigenvalues --    2.27073   2.27185   2.29291   2.34214   2.41317
 Alpha virt. eigenvalues --    2.44015   2.51391   2.53505   2.54444   2.66358
 Alpha virt. eigenvalues --    2.70152   2.72040   2.74115   2.75044   2.80468
 Alpha virt. eigenvalues --    2.83304   2.84540   2.87119   2.88262   2.91429
 Alpha virt. eigenvalues --    3.17774   3.20707   3.27725   3.31587   3.32513
 Alpha virt. eigenvalues --    3.39714   3.43809   3.46648   3.50514   3.54120
 Alpha virt. eigenvalues --    4.29767   4.45027   4.55102   4.68742
          Condensed to atoms (all electrons):
              1          2          3          4          5          6
     1  C    5.384786  -0.119167   0.125674  -0.083618   0.419280   0.447097
     2  C   -0.119167   5.780935  -0.093747   0.125812  -0.074494  -0.100714
     3  C    0.125674  -0.093747   5.781279  -0.119147   0.016505   0.012159
     4  C   -0.083618   0.125812  -0.119147   5.384983  -0.002677  -0.005192
     5  H    0.419280  -0.074494   0.016505  -0.002677   0.563239  -0.028316
     6  H    0.447097  -0.100714   0.012159  -0.005192  -0.028316   0.560848
     7  H    0.447097  -0.100714   0.012159  -0.005192  -0.028316  -0.030430
     8  H   -0.010992   0.361051  -0.017996  -0.017824  -0.003260  -0.004895
     9  H   -0.010992   0.361051  -0.017996  -0.017824  -0.003260   0.004563
    10  H   -0.017854  -0.017824   0.360863  -0.010990   0.000014  -0.000497
    11  H   -0.017854  -0.017824   0.360863  -0.010990   0.000014   0.003041
    12  H   -0.002666   0.016384  -0.074201   0.419200   0.000002   0.000000
    13  H   -0.005189   0.012181  -0.100749   0.447091   0.000000   0.000000
    14  H   -0.005189   0.012181  -0.100749   0.447091   0.000000  -0.000001
              7          8          9         10         11         12
     1  C    0.447097  -0.010992  -0.010992  -0.017854  -0.017854  -0.002666
     2  C   -0.100714   0.361051   0.361051  -0.017824  -0.017824   0.016384
     3  C    0.012159  -0.017996  -0.017996   0.360863   0.360863  -0.074201
     4  C   -0.005192  -0.017824  -0.017824  -0.010990  -0.010990   0.419200
     5  H   -0.028316  -0.003260  -0.003260   0.000014   0.000014   0.000002
     6  H   -0.030430  -0.004895   0.004563  -0.000497   0.003041   0.000000
     7  H    0.560848   0.004563  -0.004895   0.003041  -0.000497   0.000000
     8  H    0.004563   0.586038  -0.033110   0.004769  -0.005773   0.000014
     9  H   -0.004895  -0.033110   0.586038  -0.005773   0.004769   0.000014
    10  H    0.003041   0.004769  -0.005773   0.586221  -0.033153  -0.003262
    11  H   -0.000497  -0.005773   0.004769  -0.033153   0.586221  -0.003262
    12  H    0.000000   0.000014   0.000014  -0.003262  -0.003262   0.563074
    13  H   -0.000001   0.003038  -0.000497   0.004559  -0.004890  -0.028360
    14  H    0.000000  -0.000497   0.003038  -0.004890   0.004559  -0.028360
             13         14
     1  C   -0.005189  -0.005189
     2  C    0.012181   0.012181
     3  C   -0.100749  -0.100749
     4  C    0.447091   0.447091
     5  H    0.000000   0.000000
     6  H    0.000000  -0.000001
     7  H   -0.000001   0.000000
     8  H    0.003038  -0.000497
     9  H   -0.000497   0.003038
    10  H    0.004559  -0.004890
    11  H   -0.004890   0.004559
    12  H   -0.028360  -0.028360
    13  H    0.561014  -0.030450
    14  H   -0.030450   0.561014
 Mulliken atomic charges:
              1
     1  C   -0.550412
     2  C   -0.145112
     3  C   -0.144917
     4  C   -0.550723
     5  H    0.141269
     6  H    0.142336
     7  H    0.142336
     8  H    0.134873
     9  H    0.134873
    10  H    0.134775
    11  H    0.134775
    12  H    0.141424
    13  H    0.142251
    14  H    0.142251
 Sum of Mulliken atomic charges =   0.00000
 Mulliken charges with hydrogens summed into heavy atoms:
              1
     1  C   -0.124471
     2  C    0.124635
     3  C    0.124633
     4  C   -0.124797
 Sum of Mulliken charges with hydrogens summed into heavy atoms =   0.00000
 Electronic spatial extent (au):  <R**2>=            428.6421
 Charge=              0.0000 electrons
 Dipole moment (field-independent basis, Debye):
    X=              0.0003    Y=              0.0006    Z=              0.0000  Tot=              0.0007
 Quadrupole moment (field-independent basis, Debye-Ang):
   XX=            -30.0154   YY=            -29.3187   ZZ=            -28.3755
   XY=             -0.4623   XZ=              0.0000   YZ=              0.0000
 Traceless Quadrupole moment (field-independent basis, Debye-Ang):
   XX=             -0.7788   YY=             -0.0822   ZZ=              0.8610
   XY=             -0.4623   XZ=              0.0000   YZ=              0.0000
 Octapole moment (field-independent basis, Debye-Ang**2):
  XXX=              0.0074  YYY=              0.0102  ZZZ=              0.0000  XYY=              0.0092
  XXY=              0.0093  XXZ=              0.0000  XZZ=             -0.0017  YZZ=             -0.0028
  YYZ=              0.0000  XYZ=              0.0000
 Hexadecapole moment (field-independent basis, Debye-Ang**3):
 XXXX=           -277.4120 YYYY=           -283.8892 ZZZZ=            -62.7544 XXXY=            -96.4765
 XXXZ=              0.0000 YYYX=            -91.9567 YYYZ=              0.0000 ZZZX=              0.0000
 ZZZY=              0.0000 XXYY=            -97.9286 XXZZ=            -52.6091 YYZZ=            -60.0251
 XXYZ=              0.0000 YYXZ=              0.0000 ZZXY=            -31.6053
 N-N= 1.295867759780D+02 E-N=-6.242180055674D+02  KE= 1.565764923786D+02
 Symmetry A'   KE= 1.488737054547D+02
 Symmetry A"   KE= 7.702786923914D+00
 Calling FoFJK, ICntrl=      2127 FMM=F ISym2X=1 I1Cent= 0 IOpClX= 0 NMat=1 NMatS=1 NMatT=0.
 ***** Axes restored to original set *****
 -------------------------------------------------------------------
 Center     Atomic                   Forces (Hartrees/Bohr)
 Number     Number              X              Y              Z
 -------------------------------------------------------------------
      1        6           0.005172616   -0.009315287    0.000000000
      2        6           0.002785219   -0.001673956    0.000000000
      3        6          -0.003314397    0.001611312    0.000000000
      4        6          -0.004415385    0.009462263    0.000000000
      5        1          -0.011337815    0.002690436    0.000000000
      6        1           0.004729327    0.003432974   -0.009026738
      7        1           0.004729327    0.003432974    0.009026738
      8        1          -0.004587726   -0.002140444   -0.009371803
      9        1          -0.004587726   -0.002140444    0.009371803
     10        1           0.004805902    0.002205017    0.009528668
     11        1           0.004805902    0.002205017   -0.009528668
     12        1           0.010803090   -0.002611207    0.000000000
     13        1          -0.004794167   -0.003579327   -0.009147794
     14        1          -0.004794167   -0.003579327    0.009147794
 -------------------------------------------------------------------
 Cartesian Forces:  Max     0.011337815 RMS     0.005856746

 GradGradGradGradGradGradGradGradGradGradGradGradGradGradGradGradGradGrad
 Berny optimization.
 Internal  Forces:  Max     0.011567731 RMS     0.004477288
 Search for a local minimum.
 Step number   1 out of a maximum of   74
 All quantities printed in internal units (Hartrees-Bohrs-Radians)
 Mixed Optimization -- RFO/linear search
 Second derivative matrix not updated -- first step.
     Eigenvalues ---    0.00282   0.00301   0.00301   0.03574   0.03581
     Eigenvalues ---    0.04818   0.04821   0.05446   0.05451   0.05470
     Eigenvalues ---    0.05479   0.08132   0.08141   0.12063   0.12069
     Eigenvalues ---    0.16000   0.16000   0.16000   0.16000   0.16000
     Eigenvalues ---    0.16000   0.21917   0.21919   0.28825   0.28953
     Eigenvalues ---    0.28955   0.31955   0.31955   0.32005   0.32005
     Eigenvalues ---    0.32082   0.32169   0.32169   0.32179   0.32208
     Eigenvalues ---    0.322081000.000001000.000001000.000001000.00000
     Eigenvalues --- 1000.000001000.000001000.000001000.000001000.00000
     Eigenvalues --- 1000.000001000.000001000.000001000.000001000.00000
     Eigenvalues --- 1000.000001000.000001000.000001000.000001000.00000
     Eigenvalues --- 1000.000001000.000001000.000001000.000001000.00000
     Eigenvalues --- 1000.000001000.000001000.000001000.00000
 RFO step:  Lambda=-4.37366221D-03 EMin= 2.82142059D-03
 Linear search not attempted -- first point.
 Iteration  1 RMS(Cart)=  0.01945133 RMS(Int)=  0.00014092
 Iteration  2 RMS(Cart)=  0.00021982 RMS(Int)=  0.00007992
 Iteration  3 RMS(Cart)=  0.00000001 RMS(Int)=  0.00007992
 ClnCor:  largest displacement from symmetrization is 8.52D-10 for atom    14.
 Variable       Old X    -DE/DX   Delta X   Delta X   Delta X     New X
                                 (Linear)    (Quad)   (Total)
    R1        2.90098  -0.00020   0.00000  -0.00068  -0.00068   2.90030
    R2        2.10695  -0.01157   0.00000  -0.03557  -0.03557   2.07138
    R3        2.10466  -0.01073   0.00000  -0.03288  -0.03288   2.07177
    R4        2.10466  -0.01073   0.00000  -0.03288  -0.03288   2.07177
    R5        2.90370  -0.00084   0.00000  -0.00286  -0.00286   2.90085
    R6        2.10835  -0.01051   0.00000  -0.03239  -0.03239   2.07596
    R7        2.10835  -0.01051   0.00000  -0.03239  -0.03239   2.07596
    R8        2.90100  -0.00026   0.00000  -0.00090  -0.00090   2.90010
    R9        2.10927  -0.01076   0.00000  -0.03322  -0.03322   2.07604
   R10        2.10927  -0.01076   0.00000  -0.03322  -0.03322   2.07604
   R11        2.10518  -0.01104   0.00000  -0.03384  -0.03384   2.07133
   R12        2.10535  -0.01092   0.00000  -0.03348  -0.03348   2.07187
   R13        2.10535  -0.01092   0.00000  -0.03348  -0.03348   2.07187
    A1        1.93735   0.00196   0.00000   0.01401   0.01398   1.95132
    A2        1.93940   0.00025   0.00000   0.00046   0.00044   1.93984
    A3        1.93940   0.00025   0.00000   0.00046   0.00044   1.93984
    A4        1.88017  -0.00094   0.00000  -0.00374  -0.00377   1.87640
    A5        1.88017  -0.00094   0.00000  -0.00374  -0.00377   1.87640
    A6        1.88486  -0.00072   0.00000  -0.00826  -0.00826   1.87660
    A7        1.95128   0.00539   0.00000   0.02991   0.02979   1.98107
    A8        1.90682  -0.00091   0.00000   0.00276   0.00276   1.90958
    A9        1.90682  -0.00091   0.00000   0.00276   0.00276   1.90958
   A10        1.91165  -0.00189   0.00000  -0.00903  -0.00926   1.90239
   A11        1.91165  -0.00189   0.00000  -0.00903  -0.00926   1.90239
   A12        1.87398  -0.00001   0.00000  -0.01931  -0.01943   1.85455
   A13        1.95193   0.00532   0.00000   0.02942   0.02931   1.98124
   A14        1.91239  -0.00192   0.00000  -0.00956  -0.00980   1.90259
   A15        1.91239  -0.00192   0.00000  -0.00956  -0.00980   1.90259
   A16        1.90631  -0.00086   0.00000   0.00315   0.00317   1.90948
   A17        1.90631  -0.00086   0.00000   0.00315   0.00317   1.90948
   A18        1.87279   0.00002   0.00000  -0.01853  -0.01866   1.85413
   A19        1.93831   0.00184   0.00000   0.01322   0.01319   1.95150
   A20        1.93991   0.00018   0.00000   0.00005   0.00003   1.93995
   A21        1.93991   0.00018   0.00000   0.00005   0.00003   1.93995
   A22        1.87957  -0.00084   0.00000  -0.00316  -0.00319   1.87638
   A23        1.87957  -0.00084   0.00000  -0.00316  -0.00319   1.87638
   A24        1.88395  -0.00064   0.00000  -0.00774  -0.00774   1.87621
    D1        3.14159   0.00000   0.00000   0.00000   0.00000   3.14159
    D2       -1.02269   0.00052   0.00000   0.01005   0.01011  -1.01258
    D3        1.02269  -0.00052   0.00000  -0.01005  -0.01011   1.01258
    D4       -1.04963   0.00029   0.00000   0.00492   0.00493  -1.04471
    D5        1.06927   0.00081   0.00000   0.01496   0.01504   1.08431
    D6        3.11465  -0.00023   0.00000  -0.00513  -0.00519   3.10946
    D7        1.04963  -0.00029   0.00000  -0.00492  -0.00493   1.04471
    D8       -3.11465   0.00023   0.00000   0.00513   0.00519  -3.10946
    D9       -1.06927  -0.00081   0.00000  -0.01496  -0.01504  -1.08431
   D10        3.14159   0.00000   0.00000   0.00000   0.00000   3.14159
   D11       -1.02520   0.00111   0.00000   0.01683   0.01675  -1.00845
   D12        1.02520  -0.00111   0.00000  -0.01683  -0.01675   1.00845
   D13        1.02549  -0.00111   0.00000  -0.01698  -0.01690   1.00859
   D14       -3.14130   0.00000   0.00000  -0.00015  -0.00015  -3.14145
   D15       -1.09091  -0.00222   0.00000  -0.03381  -0.03365  -1.12456
   D16       -1.02549   0.00111   0.00000   0.01698   0.01690  -1.00859
   D17        1.09091   0.00222   0.00000   0.03381   0.03365   1.12456
   D18        3.14130   0.00000   0.00000   0.00015   0.00015   3.14145
   D19        3.14159   0.00000   0.00000   0.00000   0.00000   3.14159
   D20       -1.04940   0.00029   0.00000   0.00486   0.00487  -1.04453
   D21        1.04940  -0.00029   0.00000  -0.00486  -0.00487   1.04453
   D22        1.02169  -0.00047   0.00000  -0.00935  -0.00942   1.01227
   D23        3.11388  -0.00019   0.00000  -0.00448  -0.00455   3.10933
   D24       -1.07050  -0.00076   0.00000  -0.01421  -0.01428  -1.08479
   D25       -1.02169   0.00047   0.00000   0.00935   0.00942  -1.01227
   D26        1.07050   0.00076   0.00000   0.01421   0.01428   1.08479
   D27       -3.11388   0.00019   0.00000   0.00448   0.00455  -3.10933
         Item               Value     Threshold  Converged?
 Maximum Force            0.011568     0.000450     NO 
 RMS     Force            0.004477     0.000300     NO 
 Maximum Displacement     0.038313     0.001800     NO 
 RMS     Displacement     0.019392     0.001200     NO 
 Predicted change in Energy=-2.228676D-03
 GradGradGradGradGradGradGradGradGradGradGradGradGradGradGradGradGradGrad

                          Input orientation:                          
 ---------------------------------------------------------------------
 Center     Atomic      Atomic             Coordinates (Angstroms)
 Number     Number       Type             X           Y           Z
 ---------------------------------------------------------------------
      1          6           0        0.746471   -1.823966    0.000000
      2          6           0        0.710794   -0.289608    0.000000
      3          6           0       -0.710728    0.289783    0.000000
      4          6           0       -0.746666    1.824029    0.000000
      5          1           0        1.773379   -2.207308    0.000000
      6          1           0        0.242338   -2.231272    0.884253
      7          1           0        0.242338   -2.231272   -0.884253
      8          1           0        1.250959    0.088143    0.878826
      9          1           0        1.250959    0.088143   -0.878826
     10          1           0       -1.251140   -0.087985   -0.878726
     11          1           0       -1.251140   -0.087985    0.878726
     12          1           0       -1.773549    2.207372    0.000000
     13          1           0       -0.242449    2.231550    0.884171
     14          1           0       -0.242449    2.231550   -0.884171
 ---------------------------------------------------------------------
                    Distance matrix (angstroms):
                    1          2          3          4          5
     1  C    0.000000
     2  C    1.534772   0.000000
     3  C    2.567365   1.535062   0.000000
     4  C    3.941741   2.567421   1.534667   0.000000
     5  H    1.096125   2.192410   3.522250   4.754188   0.000000
     6  H    1.096336   2.184356   2.836539   4.266790   1.768209
     7  H    1.096336   2.184356   2.836539   4.266790   1.768209
     8  H    2.164025   1.098549   2.158983   2.788573   2.512838
     9  H    2.164025   1.098549   2.158983   2.788573   2.512838
    10  H    2.788591   2.159165   1.098596   2.163897   3.796235
    11  H    2.788591   2.159165   1.098596   2.163897   3.796235
    12  H    4.754175   3.522339   2.192427   1.096102   5.663047
    13  H    4.266958   2.836666   2.184378   1.096388   4.954673
    14  H    4.266958   2.836666   2.184378   1.096388   4.954673
                    6          7          8          9         10
     6  H    0.000000
     7  H    1.768506   0.000000
     8  H    2.529235   3.083091   0.000000
     9  H    3.083091   2.529235   1.757653   0.000000
    10  H    3.151547   2.612314   3.062761   2.508290   0.000000
    11  H    2.612314   3.151547   2.508290   3.062761   1.757451
    12  H    4.954519   4.954519   3.796197   3.796197   2.512714
    13  H    4.489075   4.824844   2.612372   3.151606   3.083100
    14  H    4.824844   4.489075   3.151606   2.612372   2.529374
                   11         12         13         14
    11  H    0.000000
    12  H    2.512714   0.000000
    13  H    2.529374   1.768223   0.000000
    14  H    3.083100   1.768223   1.768342   0.000000
 Stoichiometry    C4H10
 Framework group  CS[SG(C4H2),X(H8)]
 Deg. of freedom    21
 Full point group                 CS      NOp   2
 Largest Abelian subgroup         CS      NOp   2
 Largest concise Abelian subgroup CS      NOp   2
                         Standard orientation:                         
 ---------------------------------------------------------------------
 Center     Atomic      Atomic             Coordinates (Angstroms)
 Number     Number       Type             X           Y           Z
 ---------------------------------------------------------------------
      1          6           0       -1.407274   -1.379844    0.000000
      2          6           0        0.000091   -0.767597    0.000000
      3          6           0        0.000000    0.767466    0.000000
      4          6           0        1.407165    1.379913    0.000000
      5          1           0       -1.374604   -2.475482    0.000000
      6          1           0       -1.974752   -1.066766    0.884253
      7          1           0       -1.974752   -1.066766   -0.884253
      8          1           0        0.553803   -1.125198    0.878826
      9          1           0        0.553803   -1.125198   -0.878826
     10          1           0       -0.553819    1.125289   -0.878726
     11          1           0       -0.553819    1.125289    0.878726
     12          1           0        1.374503    2.475529    0.000000
     13          1           0        1.974873    1.066838    0.884171
     14          1           0        1.974873    1.066838   -0.884171
 ---------------------------------------------------------------------
 Rotational constants (GHZ):     23.4808248      3.5796766      3.3653072
 Standard basis: 6-31+G(d,p) (6D, 7F)
 There are    84 symmetry adapted basis functions of A'  symmetry.
 There are    42 symmetry adapted basis functions of A"  symmetry.
 Integral buffers will be    131072 words long.
 Raffenetti 2 integral format.
 Two-electron integral symmetry is turned on.
   126 basis functions,   198 primitive gaussians,   126 cartesian basis functions
    17 alpha electrons       17 beta electrons
       nuclear repulsion energy       130.0020586753 Hartrees.
 NAtoms=   14 NActive=   14 NUniq=   10 SFac= 1.47D+00 NAtFMM=   80 NAOKFM=F Big=F
 One-electron integrals computed using PRISM.
 NBasis=   126 RedAO= T  NBF=    84    42
 NBsUse=   126 1.00D-06 NBFU=    84    42
 Initial guess read from the read-write file.
 B after Tr=     0.000000    0.000000    0.000000
         Rot=    1.000000    0.000000    0.000000    0.000000 Ang=   0.00 deg.
 Initial guess orbital symmetries:
       Occupied  (A') (A') (A') (A') (A') (A') (A') (A') (A") (A')
                 (A') (A") (A') (A") (A') (A") (A')
       Virtual   (A') (A') (A') (A") (A') (A') (A") (A') (A") (A')
                 (A') (A") (A') (A') (A') (A") (A') (A") (A') (A")
                 (A') (A') (A') (A") (A') (A') (A') (A') (A') (A')
                 (A') (A") (A') (A") (A') (A") (A') (A') (A") (A')
                 (A') (A") (A") (A') (A") (A') (A') (A") (A') (A')
                 (A') (A') (A") (A') (A') (A') (A') (A') (A") (A")
                 (A") (A') (A') (A') (A') (A') (A") (A") (A") (A")
                 (A') (A") (A") (A') (A") (A') (A") (A") (A') (A")
                 (A') (A') (A") (A') (A') (A') (A') (A") (A') (A')
                 (A') (A") (A") (A') (A') (A') (A') (A') (A") (A')
                 (A") (A') (A') (A") (A") (A') (A') (A') (A')
 Harris functional with IExCor=  402 diagonalized for initial guess.
 ExpMin= 4.38D-02 ExpMax= 3.05D+03 ExpMxC= 4.57D+02 IAcc=2 IRadAn=         0 AccDes= 0.00D+00
 HarFok:  IExCor=  402 AccDes= 0.00D+00 IRadAn=         0 IDoV= 1
 ScaDFX=  1.000000  1.000000  1.000000  1.000000
 FoFCou: FMM=F IPFlag=           0 FMFlag=      100000 FMFlg1=           0
         NFxFlg=           0 DoJE=T BraDBF=F KetDBF=T FulRan=T
         Omega=  0.000000  0.000000  1.000000  0.000000  0.000000 ICntrl=     500 IOpCl=  0
         NMat0=    1 NMatS0=    1 NMatT0=    0 NMatD0=    1 NMtDS0=    0 NMtDT0=    0
         I1Cent=           4 NGrid=           0.
 Petite list used in FoFCou.
 Requested convergence on RMS density matrix=1.00D-08 within 128 cycles.
 Requested convergence on MAX density matrix=1.00D-06.
 Requested convergence on             energy=1.00D-06.
 No special actions if energy rises.
 Keep R1 ints in memory in canonical form, NReq=33224573.
 SCF Done:  E(RB3LYP) =  -158.476570725     A.U. after    9 cycles
             Convg  =    0.2413D-08             -V/T =  2.0107
 Calling FoFJK, ICntrl=      2127 FMM=F ISym2X=1 I1Cent= 0 IOpClX= 0 NMat=1 NMatS=1 NMatT=0.
 ***** Axes restored to original set *****
 -------------------------------------------------------------------
 Center     Atomic                   Forces (Hartrees/Bohr)
 Number     Number              X              Y              Z
 -------------------------------------------------------------------
      1        6          -0.000208611    0.000458152    0.000000000
      2        6           0.000047096   -0.000557642    0.000000000
      3        6          -0.000151490    0.000505708    0.000000000
      4        6           0.000296614   -0.000362234    0.000000000
      5        1          -0.000145436    0.000770575    0.000000000
      6        1          -0.000233324   -0.000034030    0.000128024
      7        1          -0.000233324   -0.000034030   -0.000128024
      8        1           0.000436077    0.000174312    0.000054635
      9        1           0.000436077    0.000174312   -0.000054635
     10        1          -0.000395318   -0.000169683   -0.000055134
     11        1          -0.000395318   -0.000169683    0.000055134
     12        1           0.000130880   -0.000777193    0.000000000
     13        1           0.000208038    0.000010718    0.000122013
     14        1           0.000208038    0.000010718   -0.000122013
 -------------------------------------------------------------------
 Cartesian Forces:  Max     0.000777193 RMS     0.000283868

 GradGradGradGradGradGradGradGradGradGradGradGradGradGradGradGradGradGrad
 Berny optimization.
 Using GEDIIS/GDIIS optimizer.
 Internal  Forces:  Max     0.001187589 RMS     0.000376651
 Search for a local minimum.
 Step number   2 out of a maximum of   74
 All quantities printed in internal units (Hartrees-Bohrs-Radians)
 Mixed Optimization -- En-DIIS/RFO-DIIS
 Update second derivatives using D2CorX and points    1    2
 DE= -2.15D-03 DEPred=-2.23D-03 R= 9.65D-01
 SS=  1.41D+00  RLast= 1.39D-01 DXNew= 5.0454D-01 4.1763D-01
 Trust test= 9.65D-01 RLast= 1.39D-01 DXMaxT set to 4.18D-01
 Use linear search instead of GDIIS.
     Eigenvalues ---    0.00282   0.00301   0.00301   0.03384   0.03386
     Eigenvalues ---    0.04756   0.04762   0.05373   0.05375   0.05450
     Eigenvalues ---    0.05462   0.08452   0.08465   0.12297   0.12299
     Eigenvalues ---    0.15991   0.16000   0.16000   0.16000   0.16000
     Eigenvalues ---    0.16171   0.21914   0.22436   0.28510   0.28834
     Eigenvalues ---    0.28954   0.31770   0.31955   0.31976   0.32005
     Eigenvalues ---    0.32092   0.32139   0.32169   0.32190   0.32208
     Eigenvalues ---    0.332251000.000001000.000001000.000001000.00000
     Eigenvalues --- 1000.000001000.000001000.000001000.000001000.00000
     Eigenvalues --- 1000.000001000.000001000.000001000.000001000.00000
     Eigenvalues --- 1000.000001000.000001000.000001000.000001000.00000
     Eigenvalues --- 1000.000001000.000001000.000001000.000001000.00000
     Eigenvalues --- 1000.000001000.000001000.000001000.00000
 RFO step:  Lambda=-3.73037934D-05 EMin= 2.82142059D-03
 Quartic linear search produced a step of -0.02701.
 Iteration  1 RMS(Cart)=  0.00385963 RMS(Int)=  0.00000430
 Iteration  2 RMS(Cart)=  0.00000330 RMS(Int)=  0.00000211
 Iteration  3 RMS(Cart)=  0.00000000 RMS(Int)=  0.00000211
 ClnCor:  largest displacement from symmetrization is 2.77D-12 for atom    14.
 Variable       Old X    -DE/DX   Delta X   Delta X   Delta X     New X
                                 (Linear)    (Quad)   (Total)
    R1        2.90030  -0.00119   0.00002  -0.00401  -0.00400   2.89630
    R2        2.07138  -0.00040   0.00096  -0.00251  -0.00155   2.06983
    R3        2.07177   0.00022   0.00089  -0.00053   0.00036   2.07214
    R4        2.07177   0.00022   0.00089  -0.00053   0.00036   2.07214
    R5        2.90085  -0.00025   0.00008  -0.00095  -0.00088   2.89997
    R6        2.07596   0.00032   0.00087  -0.00020   0.00067   2.07663
    R7        2.07596   0.00032   0.00087  -0.00020   0.00067   2.07663
    R8        2.90010  -0.00115   0.00002  -0.00388  -0.00386   2.89624
    R9        2.07604   0.00030   0.00090  -0.00030   0.00060   2.07665
   R10        2.07604   0.00030   0.00090  -0.00030   0.00060   2.07665
   R11        2.07133  -0.00039   0.00091  -0.00241  -0.00149   2.06984
   R12        2.07187   0.00019   0.00090  -0.00062   0.00028   2.07215
   R13        2.07187   0.00019   0.00090  -0.00062   0.00028   2.07215
    A1        1.95132  -0.00095  -0.00038  -0.00552  -0.00590   1.94542
    A2        1.93984   0.00009  -0.00001   0.00073   0.00071   1.94056
    A3        1.93984   0.00009  -0.00001   0.00073   0.00071   1.94056
    A4        1.87640   0.00043   0.00010   0.00220   0.00230   1.87870
    A5        1.87640   0.00043   0.00010   0.00220   0.00230   1.87870
    A6        1.87660  -0.00004   0.00022  -0.00004   0.00018   1.87678
    A7        1.98107  -0.00092  -0.00080  -0.00261  -0.00341   1.97766
    A8        1.90958   0.00026  -0.00007   0.00101   0.00094   1.91052
    A9        1.90958   0.00026  -0.00007   0.00101   0.00094   1.91052
   A10        1.90239   0.00038   0.00025   0.00201   0.00227   1.90466
   A11        1.90239   0.00038   0.00025   0.00201   0.00227   1.90466
   A12        1.85455  -0.00032   0.00052  -0.00352  -0.00299   1.85156
   A13        1.98124  -0.00094  -0.00079  -0.00276  -0.00354   1.97770
   A14        1.90259   0.00037   0.00026   0.00181   0.00208   1.90467
   A15        1.90259   0.00037   0.00026   0.00181   0.00208   1.90467
   A16        1.90948   0.00027  -0.00009   0.00113   0.00104   1.91053
   A17        1.90948   0.00027  -0.00009   0.00113   0.00104   1.91053
   A18        1.85413  -0.00031   0.00050  -0.00317  -0.00266   1.85147
   A19        1.95150  -0.00096  -0.00036  -0.00570  -0.00606   1.94544
   A20        1.93995   0.00008   0.00000   0.00067   0.00066   1.94061
   A21        1.93995   0.00008   0.00000   0.00067   0.00066   1.94061
   A22        1.87638   0.00043   0.00009   0.00221   0.00230   1.87868
   A23        1.87638   0.00043   0.00009   0.00221   0.00230   1.87868
   A24        1.87621  -0.00002   0.00021   0.00025   0.00046   1.87667
    D1        3.14159   0.00000   0.00000   0.00000   0.00000   3.14159
    D2       -1.01258   0.00005  -0.00027   0.00154   0.00126  -1.01131
    D3        1.01258  -0.00005   0.00027  -0.00154  -0.00126   1.01131
    D4       -1.04471  -0.00004  -0.00013  -0.00046  -0.00059  -1.04530
    D5        1.08431   0.00001  -0.00041   0.00108   0.00067   1.08498
    D6        3.10946  -0.00008   0.00014  -0.00200  -0.00186   3.10761
    D7        1.04471   0.00004   0.00013   0.00046   0.00059   1.04530
    D8       -3.10946   0.00008  -0.00014   0.00200   0.00186  -3.10761
    D9       -1.08431  -0.00001   0.00041  -0.00108  -0.00067  -1.08498
   D10        3.14159   0.00000   0.00000   0.00000   0.00000   3.14159
   D11       -1.00845  -0.00002  -0.00045   0.00090   0.00045  -1.00800
   D12        1.00845   0.00002   0.00045  -0.00090  -0.00045   1.00800
   D13        1.00859   0.00002   0.00046  -0.00100  -0.00054   1.00805
   D14       -3.14145   0.00000   0.00000  -0.00010  -0.00010  -3.14155
   D15       -1.12456   0.00004   0.00091  -0.00189  -0.00099  -1.12555
   D16       -1.00859  -0.00002  -0.00046   0.00100   0.00054  -1.00805
   D17        1.12456  -0.00004  -0.00091   0.00189   0.00099   1.12555
   D18        3.14145   0.00000   0.00000   0.00010   0.00010   3.14155
   D19        3.14159   0.00000   0.00000   0.00000   0.00000   3.14159
   D20       -1.04453  -0.00004  -0.00013  -0.00060  -0.00073  -1.04527
   D21        1.04453   0.00004   0.00013   0.00060   0.00073   1.04527
   D22        1.01227  -0.00003   0.00025  -0.00127  -0.00101   1.01126
   D23        3.10933  -0.00008   0.00012  -0.00187  -0.00174   3.10759
   D24       -1.08479   0.00001   0.00039  -0.00067  -0.00028  -1.08506
   D25       -1.01227   0.00003  -0.00025   0.00127   0.00101  -1.01126
   D26        1.08479  -0.00001  -0.00039   0.00067   0.00028   1.08506
   D27       -3.10933   0.00008  -0.00012   0.00187   0.00174  -3.10759
         Item               Value     Threshold  Converged?
 Maximum Force            0.001188     0.000450     NO 
 RMS     Force            0.000377     0.000300     NO 
 Maximum Displacement     0.014619     0.001800     NO 
 RMS     Displacement     0.003860     0.001200     NO 
 Predicted change in Energy=-2.033148D-05
 GradGradGradGradGradGradGradGradGradGradGradGradGradGradGradGradGradGrad

                          Input orientation:                          
 ---------------------------------------------------------------------
 Center     Atomic      Atomic             Coordinates (Angstroms)
 Number     Number       Type             X           Y           Z
 ---------------------------------------------------------------------
      1          6           0        0.743792   -1.820701    0.000000
      2          6           0        0.710963   -0.288396    0.000000
      3          6           0       -0.711045    0.288570    0.000000
      4          6           0       -0.743933    1.820843    0.000000
      5          1           0        1.771486   -2.199572    0.000000
      6          1           0        0.239508   -2.227872    0.884466
      7          1           0        0.239508   -2.227872   -0.884466
      8          1           0        1.252899    0.089487    0.878123
      9          1           0        1.252899    0.089487   -0.878123
     10          1           0       -1.253016   -0.089342   -0.878101
     11          1           0       -1.253016   -0.089342    0.878101
     12          1           0       -1.771639    2.199700    0.000000
     13          1           0       -0.239644    2.228093    0.884439
     14          1           0       -0.239644    2.228093   -0.884439
 ---------------------------------------------------------------------
                    Distance matrix (angstroms):
                    1          2          3          4          5
     1  C    0.000000
     2  C    1.532657   0.000000
     3  C    2.562338   1.534599   0.000000
     4  C    3.933722   2.562344   1.532626   0.000000
     5  H    1.095307   2.185705   3.514799   4.742475   0.000000
     6  H    1.096527   2.183144   2.831662   4.259288   1.769192
     7  H    1.096527   2.183144   2.831662   4.259288   1.769192
     8  H    2.163125   1.098905   2.160512   2.784966   2.505957
     9  H    2.163125   1.098905   2.160512   2.784966   2.505957
    10  H    2.784943   2.160531   1.098913   2.163107   3.791008
    11  H    2.784943   2.160531   1.098913   2.163107   3.791008
    12  H    4.742469   3.514815   2.185698   1.095313   5.648657
    13  H    4.259356   2.831714   2.183163   1.096537   4.942782
    14  H    4.259356   2.831714   2.183163   1.096537   4.942782
                    6          7          8          9         10
     6  H    0.000000
     7  H    1.768932   0.000000
     8  H    2.529260   3.082829   0.000000
     9  H    3.082829   2.529260   1.756247   0.000000
    10  H    3.147631   2.607869   3.065275   2.512288   0.000000
    11  H    2.607869   3.147631   2.512288   3.065275   1.756202
    12  H    4.942710   4.942710   3.791033   3.791033   2.505941
    13  H    4.481653   4.818116   2.607943   3.147690   3.082852
    14  H    4.818116   4.481653   3.147690   2.607943   2.529321
                   11         12         13         14
    11  H    0.000000
    12  H    2.505941   0.000000
    13  H    2.529321   1.769193   0.000000
    14  H    3.082852   1.769193   1.768879   0.000000
 Stoichiometry    C4H10
 Framework group  CS[SG(C4H2),X(H8)]
 Deg. of freedom    21
 Full point group                 CS      NOp   2
 Largest Abelian subgroup         CS      NOp   2
 Largest concise Abelian subgroup CS      NOp   2
                         Standard orientation:                         
 ---------------------------------------------------------------------
 Center     Atomic      Atomic             Coordinates (Angstroms)
 Number     Number       Type             X           Y           Z
 ---------------------------------------------------------------------
      1          6           0       -1.407505   -1.373860    0.000000
      2          6           0        0.000025   -0.767314    0.000000
      3          6           0        0.000000    0.767285    0.000000
      4          6           0        1.407477    1.373875    0.000000
      5          1           0       -1.372177   -2.468598    0.000000
      6          1           0       -1.974404   -1.059669    0.884466
      7          1           0       -1.974404   -1.059669   -0.884466
      8          1           0        0.553941   -1.127407    0.878123
      9          1           0        0.553941   -1.127407   -0.878123
     10          1           0       -0.553956    1.127399   -0.878101
     11          1           0       -0.553956    1.127399    0.878101
     12          1           0        1.372132    2.468617    0.000000
     13          1           0        1.974451    1.059709    0.884439
     14          1           0        1.974451    1.059709   -0.884439
 ---------------------------------------------------------------------
 Rotational constants (GHZ):     23.4220323      3.5943504      3.3769187
 Standard basis: 6-31+G(d,p) (6D, 7F)
 There are    84 symmetry adapted basis functions of A'  symmetry.
 There are    42 symmetry adapted basis functions of A"  symmetry.
 Integral buffers will be    131072 words long.
 Raffenetti 2 integral format.
 Two-electron integral symmetry is turned on.
   126 basis functions,   198 primitive gaussians,   126 cartesian basis functions
    17 alpha electrons       17 beta electrons
       nuclear repulsion energy       130.1200695333 Hartrees.
 NAtoms=   14 NActive=   14 NUniq=   10 SFac= 1.47D+00 NAtFMM=   80 NAOKFM=F Big=F
 One-electron integrals computed using PRISM.
 NBasis=   126 RedAO= T  NBF=    84    42
 NBsUse=   126 1.00D-06 NBFU=    84    42
 Initial guess read from the read-write file.
 B after Tr=     0.000000    0.000000    0.000000
         Rot=    1.000000    0.000000    0.000000    0.000000 Ang=   0.00 deg.
 Initial guess orbital symmetries:
       Occupied  (A') (A') (A') (A') (A') (A') (A') (A') (A") (A')
                 (A') (A") (A') (A") (A') (A") (A')
       Virtual   (A') (A') (A') (A") (A') (A') (A") (A') (A") (A')
                 (A') (A") (A') (A') (A') (A") (A') (A') (A") (A")
                 (A') (A') (A") (A') (A') (A') (A') (A') (A') (A')
                 (A') (A") (A') (A") (A') (A') (A") (A') (A") (A')
                 (A') (A") (A") (A') (A") (A') (A') (A") (A') (A')
                 (A') (A') (A") (A') (A') (A') (A') (A') (A") (A")
                 (A") (A') (A') (A') (A') (A') (A") (A") (A") (A")
                 (A') (A") (A') (A") (A") (A") (A') (A") (A') (A")
                 (A') (A') (A") (A') (A') (A') (A') (A') (A") (A')
                 (A') (A") (A") (A') (A') (A') (A') (A') (A") (A')
                 (A") (A') (A') (A") (A") (A') (A') (A') (A')
 Requested convergence on RMS density matrix=1.00D-08 within 128 cycles.
 Requested convergence on MAX density matrix=1.00D-06.
 Requested convergence on             energy=1.00D-06.
 No special actions if energy rises.
 Keep R1 ints in memory in canonical form, NReq=33224573.
 SCF Done:  E(RB3LYP) =  -158.476589000     A.U. after    7 cycles
             Convg  =    0.9854D-08             -V/T =  2.0107
 Calling FoFJK, ICntrl=      2127 FMM=F ISym2X=1 I1Cent= 0 IOpClX= 0 NMat=1 NMatS=1 NMatT=0.
 ***** Axes restored to original set *****
 -------------------------------------------------------------------
 Center     Atomic                   Forces (Hartrees/Bohr)
 Number     Number              X              Y              Z
 -------------------------------------------------------------------
      1        6           0.000116605   -0.000057809    0.000000000
      2        6          -0.000319243   -0.000283351    0.000000000
      3        6           0.000305349    0.000265963    0.000000000
      4        6          -0.000108907    0.000086878    0.000000000
      5        1           0.000139941   -0.000094843    0.000000000
      6        1          -0.000063889   -0.000017897    0.000033921
      7        1          -0.000063889   -0.000017897   -0.000033921
      8        1           0.000056460    0.000088612    0.000072227
      9        1           0.000056460    0.000088612   -0.000072227
     10        1          -0.000049735   -0.000085174   -0.000072923
     11        1          -0.000049735   -0.000085174    0.000072923
     12        1          -0.000137232    0.000092003    0.000000000
     13        1           0.000058907    0.000010039    0.000034907
     14        1           0.000058907    0.000010039   -0.000034907
 -------------------------------------------------------------------
 Cartesian Forces:  Max     0.000319243 RMS     0.000111450

 GradGradGradGradGradGradGradGradGradGradGradGradGradGradGradGradGradGrad
 Berny optimization.
 Using GEDIIS/GDIIS optimizer.
 Internal  Forces:  Max     0.000233942 RMS     0.000077427
 Search for a local minimum.
 Step number   3 out of a maximum of   74
 All quantities printed in internal units (Hartrees-Bohrs-Radians)
 Mixed Optimization -- En-DIIS/RFO-DIIS
 Swaping is turned off.
 Update second derivatives using D2CorX and points    1    2    3
 DE= -1.83D-05 DEPred=-2.03D-05 R= 8.99D-01
 SS=  1.41D+00  RLast= 1.48D-02 DXNew= 7.0237D-01 4.4515D-02
 Trust test= 8.99D-01 RLast= 1.48D-02 DXMaxT set to 4.18D-01
     Eigenvalues ---    0.00282   0.00301   0.00301   0.03395   0.03396
     Eigenvalues ---    0.04562   0.04755   0.05409   0.05410   0.05447
     Eigenvalues ---    0.05500   0.08426   0.08494   0.12280   0.12280
     Eigenvalues ---    0.15910   0.16000   0.16000   0.16000   0.16001
     Eigenvalues ---    0.16069   0.21903   0.24258   0.28828   0.28953
     Eigenvalues ---    0.30816   0.31918   0.31955   0.31979   0.32005
     Eigenvalues ---    0.32129   0.32169   0.32187   0.32208   0.32337
     Eigenvalues ---    0.330841000.000001000.000001000.000001000.00000
     Eigenvalues --- 1000.000001000.000001000.000001000.000001000.00000
     Eigenvalues --- 1000.000001000.000001000.000001000.000001000.00000
     Eigenvalues --- 1000.000001000.000001000.000001000.000001000.00000
     Eigenvalues --- 1000.000001000.000001000.000001000.000001000.00000
     Eigenvalues --- 1000.000001000.000001000.000001000.00000
 En-DIIS/RFO-DIIS IScMMF=        0 using points:     3    2
 RFO step:  Lambda=-7.44342089D-07.
 DIIS coeffs:      0.89039      0.10961
 Iteration  1 RMS(Cart)=  0.00058585 RMS(Int)=  0.00000017
 Iteration  2 RMS(Cart)=  0.00000020 RMS(Int)=  0.00000011
 ClnCor:  largest displacement from symmetrization is 3.46D-11 for atom    11.
 Variable       Old X    -DE/DX   Delta X   Delta X   Delta X     New X
                                  (DIIS)     (GDIIS)  (Total)
    R1        2.89630   0.00018   0.00044   0.00003   0.00046   2.89677
    R2        2.06983   0.00017   0.00017   0.00029   0.00046   2.07029
    R3        2.07214   0.00006  -0.00004   0.00025   0.00021   2.07234
    R4        2.07214   0.00006  -0.00004   0.00025   0.00021   2.07234
    R5        2.89997   0.00005   0.00010   0.00005   0.00015   2.90012
    R6        2.07663   0.00012  -0.00007   0.00045   0.00037   2.07700
    R7        2.07663   0.00012  -0.00007   0.00045   0.00037   2.07700
    R8        2.89624   0.00019   0.00042   0.00008   0.00050   2.89674
    R9        2.07665   0.00011  -0.00007   0.00043   0.00036   2.07701
   R10        2.07665   0.00011  -0.00007   0.00043   0.00036   2.07701
   R11        2.06984   0.00016   0.00016   0.00029   0.00045   2.07029
   R12        2.07215   0.00006  -0.00003   0.00023   0.00020   2.07235
   R13        2.07215   0.00006  -0.00003   0.00023   0.00020   2.07235
    A1        1.94542   0.00006   0.00065  -0.00031   0.00034   1.94576
    A2        1.94056  -0.00002  -0.00008  -0.00010  -0.00017   1.94038
    A3        1.94056  -0.00002  -0.00008  -0.00010  -0.00017   1.94038
    A4        1.87870  -0.00001  -0.00025   0.00041   0.00016   1.87886
    A5        1.87870  -0.00001  -0.00025   0.00041   0.00016   1.87886
    A6        1.87678  -0.00001  -0.00002  -0.00029  -0.00031   1.87646
    A7        1.97766   0.00023   0.00037   0.00063   0.00100   1.97866
    A8        1.91052  -0.00004  -0.00010   0.00022   0.00012   1.91064
    A9        1.91052  -0.00004  -0.00010   0.00022   0.00012   1.91064
   A10        1.90466  -0.00009  -0.00025  -0.00014  -0.00039   1.90427
   A11        1.90466  -0.00009  -0.00025  -0.00014  -0.00039   1.90427
   A12        1.85156   0.00002   0.00033  -0.00090  -0.00057   1.85099
   A13        1.97770   0.00023   0.00039   0.00059   0.00098   1.97868
   A14        1.90467  -0.00009  -0.00023  -0.00018  -0.00041   1.90427
   A15        1.90467  -0.00009  -0.00023  -0.00018  -0.00041   1.90427
   A16        1.91053  -0.00004  -0.00011   0.00023   0.00012   1.91065
   A17        1.91053  -0.00004  -0.00011   0.00023   0.00012   1.91065
   A18        1.85147   0.00002   0.00029  -0.00080  -0.00050   1.85097
   A19        1.94544   0.00006   0.00066  -0.00034   0.00032   1.94577
   A20        1.94061  -0.00003  -0.00007  -0.00014  -0.00021   1.94040
   A21        1.94061  -0.00003  -0.00007  -0.00014  -0.00021   1.94040
   A22        1.87868   0.00000  -0.00025   0.00042   0.00017   1.87885
   A23        1.87868   0.00000  -0.00025   0.00042   0.00017   1.87885
   A24        1.87667   0.00000  -0.00005  -0.00019  -0.00024   1.87643
    D1        3.14159   0.00000   0.00000   0.00000   0.00000   3.14159
    D2       -1.01131   0.00001  -0.00014   0.00042   0.00028  -1.01104
    D3        1.01131  -0.00001   0.00014  -0.00042  -0.00028   1.01104
    D4       -1.04530   0.00002   0.00006   0.00025   0.00032  -1.04498
    D5        1.08498   0.00003  -0.00007   0.00067   0.00059   1.08557
    D6        3.10761   0.00001   0.00020  -0.00017   0.00004   3.10765
    D7        1.04530  -0.00002  -0.00006  -0.00025  -0.00032   1.04498
    D8       -3.10761  -0.00001  -0.00020   0.00017  -0.00004  -3.10765
    D9       -1.08498  -0.00003   0.00007  -0.00067  -0.00059  -1.08557
   D10        3.14159   0.00000   0.00000   0.00000   0.00000   3.14159
   D11       -1.00800   0.00004  -0.00005   0.00057   0.00052  -1.00748
   D12        1.00800  -0.00004   0.00005  -0.00057  -0.00052   1.00748
   D13        1.00805  -0.00004   0.00006  -0.00061  -0.00055   1.00749
   D14       -3.14155   0.00000   0.00001  -0.00004  -0.00003  -3.14158
   D15       -1.12555  -0.00008   0.00011  -0.00118  -0.00108  -1.12662
   D16       -1.00805   0.00004  -0.00006   0.00061   0.00055  -1.00749
   D17        1.12555   0.00008  -0.00011   0.00118   0.00108   1.12662
   D18        3.14155   0.00000  -0.00001   0.00004   0.00003   3.14158
   D19        3.14159   0.00000   0.00000   0.00000   0.00000   3.14159
   D20       -1.04527   0.00002   0.00008   0.00021   0.00029  -1.04498
   D21        1.04527  -0.00002  -0.00008  -0.00021  -0.00029   1.04498
   D22        1.01126  -0.00001   0.00011  -0.00035  -0.00024   1.01103
   D23        3.10759   0.00001   0.00019  -0.00014   0.00005   3.10764
   D24       -1.08506  -0.00003   0.00003  -0.00056  -0.00052  -1.08559
   D25       -1.01126   0.00001  -0.00011   0.00035   0.00024  -1.01103
   D26        1.08506   0.00003  -0.00003   0.00056   0.00052   1.08559
   D27       -3.10759  -0.00001  -0.00019   0.00014  -0.00005  -3.10764
         Item               Value     Threshold  Converged?
 Maximum Force            0.000234     0.000450     YES
 RMS     Force            0.000077     0.000300     YES
 Maximum Displacement     0.001495     0.001800     YES
 RMS     Displacement     0.000586     0.001200     YES
 Predicted change in Energy=-7.809960D-07
 Optimization completed.
    -- Stationary point found.
                           ----------------------------
                           !   Optimized Parameters   !
                           ! (Angstroms and Degrees)  !
 --------------------------                            --------------------------
 ! Name  Definition              Value          Derivative Info.                !
 --------------------------------------------------------------------------------
 ! R1    R(1,2)                  1.5327         -DE/DX =    0.0002              !
 ! R2    R(1,5)                  1.0953         -DE/DX =    0.0002              !
 ! R3    R(1,6)                  1.0965         -DE/DX =    0.0001              !
 ! R4    R(1,7)                  1.0965         -DE/DX =    0.0001              !
 ! R5    R(2,3)                  1.5346         -DE/DX =    0.0001              !
 ! R6    R(2,8)                  1.0989         -DE/DX =    0.0001              !
 ! R7    R(2,9)                  1.0989         -DE/DX =    0.0001              !
 ! R8    R(3,4)                  1.5326         -DE/DX =    0.0002              !
 ! R9    R(3,10)                 1.0989         -DE/DX =    0.0001              !
 ! R10   R(3,11)                 1.0989         -DE/DX =    0.0001              !
 ! R11   R(4,12)                 1.0953         -DE/DX =    0.0002              !
 ! R12   R(4,13)                 1.0965         -DE/DX =    0.0001              !
 ! R13   R(4,14)                 1.0965         -DE/DX =    0.0001              !
 ! A1    A(2,1,5)              111.4643         -DE/DX =    0.0001              !
 ! A2    A(2,1,6)              111.1857         -DE/DX =    0.0                 !
 ! A3    A(2,1,7)              111.1857         -DE/DX =    0.0                 !
 ! A4    A(5,1,6)              107.6415         -DE/DX =    0.0                 !
 ! A5    A(5,1,7)              107.6415         -DE/DX =    0.0                 !
 ! A6    A(6,1,7)              107.5315         -DE/DX =    0.0                 !
 ! A7    A(1,2,3)              113.3117         -DE/DX =    0.0002              !
 ! A8    A(1,2,8)              109.4649         -DE/DX =    0.0                 !
 ! A9    A(1,2,9)              109.4649         -DE/DX =    0.0                 !
 ! A10   A(3,2,8)              109.1288         -DE/DX =   -0.0001              !
 ! A11   A(3,2,9)              109.1288         -DE/DX =   -0.0001              !
 ! A12   A(8,2,9)              106.0865         -DE/DX =    0.0                 !
 ! A13   A(2,3,4)              113.314          -DE/DX =    0.0002              !
 ! A14   A(2,3,10)             109.1297         -DE/DX =   -0.0001              !
 ! A15   A(2,3,11)             109.1297         -DE/DX =   -0.0001              !
 ! A16   A(4,3,10)             109.4651         -DE/DX =    0.0                 !
 ! A17   A(4,3,11)             109.4651         -DE/DX =    0.0                 !
 ! A18   A(10,3,11)            106.0814         -DE/DX =    0.0                 !
 ! A19   A(3,4,12)             111.4657         -DE/DX =    0.0001              !
 ! A20   A(3,4,13)             111.1888         -DE/DX =    0.0                 !
 ! A21   A(3,4,14)             111.1888         -DE/DX =    0.0                 !
 ! A22   A(12,4,13)            107.6405         -DE/DX =    0.0                 !
 ! A23   A(12,4,14)            107.6405         -DE/DX =    0.0                 !
 ! A24   A(13,4,14)            107.5253         -DE/DX =    0.0                 !
 ! D1    D(5,1,2,3)            180.0            -DE/DX =    0.0                 !
 ! D2    D(5,1,2,8)            -57.944          -DE/DX =    0.0                 !
 ! D3    D(5,1,2,9)             57.944          -DE/DX =    0.0                 !
 ! D4    D(6,1,2,3)            -59.8911         -DE/DX =    0.0                 !
 ! D5    D(6,1,2,8)             62.1649         -DE/DX =    0.0                 !
 ! D6    D(6,1,2,9)            178.0529         -DE/DX =    0.0                 !
 ! D7    D(7,1,2,3)             59.8911         -DE/DX =    0.0                 !
 ! D8    D(7,1,2,8)           -178.0529         -DE/DX =    0.0                 !
 ! D9    D(7,1,2,9)            -62.1649         -DE/DX =    0.0                 !
 ! D10   D(1,2,3,4)            180.0            -DE/DX =    0.0                 !
 ! D11   D(1,2,3,10)           -57.7542         -DE/DX =    0.0                 !
 ! D12   D(1,2,3,11)            57.7542         -DE/DX =    0.0                 !
 ! D13   D(8,2,3,4)             57.7567         -DE/DX =    0.0                 !
 ! D14   D(8,2,3,10)          -179.9975         -DE/DX =    0.0                 !
 ! D15   D(8,2,3,11)           -64.4891         -DE/DX =   -0.0001              !
 ! D16   D(9,2,3,4)            -57.7567         -DE/DX =    0.0                 !
 ! D17   D(9,2,3,10)            64.4891         -DE/DX =    0.0001              !
 ! D18   D(9,2,3,11)           179.9975         -DE/DX =    0.0                 !
 ! D19   D(2,3,4,12)           180.0            -DE/DX =    0.0                 !
 ! D20   D(2,3,4,13)           -59.8893         -DE/DX =    0.0                 !
 ! D21   D(2,3,4,14)            59.8893         -DE/DX =    0.0                 !
 ! D22   D(10,3,4,12)           57.941          -DE/DX =    0.0                 !
 ! D23   D(10,3,4,13)          178.0517         -DE/DX =    0.0                 !
 ! D24   D(10,3,4,14)          -62.1696         -DE/DX =    0.0                 !
 ! D25   D(11,3,4,12)          -57.941          -DE/DX =    0.0                 !
 ! D26   D(11,3,4,13)           62.1696         -DE/DX =    0.0                 !
 ! D27   D(11,3,4,14)         -178.0517         -DE/DX =    0.0                 !
 --------------------------------------------------------------------------------
 GradGradGradGradGradGradGradGradGradGradGradGradGradGradGradGradGradGrad

                          Input orientation:                          
 ---------------------------------------------------------------------
 Center     Atomic      Atomic             Coordinates (Angstroms)
 Number     Number       Type             X           Y           Z
 ---------------------------------------------------------------------
      1          6           0        0.743792   -1.820701    0.000000
      2          6           0        0.710963   -0.288396    0.000000
      3          6           0       -0.711045    0.288570    0.000000
      4          6           0       -0.743933    1.820843    0.000000
      5          1           0        1.771486   -2.199572    0.000000
      6          1           0        0.239508   -2.227872    0.884466
      7          1           0        0.239508   -2.227872   -0.884466
      8          1           0        1.252899    0.089487    0.878123
      9          1           0        1.252899    0.089487   -0.878123
     10          1           0       -1.253016   -0.089342   -0.878101
     11          1           0       -1.253016   -0.089342    0.878101
     12          1           0       -1.771639    2.199700    0.000000
     13          1           0       -0.239644    2.228093    0.884439
     14          1           0       -0.239644    2.228093   -0.884439
 ---------------------------------------------------------------------
                    Distance matrix (angstroms):
                    1          2          3          4          5
     1  C    0.000000
     2  C    1.532657   0.000000
     3  C    2.562338   1.534599   0.000000
     4  C    3.933722   2.562344   1.532626   0.000000
     5  H    1.095307   2.185705   3.514799   4.742475   0.000000
     6  H    1.096527   2.183144   2.831662   4.259288   1.769192
     7  H    1.096527   2.183144   2.831662   4.259288   1.769192
     8  H    2.163125   1.098905   2.160512   2.784966   2.505957
     9  H    2.163125   1.098905   2.160512   2.784966   2.505957
    10  H    2.784943   2.160531   1.098913   2.163107   3.791008
    11  H    2.784943   2.160531   1.098913   2.163107   3.791008
    12  H    4.742469   3.514815   2.185698   1.095313   5.648657
    13  H    4.259356   2.831714   2.183163   1.096537   4.942782
    14  H    4.259356   2.831714   2.183163   1.096537   4.942782
                    6          7          8          9         10
     6  H    0.000000
     7  H    1.768932   0.000000
     8  H    2.529260   3.082829   0.000000
     9  H    3.082829   2.529260   1.756247   0.000000
    10  H    3.147631   2.607869   3.065275   2.512288   0.000000
    11  H    2.607869   3.147631   2.512288   3.065275   1.756202
    12  H    4.942710   4.942710   3.791033   3.791033   2.505941
    13  H    4.481653   4.818116   2.607943   3.147690   3.082852
    14  H    4.818116   4.481653   3.147690   2.607943   2.529321
                   11         12         13         14
    11  H    0.000000
    12  H    2.505941   0.000000
    13  H    2.529321   1.769193   0.000000
    14  H    3.082852   1.769193   1.768879   0.000000
 Stoichiometry    C4H10
 Framework group  CS[SG(C4H2),X(H8)]
 Deg. of freedom    21
 Full point group                 CS      NOp   2
 Largest Abelian subgroup         CS      NOp   2
 Largest concise Abelian subgroup CS      NOp   2
                         Standard orientation:                         
 ---------------------------------------------------------------------
 Center     Atomic      Atomic             Coordinates (Angstroms)
 Number     Number       Type             X           Y           Z
 ---------------------------------------------------------------------
      1          6           0       -1.407505   -1.373860    0.000000
      2          6           0        0.000025   -0.767314    0.000000
      3          6           0        0.000000    0.767285    0.000000
      4          6           0        1.407477    1.373875    0.000000
      5          1           0       -1.372177   -2.468598    0.000000
      6          1           0       -1.974404   -1.059669    0.884466
      7          1           0       -1.974404   -1.059669   -0.884466
      8          1           0        0.553941   -1.127407    0.878123
      9          1           0        0.553941   -1.127407   -0.878123
     10          1           0       -0.553956    1.127399   -0.878101
     11          1           0       -0.553956    1.127399    0.878101
     12          1           0        1.372132    2.468617    0.000000
     13          1           0        1.974451    1.059709    0.884439
     14          1           0        1.974451    1.059709   -0.884439
 ---------------------------------------------------------------------
 Rotational constants (GHZ):     23.4220323      3.5943504      3.3769187

 **********************************************************************

            Population analysis using the SCF density.

 **********************************************************************

 Orbital symmetries:
       Occupied  (A') (A') (A') (A') (A') (A') (A') (A') (A") (A')
                 (A') (A") (A') (A") (A') (A") (A')
       Virtual   (A') (A') (A') (A") (A') (A') (A") (A') (A") (A')
                 (A') (A") (A') (A') (A') (A") (A') (A') (A") (A")
                 (A') (A') (A") (A') (A') (A') (A') (A') (A') (A')
                 (A') (A") (A') (A") (A') (A') (A") (A') (A") (A')
                 (A') (A") (A") (A') (A") (A') (A') (A") (A') (A')
                 (A') (A') (A") (A') (A') (A') (A') (A') (A") (A")
                 (A") (A') (A') (A') (A') (A') (A") (A") (A") (A")
                 (A') (A") (A') (A") (A") (A") (A') (A") (A') (A")
                 (A') (A') (A") (A') (A') (A') (A') (A') (A") (A')
                 (A') (A") (A") (A') (A') (A') (A') (A') (A") (A')
                 (A") (A') (A') (A") (A") (A') (A') (A') (A')
 The electronic state is 1-A'.
 Alpha  occ. eigenvalues --  -10.18208 -10.18187 -10.17570 -10.17570  -0.79324
 Alpha  occ. eigenvalues --   -0.72398  -0.63134  -0.57659  -0.46782  -0.42594
 Alpha  occ. eigenvalues --   -0.41883  -0.41117  -0.36923  -0.35157  -0.33451
 Alpha  occ. eigenvalues --   -0.32362  -0.32328
 Alpha virt. eigenvalues --    0.01715   0.02141   0.03305   0.04005   0.05097
 Alpha virt. eigenvalues --    0.06914   0.07378   0.07812   0.08413   0.08433
 Alpha virt. eigenvalues --    0.10461   0.11235   0.13148   0.14840   0.15943
 Alpha virt. eigenvalues --    0.18948   0.19081   0.20546   0.20657   0.21668
 Alpha virt. eigenvalues --    0.23438   0.26456   0.27796   0.27849   0.28840
 Alpha virt. eigenvalues --    0.32491   0.34479   0.34951   0.35296   0.60840
 Alpha virt. eigenvalues --    0.62541   0.64239   0.64978   0.65809   0.69153
 Alpha virt. eigenvalues --    0.69206   0.69430   0.72086   0.77259   0.81010
 Alpha virt. eigenvalues --    0.84423   0.90232   0.94744   0.95650   0.96975
 Alpha virt. eigenvalues --    0.98086   1.00791   1.05658   1.07829   1.10520
 Alpha virt. eigenvalues --    1.10808   1.11372   1.29385   1.31391   1.36474
 Alpha virt. eigenvalues --    1.43879   1.47505   1.61284   1.63616   1.69287
 Alpha virt. eigenvalues --    1.69547   1.78334   1.84600   1.91260   1.93447
 Alpha virt. eigenvalues --    2.00745   2.04961   2.05052   2.10013   2.10184
 Alpha virt. eigenvalues --    2.11703   2.13101   2.14710   2.14819   2.24958
 Alpha virt. eigenvalues --    2.28163   2.28242   2.30185   2.34782   2.41085
 Alpha virt. eigenvalues --    2.44631   2.52716   2.54963   2.56084   2.68482
 Alpha virt. eigenvalues --    2.73344   2.75451   2.76372   2.77055   2.83700
 Alpha virt. eigenvalues --    2.86828   2.87867   2.90661   2.91286   2.95114
 Alpha virt. eigenvalues --    3.22541   3.25046   3.31972   3.34427   3.36764
 Alpha virt. eigenvalues --    3.42821   3.47236   3.49841   3.53756   3.58519
 Alpha virt. eigenvalues --    4.30079   4.45724   4.55871   4.69316
          Condensed to atoms (all electrons):
              1          2          3          4          5          6
     1  C    5.385764  -0.130745   0.137561  -0.089158   0.423465   0.450376
     2  C   -0.130745   5.782787  -0.096765   0.137581  -0.073235  -0.102274
     3  C    0.137561  -0.096765   5.782813  -0.130781   0.015067   0.012866
     4  C   -0.089158   0.137581  -0.130781   5.385810  -0.002623  -0.005191
     5  H    0.423465  -0.073235   0.015067  -0.002623   0.558905  -0.029193
     6  H    0.450376  -0.102274   0.012866  -0.005191  -0.029193   0.559132
     7  H    0.450376  -0.102274   0.012866  -0.005191  -0.029193  -0.031671
     8  H   -0.010901   0.362296  -0.017962  -0.018392  -0.003359  -0.005085
     9  H   -0.010901   0.362296  -0.017962  -0.018392  -0.003359   0.004823
    10  H   -0.018390  -0.017961   0.362296  -0.010906   0.000008  -0.000551
    11  H   -0.018390  -0.017961   0.362296  -0.010906   0.000008   0.003145
    12  H   -0.002622   0.015066  -0.073233   0.423464   0.000002   0.000000
    13  H   -0.005190   0.012865  -0.102274   0.450376   0.000000  -0.000002
    14  H   -0.005190   0.012865  -0.102274   0.450376   0.000000   0.000000
              7          8          9         10         11         12
     1  C    0.450376  -0.010901  -0.010901  -0.018390  -0.018390  -0.002622
     2  C   -0.102274   0.362296   0.362296  -0.017961  -0.017961   0.015066
     3  C    0.012866  -0.017962  -0.017962   0.362296   0.362296  -0.073233
     4  C   -0.005191  -0.018392  -0.018392  -0.010906  -0.010906   0.423464
     5  H   -0.029193  -0.003359  -0.003359   0.000008   0.000008   0.000002
     6  H   -0.031671  -0.005085   0.004823  -0.000551   0.003145   0.000000
     7  H    0.559132   0.004823  -0.005085   0.003145  -0.000551   0.000000
     8  H    0.004823   0.587863  -0.035778   0.005225  -0.006254   0.000008
     9  H   -0.005085  -0.035778   0.587863  -0.006254   0.005225   0.000008
    10  H    0.003145   0.005225  -0.006254   0.587872  -0.035784  -0.003359
    11  H   -0.000551  -0.006254   0.005225  -0.035784   0.587872  -0.003359
    12  H    0.000000   0.000008   0.000008  -0.003359  -0.003359   0.558905
    13  H    0.000000   0.003145  -0.000551   0.004824  -0.005086  -0.029193
    14  H   -0.000002  -0.000551   0.003145  -0.005086   0.004824  -0.029193
             13         14
     1  C   -0.005190  -0.005190
     2  C    0.012865   0.012865
     3  C   -0.102274  -0.102274
     4  C    0.450376   0.450376
     5  H    0.000000   0.000000
     6  H   -0.000002   0.000000
     7  H    0.000000  -0.000002
     8  H    0.003145  -0.000551
     9  H   -0.000551   0.003145
    10  H    0.004824  -0.005086
    11  H   -0.005086   0.004824
    12  H   -0.029193  -0.029193
    13  H    0.559142  -0.031678
    14  H   -0.031678   0.559142
 Mulliken atomic charges:
              1
     1  C   -0.556055
     2  C   -0.144542
     3  C   -0.144516
     4  C   -0.556068
     5  H    0.143506
     6  H    0.143623
     7  H    0.143623
     8  H    0.134922
     9  H    0.134922
    10  H    0.134919
    11  H    0.134919
    12  H    0.143505
    13  H    0.143621
    14  H    0.143621
 Sum of Mulliken atomic charges =   0.00000
 Mulliken charges with hydrogens summed into heavy atoms:
              1
     1  C   -0.125303
     2  C    0.125302
     3  C    0.125322
     4  C   -0.125321
 Sum of Mulliken charges with hydrogens summed into heavy atoms =   0.00000
 Electronic spatial extent (au):  <R**2>=            429.1478
 Charge=              0.0000 electrons
 Dipole moment (field-independent basis, Debye):
    X=              0.0000    Y=              0.0000    Z=              0.0000  Tot=              0.0000
 Quadrupole moment (field-independent basis, Debye-Ang):
   XX=            -29.6662   YY=            -29.0359   ZZ=            -28.3431
   XY=             -0.3291   XZ=              0.0000   YZ=              0.0000
 Traceless Quadrupole moment (field-independent basis, Debye-Ang):
   XX=             -0.6512   YY=             -0.0208   ZZ=              0.6720
   XY=             -0.3291   XZ=              0.0000   YZ=              0.0000
 Octapole moment (field-independent basis, Debye-Ang**2):
  XXX=              0.0008  YYY=              0.0000  ZZZ=              0.0000  XYY=             -0.0001
  XXY=              0.0003  XXZ=              0.0000  XZZ=             -0.0003  YZZ=             -0.0004
  YYZ=              0.0000  XYZ=              0.0000
 Hexadecapole moment (field-independent basis, Debye-Ang**3):
 XXXX=           -268.5691 YYYY=           -288.8515 ZZZZ=            -61.0685 XXXY=            -96.2788
 XXXZ=              0.0000 YYYX=            -92.1274 YYYZ=              0.0000 ZZZX=              0.0000
 ZZZY=              0.0000 XXYY=            -96.9477 XXZZ=            -51.2172 YYZZ=            -60.7348
 XXYZ=              0.0000 YYXZ=              0.0000 ZZXY=            -31.6316
 N-N= 1.301200695333D+02 E-N=-6.254596175509D+02  KE= 1.568022847555D+02
 Symmetry A'   KE= 1.489965590017D+02
 Symmetry A"   KE= 7.805725753760D+00
 1\1\GINC-ROCK\FOpt\RB3LYP\6-31+G(d,p)\C4H10\STYLIANAKIS\27-Mar-2016\0\
 \# opt b3lyp/6-31+g(d,p)\\butane-a\\0,1\C,0.7437918599,-1.8207012368,0
 .\C,0.7109625001,-0.2883956264,0.\C,-0.7110447508,0.2885700698,0.\C,-0
 .7439331598,1.8208430869,0.\H,1.7714858787,-2.1995719557,0.\H,0.239507
 5566,-2.22787207,0.8844660932\H,0.2395075566,-2.22787207,-0.8844660932
 \H,1.252899327,0.0894865744,0.8781234792\H,1.252899327,0.0894865744,-0
 .8781234792\H,-1.2530155269,-0.0893416171,-0.8781008679\H,-1.253015526
 9,-0.0893416171,0.8781008679\H,-1.771638519,2.1996996019,0.\H,-0.23964
 44211,2.2280934025,0.8844392639\H,-0.2396444211,2.2280934025,-0.884439
 2639\\Version=EM64L-G09RevA.01\State=1-A'\HF=-158.476589\RMSD=9.854e-0
 9\RMSF=1.115e-04\Dipole=0.0000054,-0.0000002,0.\Quadrupole=0.0887836,-
 0.5883635,0.4995799,0.012224,0.,0.\PG=CS [SG(C4H2),X(H8)]\\@


 MATERIAL COPIED FROM ONE SCHOLARLY BOOK WITHOUT CREDIT COMPRISES PLAGIARISM.
 MATERIAL COPIED FROM TWO SCHOLARLY BOOKS COMPRISES AN ESSAY.
 MATERIAL COPIED FROM THREE SCHOLARLY BOOKS COMPRISES A DISSERTATION.
 MATERIAL COPIED FROM FOUR SCHOLARLY BOOKS COMPRISES A FIFTH SCHOLARLY BOOK.

                               -- C&EN, 25 FEB 1980
 Job cpu time:  0 days  0 hours  3 minutes 56.3 seconds.
 File lengths (MBytes):  RWF=     14 Int=      0 D2E=      0 Chk=      2 Scr=      1
 Normal termination of Gaussian 09 at Sun Mar 27 11:39:35 2016.
