 Entering Gaussian System, Link 0=g09
 Input=cyclohexane-chair.gjf
 Output=cyclohexane-chair.out
 Initial command:
 /usr/local/g09/l1.exe /home/scratch/stylianakis/Gau-19564.inp -scrdir=/home/scratch/stylianakis/
 Entering Link 1 = /usr/local/g09/l1.exe PID=     19565.
  
 Copyright (c) 1988,1990,1992,1993,1995,1998,2003,2009, Gaussian, Inc.
                  All Rights Reserved.
  
 This is part of the Gaussian(R) 09 program.  It is based on
 the Gaussian(R) 03 system (copyright 2003, Gaussian, Inc.),
 the Gaussian(R) 98 system (copyright 1998, Gaussian, Inc.),
 the Gaussian(R) 94 system (copyright 1995, Gaussian, Inc.),
 the Gaussian 92(TM) system (copyright 1992, Gaussian, Inc.),
 the Gaussian 90(TM) system (copyright 1990, Gaussian, Inc.),
 the Gaussian 88(TM) system (copyright 1988, Gaussian, Inc.),
 the Gaussian 86(TM) system (copyright 1986, Carnegie Mellon
 University), and the Gaussian 82(TM) system (copyright 1983,
 Carnegie Mellon University). Gaussian is a federally registered
 trademark of Gaussian, Inc.
  
 This software contains proprietary and confidential information,
 including trade secrets, belonging to Gaussian, Inc.
  
 This software is provided under written license and may be
 used, copied, transmitted, or stored only in accord with that
 written license.
  
 The following legend is applicable only to US Government
 contracts under FAR:
  
                    RESTRICTED RIGHTS LEGEND
  
 Use, reproduction and disclosure by the US Government is
 subject to restrictions as set forth in subparagraphs (a)
 and (c) of the Commercial Computer Software - Restricted
 Rights clause in FAR 52.227-19.
  
 Gaussian, Inc.
 340 Quinnipiac St., Bldg. 40, Wallingford CT 06492
  
  
 ---------------------------------------------------------------
 Warning -- This program may not be used in any manner that
 competes with the business of Gaussian, Inc. or will provide
 assistance to any competitor of Gaussian, Inc.  The licensee
 of this program is prohibited from giving any competitor of
 Gaussian, Inc. access to this program.  By using this program,
 the user acknowledges that Gaussian, Inc. is engaged in the
 business of creating and licensing software in the field of
 computational chemistry and represents and warrants to the
 licensee that it is not a competitor of Gaussian, Inc. and that
 it will not use this program in any manner prohibited above.
 ---------------------------------------------------------------
  

 Cite this work as:
 Gaussian 09, Revision A.01,
 M. J. Frisch, G. W. Trucks, H. B. Schlegel, G. E. Scuseria, 
 M. A. Robb, J. R. Cheeseman, G. Scalmani, V. Barone, B. Mennucci, 
 G. A. Petersson, H. Nakatsuji, M. Caricato, X. Li, H. P. Hratchian, 
 A. F. Izmaylov, J. Bloino, G. Zheng, J. L. Sonnenberg, M. Hada, 
 M. Ehara, K. Toyota, R. Fukuda, J. Hasegawa, M. Ishida, T. Nakajima, 
 Y. Honda, O. Kitao, H. Nakai, T. Vreven, J. A. Montgomery, Jr., 
 J. E. Peralta, F. Ogliaro, M. Bearpark, J. J. Heyd, E. Brothers, 
 K. N. Kudin, V. N. Staroverov, R. Kobayashi, J. Normand, 
 K. Raghavachari, A. Rendell, J. C. Burant, S. S. Iyengar, J. Tomasi, 
 M. Cossi, N. Rega, J. M. Millam, M. Klene, J. E. Knox, J. B. Cross, 
 V. Bakken, C. Adamo, J. Jaramillo, R. Gomperts, R. E. Stratmann, 
 O. Yazyev, A. J. Austin, R. Cammi, C. Pomelli, J. W. Ochterski, 
 R. L. Martin, K. Morokuma, V. G. Zakrzewski, G. A. Voth, 
 P. Salvador, J. J. Dannenberg, S. Dapprich, A. D. Daniels, 
 O. Farkas, J. B. Foresman, J. V. Ortiz, J. Cioslowski, 
 and D. J. Fox, Gaussian, Inc., Wallingford CT, 2009.
 
 ******************************************
 Gaussian 09:  EM64L-G09RevA.01  8-May-2009
                27-Mar-2016 
 ******************************************
 %mem=16000Mb
 %nproc=8
 Will use up to    8 processors via shared memory.
 -----------------------
 # opt b3lyp/6-31+g(d,p)
 -----------------------
 1/14=-1,18=20,19=15,26=3,38=1/1,3;
 2/9=110,12=2,17=6,18=5,40=1/2;
 3/5=1,6=6,7=111,11=2,16=1,25=1,30=1,71=1,74=-5/1,2,3;
 4//1;
 5/5=2,38=5/2;
 6/7=2,8=2,9=2,10=2,28=1/1;
 7//1,2,3,16;
 1/14=-1,18=20,19=15/3(2);
 2/9=110/2;
 99//99;
 2/9=110/2;
 3/5=1,6=6,7=111,11=2,16=1,25=1,30=1,71=1,74=-5/1,2,3;
 4/5=5,16=3/1;
 5/5=2,38=5/2;
 7//1,2,3,16;
 1/14=-1,18=20,19=15/3(-5);
 2/9=110/2;
 6/7=2,8=2,9=2,10=2,19=2,28=1/1;
 99/9=1/99;
 -----------------
 cyclohexane-chair
 -----------------
 Symbolic Z-matrix:
 Charge =  0 Multiplicity = 1
 C                    -1.08535  -0.76592  -0.65131 
 C                    -1.10435   0.76908  -0.61531 
 C                    -0.35535   1.29708   0.61669 
 C                     0.35565  -1.29692  -0.61731 
 C                     1.08565   0.76608   0.65169 
 C                     1.10365  -0.76892   0.61569 
 H                    -1.64935  -1.16592   0.22469 
 H                    -1.60335  -1.13192  -1.57031 
 H                    -0.62535   1.16808  -1.54131 
 H                    -0.34935   2.41308   0.60869 
 H                     0.34965  -2.41392  -0.60931 
 H                     1.64965   1.16508  -0.22431 
 H                     2.15865  -1.13692   0.60669 
 H                     0.62465  -1.16892   1.54069 
 H                    -0.89135   0.97808   1.54269 
 H                    -2.15835   1.13608  -0.60731 
 H                     1.60365   1.13208   1.57069 
 H                     0.89165  -0.97792  -1.54231 
 

 GradGradGradGradGradGradGradGradGradGradGradGradGradGradGradGradGradGrad
 Berny optimization.
 Initialization pass.
                           ----------------------------
                           !    Initial Parameters    !
                           ! (Angstroms and Degrees)  !
 --------------------------                            --------------------------
 ! Name  Definition              Value          Derivative Info.                !
 --------------------------------------------------------------------------------
 ! R1    R(1,2)                  1.5355         estimate D2E/DX2                !
 ! R2    R(1,4)                  1.5361         estimate D2E/DX2                !
 ! R3    R(1,7)                  1.116          estimate D2E/DX2                !
 ! R4    R(1,8)                  1.1166         estimate D2E/DX2                !
 ! R5    R(2,3)                  1.5355         estimate D2E/DX2                !
 ! R6    R(2,9)                  1.1163         estimate D2E/DX2                !
 ! R7    R(2,16)                 1.1161         estimate D2E/DX2                !
 ! R8    R(3,5)                  1.5361         estimate D2E/DX2                !
 ! R9    R(3,10)                 1.116          estimate D2E/DX2                !
 ! R10   R(3,15)                 1.1165         estimate D2E/DX2                !
 ! R11   R(4,6)                  1.5358         estimate D2E/DX2                !
 ! R12   R(4,11)                 1.117          estimate D2E/DX2                !
 ! R13   R(4,18)                 1.1157         estimate D2E/DX2                !
 ! R14   R(5,6)                  1.5355         estimate D2E/DX2                !
 ! R15   R(5,12)                 1.1156         estimate D2E/DX2                !
 ! R16   R(5,17)                 1.1166         estimate D2E/DX2                !
 ! R17   R(6,13)                 1.1174         estimate D2E/DX2                !
 ! R18   R(6,14)                 1.1158         estimate D2E/DX2                !
 ! A1    A(2,1,4)              110.8945         estimate D2E/DX2                !
 ! A2    A(2,1,7)              109.4898         estimate D2E/DX2                !
 ! A3    A(2,1,8)              109.9509         estimate D2E/DX2                !
 ! A4    A(4,1,7)              109.4396         estimate D2E/DX2                !
 ! A5    A(4,1,8)              109.8824         estimate D2E/DX2                !
 ! A6    A(7,1,8)              107.1035         estimate D2E/DX2                !
 ! A7    A(1,2,3)              110.8871         estimate D2E/DX2                !
 ! A8    A(1,2,9)              109.4236         estimate D2E/DX2                !
 ! A9    A(1,2,16)             109.9111         estimate D2E/DX2                !
 ! A10   A(3,2,9)              109.473          estimate D2E/DX2                !
 ! A11   A(3,2,16)             109.989          estimate D2E/DX2                !
 ! A12   A(9,2,16)             107.0759         estimate D2E/DX2                !
 ! A13   A(2,3,5)              110.9168         estimate D2E/DX2                !
 ! A14   A(2,3,10)             109.9214         estimate D2E/DX2                !
 ! A15   A(2,3,15)             109.4535         estimate D2E/DX2                !
 ! A16   A(5,3,10)             109.9245         estimate D2E/DX2                !
 ! A17   A(5,3,15)             109.432          estimate D2E/DX2                !
 ! A18   A(10,3,15)            107.1116         estimate D2E/DX2                !
 ! A19   A(1,4,6)              110.844          estimate D2E/DX2                !
 ! A20   A(1,4,11)             109.9248         estimate D2E/DX2                !
 ! A21   A(1,4,18)             109.4814         estimate D2E/DX2                !
 ! A22   A(6,4,11)             109.9168         estimate D2E/DX2                !
 ! A23   A(6,4,18)             109.4726         estimate D2E/DX2                !
 ! A24   A(11,4,18)            107.1238         estimate D2E/DX2                !
 ! A25   A(3,5,6)              110.8559         estimate D2E/DX2                !
 ! A26   A(3,5,12)             109.4336         estimate D2E/DX2                !
 ! A27   A(3,5,17)             109.9148         estimate D2E/DX2                !
 ! A28   A(6,5,12)             109.462          estimate D2E/DX2                !
 ! A29   A(6,5,17)             109.9695         estimate D2E/DX2                !
 ! A30   A(12,5,17)            107.1267         estimate D2E/DX2                !
 ! A31   A(4,6,5)              110.9037         estimate D2E/DX2                !
 ! A32   A(4,6,13)             109.8871         estimate D2E/DX2                !
 ! A33   A(4,6,14)             109.4647         estimate D2E/DX2                !
 ! A34   A(5,6,13)             109.9065         estimate D2E/DX2                !
 ! A35   A(5,6,14)             109.505          estimate D2E/DX2                !
 ! A36   A(13,6,14)            107.0933         estimate D2E/DX2                !
 ! D1    D(4,1,2,3)            -56.3508         estimate D2E/DX2                !
 ! D2    D(4,1,2,9)             64.5066         estimate D2E/DX2                !
 ! D3    D(4,1,2,16)          -178.1787         estimate D2E/DX2                !
 ! D4    D(7,1,2,3)             64.5132         estimate D2E/DX2                !
 ! D5    D(7,1,2,9)           -174.6294         estimate D2E/DX2                !
 ! D6    D(7,1,2,16)           -57.3147         estimate D2E/DX2                !
 ! D7    D(8,1,2,3)           -178.0762         estimate D2E/DX2                !
 ! D8    D(8,1,2,9)            -57.2188         estimate D2E/DX2                !
 ! D9    D(8,1,2,16)            60.0959         estimate D2E/DX2                !
 ! D10   D(2,1,4,6)             56.3828         estimate D2E/DX2                !
 ! D11   D(2,1,4,11)           178.1004         estimate D2E/DX2                !
 ! D12   D(2,1,4,18)           -64.4844         estimate D2E/DX2                !
 ! D13   D(7,1,4,6)            -64.5108         estimate D2E/DX2                !
 ! D14   D(7,1,4,11)            57.2068         estimate D2E/DX2                !
 ! D15   D(7,1,4,18)           174.6219         estimate D2E/DX2                !
 ! D16   D(8,1,4,6)            178.1483         estimate D2E/DX2                !
 ! D17   D(8,1,4,11)           -60.1341         estimate D2E/DX2                !
 ! D18   D(8,1,4,18)            57.2811         estimate D2E/DX2                !
 ! D19   D(1,2,3,5)             56.3244         estimate D2E/DX2                !
 ! D20   D(1,2,3,10)           178.0977         estimate D2E/DX2                !
 ! D21   D(1,2,3,15)           -64.5206         estimate D2E/DX2                !
 ! D22   D(9,2,3,5)            -64.5038         estimate D2E/DX2                !
 ! D23   D(9,2,3,10)            57.2695         estimate D2E/DX2                !
 ! D24   D(9,2,3,15)           174.6512         estimate D2E/DX2                !
 ! D25   D(16,2,3,5)           178.1067         estimate D2E/DX2                !
 ! D26   D(16,2,3,10)          -60.12           estimate D2E/DX2                !
 ! D27   D(16,2,3,15)           57.2617         estimate D2E/DX2                !
 ! D28   D(2,3,5,6)            -56.3292         estimate D2E/DX2                !
 ! D29   D(2,3,5,12)            64.5012         estimate D2E/DX2                !
 ! D30   D(2,3,5,17)          -178.1144         estimate D2E/DX2                !
 ! D31   D(10,3,5,6)          -178.1007         estimate D2E/DX2                !
 ! D32   D(10,3,5,12)          -57.2702         estimate D2E/DX2                !
 ! D33   D(10,3,5,17)           60.1142         estimate D2E/DX2                !
 ! D34   D(15,3,5,6)            64.5285         estimate D2E/DX2                !
 ! D35   D(15,3,5,12)         -174.6411         estimate D2E/DX2                !
 ! D36   D(15,3,5,17)          -57.2566         estimate D2E/DX2                !
 ! D37   D(1,4,6,5)            -56.4108         estimate D2E/DX2                !
 ! D38   D(1,4,6,13)          -178.1296         estimate D2E/DX2                !
 ! D39   D(1,4,6,14)            64.5242         estimate D2E/DX2                !
 ! D40   D(11,4,6,5)          -178.1331         estimate D2E/DX2                !
 ! D41   D(11,4,6,13)           60.148          estimate D2E/DX2                !
 ! D42   D(11,4,6,14)          -57.1982         estimate D2E/DX2                !
 ! D43   D(18,4,6,5)            64.4617         estimate D2E/DX2                !
 ! D44   D(18,4,6,13)          -57.2572         estimate D2E/DX2                !
 ! D45   D(18,4,6,14)         -174.6034         estimate D2E/DX2                !
 ! D46   D(3,5,6,4)             56.3784         estimate D2E/DX2                !
 ! D47   D(3,5,6,13)           178.086          estimate D2E/DX2                !
 ! D48   D(3,5,6,14)           -64.5328         estimate D2E/DX2                !
 ! D49   D(12,5,6,4)           -64.4351         estimate D2E/DX2                !
 ! D50   D(12,5,6,13)           57.2724         estimate D2E/DX2                !
 ! D51   D(12,5,6,14)          174.6537         estimate D2E/DX2                !
 ! D52   D(17,5,6,4)           178.1315         estimate D2E/DX2                !
 ! D53   D(17,5,6,13)          -60.161          estimate D2E/DX2                !
 ! D54   D(17,5,6,14)           57.2203         estimate D2E/DX2                !
 --------------------------------------------------------------------------------
 Trust Radius=3.00D-01 FncErr=1.00D-07 GrdErr=1.00D-06
 Number of steps in this run= 108 maximum allowed number of steps= 108.
 GradGradGradGradGradGradGradGradGradGradGradGradGradGradGradGradGradGrad

                          Input orientation:                          
 ---------------------------------------------------------------------
 Center     Atomic      Atomic             Coordinates (Angstroms)
 Number     Number       Type             X           Y           Z
 ---------------------------------------------------------------------
      1          6           0       -1.085354   -0.765917   -0.651313
      2          6           0       -1.104354    0.769083   -0.615313
      3          6           0       -0.355354    1.297083    0.616688
      4          6           0        0.355646   -1.296917   -0.617313
      5          6           0        1.085646    0.766083    0.651688
      6          6           0        1.103646   -0.768917    0.615688
      7          1           0       -1.649354   -1.165917    0.224688
      8          1           0       -1.603354   -1.131917   -1.570313
      9          1           0       -0.625354    1.168083   -1.541313
     10          1           0       -0.349354    2.413083    0.608688
     11          1           0        0.349646   -2.413917   -0.609313
     12          1           0        1.649646    1.165083   -0.224313
     13          1           0        2.158646   -1.136917    0.606688
     14          1           0        0.624646   -1.168917    1.540688
     15          1           0       -0.891354    0.978083    1.542688
     16          1           0       -2.158354    1.136083   -0.607313
     17          1           0        1.603646    1.132083    1.570688
     18          1           0        0.891646   -0.977917   -1.542313
 ---------------------------------------------------------------------
                    Distance matrix (angstroms):
                    1          2          3          4          5
     1  C    0.000000
     2  C    1.535540   0.000000
     3  C    2.529168   1.535451   0.000000
     4  C    1.536098   2.529814   2.959242   0.000000
     5  C    2.959404   2.530098   1.536121   2.529670   0.000000
     6  C    2.529233   2.959066   2.529237   1.535766   1.535528
     7  H    1.116007   2.178727   2.809710   2.178566   3.375674
     8  H    1.116620   2.185138   3.498645   2.184746   3.971197
     9  H    2.178085   1.116297   2.178648   2.809335   2.810405
    10  H    3.497905   2.184247   1.116045   3.970416   2.184876
    11  H    2.185610   3.499377   3.971350   1.117045   3.499174
    12  H    3.375102   2.809664   2.178240   2.808973   1.115649
    13  H    3.499106   3.971560   3.499236   2.185082   2.185123
    14  H    2.809159   3.375444   2.809863   2.178465   2.178776
    15  H    2.809414   2.178535   1.116482   3.375831   2.178842
    16  H    2.184232   1.116095   2.185156   3.498540   3.499360
    17  H    3.971197   3.499090   2.185182   3.499270   1.116620
    18  H    2.178842   2.809867   3.375191   1.115653   2.809414
                    6          7          8          9         10
     6  C    0.000000
     7  H    2.808825   0.000000
     8  H    3.498316   1.795911   0.000000
     9  H    3.375509   3.100788   2.499465   0.000000
    10  H    3.498054   3.827100   4.345985   2.499740   0.000000
    11  H    2.185215   2.499812   2.526114   3.827528   5.027132
    12  H    2.178089   4.064304   4.203562   2.628711   2.499479
    13  H    1.117376   3.827222   4.346493   4.204472   4.346558
    14  H    1.115825   2.627345   3.826705   4.064824   3.827274
    15  H    2.809157   2.628388   3.827507   3.101276   1.795925
    16  H    3.970566   2.500102   2.525711   1.795402   2.526236
    17  H    2.185366   4.204109   5.027567   3.828091   2.525988
    18  H    2.178437   3.100696   2.499905   2.628042   4.203066
                   11         12         13         14         15
    11  H    0.000000
    12  H    3.827201   0.000000
    13  H    2.526236   2.499769   0.000000
    14  H    2.499630   3.100549   1.796256   0.000000
    15  H    4.204384   3.100635   3.827770   2.628283   0.000000
    16  H    4.346558   3.827322   5.027605   4.203810   2.500551
    17  H    4.347302   1.795893   2.526991   2.500788   2.499905
    18  H    1.796204   2.627572   2.499754   3.100429   4.064757
                   16         17         18
    16  H    0.000000
    17  H    4.346993   0.000000
    18  H    3.826973   3.827507   0.000000
 Stoichiometry    C6H12
 Framework group  C1[X(C6H12)]
 Deg. of freedom    48
 Full point group                 C1      NOp   1
 Largest Abelian subgroup         C1      NOp   1
 Largest concise Abelian subgroup C1      NOp   1
                         Standard orientation:                         
 ---------------------------------------------------------------------
 Center     Atomic      Atomic             Coordinates (Angstroms)
 Number     Number       Type             X           Y           Z
 ---------------------------------------------------------------------
      1          6           0        1.090145    0.971577    0.237593
      2          6           0        1.386881   -0.458243   -0.237216
      3          6           0        0.296750   -1.429926    0.237186
      4          6           0       -0.296705    1.430009   -0.237889
      5          6           0       -1.090532   -0.971879   -0.237480
      6          6           0       -1.386386    0.457954    0.237800
      7          1           0        1.132130    1.010049    1.352146
      8          1           0        1.872805    1.670176   -0.144827
      9          1           0        1.441193   -0.475431   -1.352058
     10          1           0        0.509774   -2.456533   -0.145246
     11          1           0       -0.509922    2.457539    0.144877
     12          1           0       -1.132709   -1.009428   -1.351700
     13          1           0       -2.383118    0.787499   -0.144895
     14          1           0       -1.440459    0.476450    1.352161
     15          1           0        0.308074   -1.485819    1.352211
     16          1           0        2.382970   -0.786493    0.144526
     17          1           0       -1.873192   -1.670478    0.144939
     18          1           0       -0.308461    1.485517   -1.352099
 ---------------------------------------------------------------------
 Rotational constants (GHZ):      4.2821959      4.2815186      2.4584375
 Standard basis: 6-31+G(d,p) (6D, 7F)
 There are   174 symmetry adapted basis functions of A   symmetry.
 Integral buffers will be    131072 words long.
 Raffenetti 2 integral format.
 Two-electron integral symmetry is turned on.
   174 basis functions,   276 primitive gaussians,   174 cartesian basis functions
    24 alpha electrons       24 beta electrons
       nuclear repulsion energy       254.5255695347 Hartrees.
 NAtoms=   18 NActive=   18 NUniq=   18 SFac= 7.50D-01 NAtFMM=   80 NAOKFM=F Big=F
 One-electron integrals computed using PRISM.
 NBasis=   174 RedAO= T  NBF=   174
 NBsUse=   174 1.00D-06 NBFU=   174
 Harris functional with IExCor=  402 diagonalized for initial guess.
 ExpMin= 4.38D-02 ExpMax= 3.05D+03 ExpMxC= 4.57D+02 IAcc=2 IRadAn=         0 AccDes= 0.00D+00
 HarFok:  IExCor=  402 AccDes= 0.00D+00 IRadAn=         0 IDoV= 1
 ScaDFX=  1.000000  1.000000  1.000000  1.000000
 FoFCou: FMM=F IPFlag=           0 FMFlag=      100000 FMFlg1=           0
         NFxFlg=           0 DoJE=T BraDBF=F KetDBF=T FulRan=T
         Omega=  0.000000  0.000000  1.000000  0.000000  0.000000 ICntrl=     500 IOpCl=  0
         NMat0=    1 NMatS0=    1 NMatT0=    0 NMatD0=    1 NMtDS0=    0 NMtDT0=    0
         I1Cent=           4 NGrid=           0.
 Petite list used in FoFCou.
 Initial guess orbital symmetries:
       Occupied  (A) (A) (A) (A) (A) (A) (A) (A) (A) (A) (A) (A)
                 (A) (A) (A) (A) (A) (A) (A) (A) (A) (A) (A) (A)
       Virtual   (A) (A) (A) (A) (A) (A) (A) (A) (A) (A) (A) (A)
                 (A) (A) (A) (A) (A) (A) (A) (A) (A) (A) (A) (A)
                 (A) (A) (A) (A) (A) (A) (A) (A) (A) (A) (A) (A)
                 (A) (A) (A) (A) (A) (A) (A) (A) (A) (A) (A) (A)
                 (A) (A) (A) (A) (A) (A) (A) (A) (A) (A) (A) (A)
                 (A) (A) (A) (A) (A) (A) (A) (A) (A) (A) (A) (A)
                 (A) (A) (A) (A) (A) (A) (A) (A) (A) (A) (A) (A)
                 (A) (A) (A) (A) (A) (A) (A) (A) (A) (A) (A) (A)
                 (A) (A) (A) (A) (A) (A) (A) (A) (A) (A) (A) (A)
                 (A) (A) (A) (A) (A) (A) (A) (A) (A) (A) (A) (A)
                 (A) (A) (A) (A) (A) (A) (A) (A) (A) (A) (A) (A)
                 (A) (A) (A) (A) (A) (A) (A) (A) (A) (A) (A) (A)
                 (A) (A) (A) (A) (A) (A)
 The electronic state of the initial guess is 1-A.
 Requested convergence on RMS density matrix=1.00D-08 within 128 cycles.
 Requested convergence on MAX density matrix=1.00D-06.
 Requested convergence on             energy=1.00D-06.
 No special actions if energy rises.
 Keep R1 ints in memory in canonical form, NReq=118853695.
 SCF Done:  E(RB3LYP) =  -235.899792333     A.U. after   10 cycles
             Convg  =    0.4368D-08             -V/T =  2.0114

 **********************************************************************

            Population analysis using the SCF density.

 **********************************************************************

 Orbital symmetries:
       Occupied  (A) (A) (A) (A) (A) (A) (A) (A) (A) (A) (A) (A)
                 (A) (A) (A) (A) (A) (A) (A) (A) (A) (A) (A) (A)
       Virtual   (A) (A) (A) (A) (A) (A) (A) (A) (A) (A) (A) (A)
                 (A) (A) (A) (A) (A) (A) (A) (A) (A) (A) (A) (A)
                 (A) (A) (A) (A) (A) (A) (A) (A) (A) (A) (A) (A)
                 (A) (A) (A) (A) (A) (A) (A) (A) (A) (A) (A) (A)
                 (A) (A) (A) (A) (A) (A) (A) (A) (A) (A) (A) (A)
                 (A) (A) (A) (A) (A) (A) (A) (A) (A) (A) (A) (A)
                 (A) (A) (A) (A) (A) (A) (A) (A) (A) (A) (A) (A)
                 (A) (A) (A) (A) (A) (A) (A) (A) (A) (A) (A) (A)
                 (A) (A) (A) (A) (A) (A) (A) (A) (A) (A) (A) (A)
                 (A) (A) (A) (A) (A) (A) (A) (A) (A) (A) (A) (A)
                 (A) (A) (A) (A) (A) (A) (A) (A) (A) (A) (A) (A)
                 (A) (A) (A) (A) (A) (A) (A) (A) (A) (A) (A) (A)
                 (A) (A) (A) (A) (A) (A)
 The electronic state is 1-A.
 Alpha  occ. eigenvalues --  -10.18350 -10.18341 -10.18340 -10.18321 -10.18320
 Alpha  occ. eigenvalues --  -10.18308  -0.82644  -0.73553  -0.73544  -0.60012
 Alpha  occ. eigenvalues --   -0.60005  -0.54533  -0.47432  -0.43514  -0.43227
 Alpha  occ. eigenvalues --   -0.43225  -0.37399  -0.37391  -0.36921  -0.33935
 Alpha  occ. eigenvalues --   -0.33931  -0.31673  -0.29513  -0.29496
 Alpha virt. eigenvalues --    0.00587   0.02268   0.02346   0.02346   0.04493
 Alpha virt. eigenvalues --    0.04494   0.06668   0.06669   0.06899   0.09183
 Alpha virt. eigenvalues --    0.09515   0.09515   0.09579   0.10271   0.11014
 Alpha virt. eigenvalues --    0.11015   0.14335   0.14336   0.14553   0.15986
 Alpha virt. eigenvalues --    0.17042   0.17046   0.19105   0.19107   0.20895
 Alpha virt. eigenvalues --    0.22073   0.22075   0.23461   0.23480   0.25175
 Alpha virt. eigenvalues --    0.28101   0.28165   0.28171   0.31023   0.31526
 Alpha virt. eigenvalues --    0.31529   0.33976   0.36639   0.36648   0.40934
 Alpha virt. eigenvalues --    0.40937   0.41843   0.60701   0.61994   0.62751
 Alpha virt. eigenvalues --    0.64440   0.64451   0.66645   0.66653   0.69646
 Alpha virt. eigenvalues --    0.71823   0.71835   0.76731   0.76740   0.78387
 Alpha virt. eigenvalues --    0.78393   0.81318   0.81321   0.95417   0.95421
 Alpha virt. eigenvalues --    0.97358   0.97367   1.01431   1.01657   1.07271
 Alpha virt. eigenvalues --    1.08890   1.09227   1.09618   1.09621   1.12968
 Alpha virt. eigenvalues --    1.12972   1.16882   1.16886   1.27532   1.27538
 Alpha virt. eigenvalues --    1.39262   1.39270   1.45558   1.52479   1.60736
 Alpha virt. eigenvalues --    1.60743   1.61501   1.61564   1.71721   1.71731
 Alpha virt. eigenvalues --    1.80534   1.86934   1.86946   1.88195   1.88241
 Alpha virt. eigenvalues --    1.93716   1.96582   1.97304   1.97322   2.09510
 Alpha virt. eigenvalues --    2.10212   2.10228   2.13311   2.13320   2.13573
 Alpha virt. eigenvalues --    2.14856   2.14860   2.24480   2.32540   2.32674
 Alpha virt. eigenvalues --    2.32695   2.34840   2.34847   2.39317   2.45208
 Alpha virt. eigenvalues --    2.45213   2.45984   2.48974   2.48979   2.49200
 Alpha virt. eigenvalues --    2.55885   2.62002   2.62003   2.62341   2.62360
 Alpha virt. eigenvalues --    2.75466   2.75486   2.77961   2.80020   2.80033
 Alpha virt. eigenvalues --    2.83317   2.85960   2.85996   2.88199   2.89389
 Alpha virt. eigenvalues --    2.93525   2.93535   3.25452   3.29277   3.29695
 Alpha virt. eigenvalues --    3.29718   3.30623   3.30633   3.46327   3.48184
 Alpha virt. eigenvalues --    3.48193   3.52735   3.52752   3.58927   4.33139
 Alpha virt. eigenvalues --    4.45061   4.45073   4.72467   4.77839   4.77845
          Condensed to atoms (all electrons):
              1          2          3          4          5          6
     1  C    5.351425   0.268768  -0.162333   0.269058   0.068923  -0.162757
     2  C    0.268768   5.350462   0.268571  -0.162147  -0.161923   0.069212
     3  C   -0.162333   0.268571   5.350910   0.068789   0.269308  -0.162645
     4  C    0.269058  -0.162147   0.068789   5.350458  -0.162324   0.269112
     5  C    0.068923  -0.161923   0.269308  -0.162324   5.349868   0.269029
     6  C   -0.162757   0.069212  -0.162645   0.269112   0.269029   5.351142
     7  H    0.396691  -0.042935   0.002137  -0.043128  -0.008541   0.002133
     8  H    0.364999  -0.037461   0.019074  -0.037757  -0.003225   0.019168
     9  H   -0.043208   0.396902  -0.042971   0.002037   0.002007  -0.008475
    10  H    0.019138  -0.037646   0.364952  -0.003195  -0.037502   0.019063
    11  H   -0.037577   0.019090  -0.003243   0.365048   0.019157  -0.037648
    12  H   -0.008517   0.002094  -0.042981   0.002089   0.396739  -0.043083
    13  H    0.019170  -0.003285   0.019208  -0.037646  -0.037659   0.364934
    14  H    0.002111  -0.008513   0.002118  -0.043100  -0.042965   0.396705
    15  H    0.002081  -0.043059   0.396870  -0.008532  -0.043180   0.002135
    16  H   -0.037630   0.365028  -0.037354   0.019111   0.019010  -0.003256
    17  H   -0.003233   0.019115  -0.037736   0.019084   0.365127  -0.037470
    18  H   -0.042987   0.002144  -0.008523   0.396681   0.002118  -0.043033
              7          8          9         10         11         12
     1  C    0.396691   0.364999  -0.043208   0.019138  -0.037577  -0.008517
     2  C   -0.042935  -0.037461   0.396902  -0.037646   0.019090   0.002094
     3  C    0.002137   0.019074  -0.042971   0.364952  -0.003243  -0.042981
     4  C   -0.043128  -0.037757   0.002037  -0.003195   0.365048   0.002089
     5  C   -0.008541  -0.003225   0.002007  -0.037502   0.019157   0.396739
     6  C    0.002133   0.019168  -0.008475   0.019063  -0.037648  -0.043083
     7  H    0.583082  -0.030167   0.004738  -0.000008  -0.004381   0.000084
     8  H   -0.030167   0.590396  -0.004391  -0.000138  -0.002909  -0.000016
     9  H    0.004738  -0.004391   0.583228  -0.004388  -0.000007   0.002892
    10  H   -0.000008  -0.000138  -0.004388   0.590314   0.000011  -0.004384
    11  H   -0.004381  -0.002909  -0.000007   0.000011   0.590382  -0.000007
    12  H    0.000084  -0.000016   0.002892  -0.004384  -0.000007   0.583050
    13  H   -0.000007  -0.000138  -0.000016  -0.000138  -0.002917  -0.004392
    14  H    0.002890  -0.000007   0.000084  -0.000007  -0.004384   0.004737
    15  H    0.002891  -0.000008   0.004734  -0.030165  -0.000016   0.004736
    16  H   -0.004388  -0.002915  -0.030209  -0.002910  -0.000138  -0.000008
    17  H   -0.000016   0.000011  -0.000008  -0.002906  -0.000138  -0.030162
    18  H    0.004732  -0.004379   0.002891  -0.000016  -0.030156   0.002893
             13         14         15         16         17         18
     1  C    0.019170   0.002111   0.002081  -0.037630  -0.003233  -0.042987
     2  C   -0.003285  -0.008513  -0.043059   0.365028   0.019115   0.002144
     3  C    0.019208   0.002118   0.396870  -0.037354  -0.037736  -0.008523
     4  C   -0.037646  -0.043100  -0.008532   0.019111   0.019084   0.396681
     5  C   -0.037659  -0.042965  -0.043180   0.019010   0.365127   0.002118
     6  C    0.364934   0.396705   0.002135  -0.003256  -0.037470  -0.043033
     7  H   -0.000007   0.002890   0.002891  -0.004388  -0.000016   0.004732
     8  H   -0.000138  -0.000007  -0.000008  -0.002915   0.000011  -0.004379
     9  H   -0.000016   0.000084   0.004734  -0.030209  -0.000008   0.002891
    10  H   -0.000138  -0.000007  -0.030165  -0.002910  -0.002906  -0.000016
    11  H   -0.002917  -0.004384  -0.000016  -0.000138  -0.000138  -0.030156
    12  H   -0.004392   0.004737   0.004736  -0.000008  -0.030162   0.002893
    13  H    0.590534  -0.030147  -0.000008   0.000011  -0.002912  -0.004385
    14  H   -0.030147   0.582983   0.002888  -0.000017  -0.004375   0.004736
    15  H   -0.000008   0.002888   0.583199  -0.004388  -0.004383   0.000084
    16  H    0.000011  -0.000017  -0.004388   0.590188  -0.000138  -0.000008
    17  H   -0.002912  -0.004375  -0.004383  -0.000138   0.590214  -0.000008
    18  H   -0.004385   0.004736   0.000084  -0.000008  -0.000008   0.582985
 Mulliken atomic charges:
              1
     1  C   -0.264122
     2  C   -0.264417
     3  C   -0.264152
     4  C   -0.263637
     5  C   -0.263967
     6  C   -0.264266
     7  H    0.134193
     8  H    0.129863
     9  H    0.134161
    10  H    0.129926
    11  H    0.129832
    12  H    0.134236
    13  H    0.129793
    14  H    0.134262
    15  H    0.134120
    16  H    0.130011
    17  H    0.129932
    18  H    0.134231
 Sum of Mulliken atomic charges =   0.00000
 Mulliken charges with hydrogens summed into heavy atoms:
              1
     1  C   -0.000067
     2  C   -0.000245
     3  C   -0.000106
     4  C    0.000427
     5  C    0.000201
     6  C   -0.000210
 Sum of Mulliken charges with hydrogens summed into heavy atoms =   0.00000
 Electronic spatial extent (au):  <R**2>=            596.8352
 Charge=              0.0000 electrons
 Dipole moment (field-independent basis, Debye):
    X=              0.0014    Y=             -0.0012    Z=             -0.0009  Tot=              0.0020
 Quadrupole moment (field-independent basis, Debye-Ang):
   XX=            -41.3459   YY=            -41.3432   ZZ=            -40.3817
   XY=              0.0014   XZ=             -0.0010   YZ=              0.0018
 Traceless Quadrupole moment (field-independent basis, Debye-Ang):
   XX=             -0.3223   YY=             -0.3196   ZZ=              0.6419
   XY=              0.0014   XZ=             -0.0010   YZ=              0.0018
 Octapole moment (field-independent basis, Debye-Ang**2):
  XXX=              0.0311  YYY=             -0.0109  ZZZ=             -0.0034  XYY=             -0.0036
  XXY=             -0.0143  XXZ=             -0.0012  XZZ=             -0.0024  YZZ=              0.0031
  YYZ=             -0.0032  XYZ=              0.0004
 Hexadecapole moment (field-independent basis, Debye-Ang**3):
 XXXX=           -375.3929 YYYY=           -375.3108 ZZZZ=           -108.7706 XXXY=              0.0062
 XXXZ=              1.8550 YYYX=              0.0140 YYYZ=              2.6537 ZZZX=             -0.0003
 ZZZY=              0.0044 XXYY=           -125.1161 XXZZ=            -82.2571 YYZZ=            -82.2444
 XXYZ=             -2.6406 YYXZ=             -1.8646 ZZXY=              0.0011
 N-N= 2.545255695347D+02 E-N=-1.053324105457D+03  KE= 2.332444677352D+02
 Calling FoFJK, ICntrl=      2127 FMM=F ISym2X=0 I1Cent= 0 IOpClX= 0 NMat=1 NMatS=1 NMatT=0.
 ***** Axes restored to original set *****
 -------------------------------------------------------------------
 Center     Atomic                   Forces (Hartrees/Bohr)
 Number     Number              X              Y              Z
 -------------------------------------------------------------------
      1        6          -0.007684275   -0.006249984   -0.007189246
      2        6          -0.009916550    0.005614306   -0.003791612
      3        6          -0.001989703    0.011187686    0.003819083
      4        6           0.001704611   -0.011615231   -0.003139543
      5        6           0.007439450    0.005998973    0.007117990
      6        6           0.010892316   -0.006030033    0.003312099
      7        1           0.004644489    0.003315784   -0.008180585
      8        1           0.004159134    0.003018229    0.010265037
      9        1          -0.004796891   -0.003307067    0.008263465
     10        1          -0.000831099   -0.011061510    0.001477116
     11        1           0.000833879    0.011627153   -0.001473836
     12        1          -0.004515142   -0.003211272    0.008055100
     13        1          -0.011352873    0.003092581    0.001512041
     14        1           0.004714423    0.003312176   -0.008041649
     15        1           0.004808386    0.003447043   -0.008334469
     16        1           0.010736196   -0.002821551   -0.001360906
     17        1          -0.004212103   -0.003011057   -0.010276764
     18        1          -0.004634249   -0.003306226    0.007966678
 -------------------------------------------------------------------
 Cartesian Forces:  Max     0.011627153 RMS     0.006500998

 GradGradGradGradGradGradGradGradGradGradGradGradGradGradGradGradGradGrad
 Berny optimization.
 Internal  Forces:  Max     0.011754290 RMS     0.003621438
 Search for a local minimum.
 Step number   1 out of a maximum of  108
 All quantities printed in internal units (Hartrees-Bohrs-Radians)
 Mixed Optimization -- RFO/linear search
 Second derivative matrix not updated -- first step.
     Eigenvalues ---    0.00485   0.00489   0.00587   0.01858   0.01861
     Eigenvalues ---    0.03652   0.03958   0.03959   0.04259   0.04763
     Eigenvalues ---    0.04764   0.04833   0.05501   0.05502   0.05922
     Eigenvalues ---    0.06006   0.07931   0.07934   0.07991   0.07994
     Eigenvalues ---    0.08000   0.08001   0.08010   0.08012   0.11960
     Eigenvalues ---    0.11994   0.11996   0.15906   0.15909   0.21885
     Eigenvalues ---    0.27296   0.27700   0.27726   0.28866   0.28912
     Eigenvalues ---    0.28918   0.31831   0.31865   0.31909   0.31909
     Eigenvalues ---    0.31923   0.31942   0.31963   0.31968   0.31972
     Eigenvalues ---    0.31991   0.32009   0.320091000.000001000.00000
     Eigenvalues --- 1000.000001000.000001000.000001000.000001000.00000
     Eigenvalues --- 1000.000001000.000001000.000001000.000001000.00000
     Eigenvalues --- 1000.000001000.000001000.000001000.000001000.00000
     Eigenvalues --- 1000.000001000.000001000.000001000.000001000.00000
     Eigenvalues --- 1000.000001000.000001000.000001000.000001000.00000
     Eigenvalues --- 1000.000001000.000001000.000001000.000001000.00000
     Eigenvalues --- 1000.000001000.000001000.000001000.000001000.00000
     Eigenvalues --- 1000.000001000.000001000.000001000.000001000.00000
     Eigenvalues --- 1000.000001000.000001000.000001000.000001000.00000
     Eigenvalues --- 1000.000001000.000001000.000001000.000001000.00000
     Eigenvalues --- 1000.000001000.000001000.000001000.000001000.00000
     Eigenvalues --- 1000.000001000.000001000.00000
 RFO step:  Lambda=-5.03228669D-03 EMin= 4.84600987D-03
 Linear search not attempted -- first point.
 Iteration  1 RMS(Cart)=  0.01500903 RMS(Int)=  0.00013871
 Iteration  2 RMS(Cart)=  0.00015490 RMS(Int)=  0.00008732
 Iteration  3 RMS(Cart)=  0.00000001 RMS(Int)=  0.00008732
 Variable       Old X    -DE/DX   Delta X   Delta X   Delta X     New X
                                 (Linear)    (Quad)   (Total)
    R1        2.90175   0.00152   0.00000   0.00515   0.00515   2.90690
    R2        2.90281   0.00099   0.00000   0.00342   0.00342   2.90622
    R3        2.10895  -0.00995   0.00000  -0.03065  -0.03065   2.07829
    R4        2.11011  -0.01137   0.00000  -0.03507  -0.03507   2.07503
    R5        2.90158   0.00135   0.00000   0.00456   0.00456   2.90614
    R6        2.10949  -0.01009   0.00000  -0.03109  -0.03109   2.07841
    R7        2.10911  -0.01108   0.00000  -0.03413  -0.03413   2.07498
    R8        2.90285   0.00101   0.00000   0.00340   0.00340   2.90625
    R9        2.10902  -0.01107   0.00000  -0.03409  -0.03409   2.07493
   R10        2.10985  -0.01022   0.00000  -0.03151  -0.03151   2.07834
   R11        2.90218   0.00125   0.00000   0.00428   0.00428   2.90646
   R12        2.11091  -0.01164   0.00000  -0.03595  -0.03595   2.07496
   R13        2.10828  -0.00979   0.00000  -0.03011  -0.03011   2.07817
   R14        2.90173   0.00149   0.00000   0.00506   0.00507   2.90679
   R15        2.10827  -0.00975   0.00000  -0.03000  -0.03000   2.07827
   R16        2.11011  -0.01140   0.00000  -0.03517  -0.03517   2.07493
   R17        2.11154  -0.01175   0.00000  -0.03635  -0.03635   2.07518
   R18        2.10860  -0.00987   0.00000  -0.03037  -0.03037   2.07823
    A1        1.93547   0.00043   0.00000   0.01174   0.01148   1.94695
    A2        1.91096  -0.00045   0.00000  -0.00879  -0.00871   1.90225
    A3        1.91901   0.00040   0.00000   0.00751   0.00739   1.92640
    A4        1.91008  -0.00041   0.00000  -0.00813  -0.00804   1.90204
    A5        1.91781   0.00053   0.00000   0.00884   0.00873   1.92654
    A6        1.86931  -0.00053   0.00000  -0.01218  -0.01216   1.85715
    A7        1.93534   0.00053   0.00000   0.01202   0.01176   1.94710
    A8        1.90980  -0.00043   0.00000  -0.00799  -0.00789   1.90191
    A9        1.91831   0.00051   0.00000   0.00883   0.00873   1.92704
   A10        1.91066  -0.00050   0.00000  -0.00895  -0.00887   1.90180
   A11        1.91967   0.00033   0.00000   0.00690   0.00678   1.92645
   A12        1.86883  -0.00050   0.00000  -0.01183  -0.01182   1.85701
   A13        1.93586   0.00039   0.00000   0.01133   0.01107   1.94693
   A14        1.91849   0.00051   0.00000   0.00857   0.00847   1.92696
   A15        1.91032  -0.00043   0.00000  -0.00832  -0.00824   1.90208
   A16        1.91855   0.00042   0.00000   0.00764   0.00753   1.92607
   A17        1.90995  -0.00041   0.00000  -0.00831  -0.00823   1.90172
   A18        1.86945  -0.00053   0.00000  -0.01188  -0.01186   1.85759
   A19        1.93459   0.00059   0.00000   0.01257   0.01230   1.94689
   A20        1.91855   0.00037   0.00000   0.00751   0.00739   1.92594
   A21        1.91081  -0.00050   0.00000  -0.00896  -0.00887   1.90194
   A22        1.91841   0.00045   0.00000   0.00840   0.00828   1.92669
   A23        1.91066  -0.00048   0.00000  -0.00857  -0.00848   1.90218
   A24        1.86966  -0.00049   0.00000  -0.01194  -0.01193   1.85774
   A25        1.93480   0.00059   0.00000   0.01245   0.01220   1.94700
   A26        1.90998  -0.00044   0.00000  -0.00784  -0.00776   1.90222
   A27        1.91837   0.00044   0.00000   0.00801   0.00791   1.92628
   A28        1.91047  -0.00048   0.00000  -0.00844  -0.00835   1.90212
   A29        1.91933   0.00036   0.00000   0.00719   0.00707   1.92640
   A30        1.86971  -0.00052   0.00000  -0.01239  -0.01238   1.85733
   A31        1.93563   0.00041   0.00000   0.01159   0.01131   1.94695
   A32        1.91789   0.00047   0.00000   0.00852   0.00840   1.92629
   A33        1.91052  -0.00044   0.00000  -0.00886  -0.00878   1.90174
   A34        1.91823   0.00052   0.00000   0.00894   0.00881   1.92705
   A35        1.91122  -0.00046   0.00000  -0.00903  -0.00894   1.90228
   A36        1.86913  -0.00054   0.00000  -0.01214  -0.01211   1.85702
    D1       -0.98351   0.00132   0.00000   0.03222   0.03233  -0.95117
    D2        1.12585   0.00076   0.00000   0.02351   0.02355   1.14940
    D3       -3.10980   0.00020   0.00000   0.00960   0.00963  -3.10018
    D4        1.12597   0.00078   0.00000   0.02384   0.02388   1.14985
    D5       -3.04786   0.00022   0.00000   0.01513   0.01510  -3.03276
    D6       -1.00033  -0.00033   0.00000   0.00122   0.00117  -0.99916
    D7       -3.10802   0.00010   0.00000   0.00825   0.00828  -3.09973
    D8       -0.99866  -0.00046   0.00000  -0.00046  -0.00050  -0.99916
    D9        1.04887  -0.00102   0.00000  -0.01437  -0.01443   1.03445
   D10        0.98407  -0.00133   0.00000  -0.03276  -0.03288   0.95118
   D11        3.10844  -0.00012   0.00000  -0.00884  -0.00888   3.09956
   D12       -1.12547  -0.00079   0.00000  -0.02425  -0.02429  -1.14976
   D13       -1.12593  -0.00077   0.00000  -0.02398  -0.02403  -1.14995
   D14        0.99845   0.00045   0.00000  -0.00006  -0.00003   0.99842
   D15        3.04773  -0.00022   0.00000  -0.01547  -0.01544   3.03229
   D16        3.10927  -0.00019   0.00000  -0.00959  -0.00961   3.09966
   D17       -1.04954   0.00103   0.00000   0.01433   0.01439  -1.03515
   D18        0.99974   0.00036   0.00000  -0.00107  -0.00102   0.99872
   D19        0.98305  -0.00131   0.00000  -0.03182  -0.03193   0.95111
   D20        3.10839  -0.00018   0.00000  -0.00892  -0.00894   3.09945
   D21       -1.12610  -0.00077   0.00000  -0.02324  -0.02328  -1.14938
   D22       -1.12580  -0.00079   0.00000  -0.02369  -0.02372  -1.14953
   D23        0.99954   0.00034   0.00000  -0.00078  -0.00073   0.99881
   D24        3.04824  -0.00025   0.00000  -0.01511  -0.01507   3.03317
   D25        3.10855  -0.00009   0.00000  -0.00805  -0.00809   3.10046
   D26       -1.04929   0.00104   0.00000   0.01485   0.01490  -1.03439
   D27        0.99941   0.00045   0.00000   0.00053   0.00056   0.99997
   D28       -0.98313   0.00130   0.00000   0.03182   0.03193  -0.95120
   D29        1.12576   0.00079   0.00000   0.02413   0.02416   1.14992
   D30       -3.10868   0.00016   0.00000   0.00914   0.00916  -3.09952
   D31       -3.10844   0.00011   0.00000   0.00837   0.00840  -3.10004
   D32       -0.99955  -0.00040   0.00000   0.00067   0.00064  -0.99892
   D33        1.04919  -0.00103   0.00000  -0.01431  -0.01437   1.03483
   D34        1.12623   0.00075   0.00000   0.02323   0.02327   1.14951
   D35       -3.04806   0.00024   0.00000   0.01554   0.01550  -3.03256
   D36       -0.99932  -0.00039   0.00000   0.00055   0.00050  -0.99881
   D37       -0.98455   0.00136   0.00000   0.03312   0.03323  -0.95132
   D38       -3.10895   0.00013   0.00000   0.00848   0.00851  -3.10044
   D39        1.12616   0.00076   0.00000   0.02345   0.02349   1.14965
   D40       -3.10901   0.00020   0.00000   0.00972   0.00974  -3.09926
   D41        1.04978  -0.00104   0.00000  -0.01492  -0.01498   1.03480
   D42       -0.99830  -0.00041   0.00000   0.00005   0.00001  -0.99829
   D43        1.12507   0.00081   0.00000   0.02437   0.02441   1.14948
   D44       -0.99933  -0.00043   0.00000  -0.00027  -0.00032  -0.99964
   D45       -3.04740   0.00020   0.00000   0.01470   0.01467  -3.03273
   D46        0.98399  -0.00133   0.00000  -0.03254  -0.03265   0.95133
   D47        3.10819  -0.00012   0.00000  -0.00814  -0.00816   3.10002
   D48       -1.12631  -0.00074   0.00000  -0.02298  -0.02302  -1.14933
   D49       -1.12461  -0.00085   0.00000  -0.02520  -0.02524  -1.14984
   D50        0.99959   0.00036   0.00000  -0.00080  -0.00075   0.99885
   D51        3.04828  -0.00026   0.00000  -0.01564  -0.01560   3.03268
   D52        3.10898  -0.00015   0.00000  -0.00935  -0.00939   3.09959
   D53       -1.05001   0.00106   0.00000   0.01505   0.01510  -1.03491
   D54        0.99868   0.00044   0.00000   0.00021   0.00024   0.99893
         Item               Value     Threshold  Converged?
 Maximum Force            0.011754     0.000450     NO 
 RMS     Force            0.003621     0.000300     NO 
 Maximum Displacement     0.057900     0.001800     NO 
 RMS     Displacement     0.015012     0.001200     NO 
 Predicted change in Energy=-2.607748D-03
 GradGradGradGradGradGradGradGradGradGradGradGradGradGradGradGradGradGrad

                          Input orientation:                          
 ---------------------------------------------------------------------
 Center     Atomic      Atomic             Coordinates (Angstroms)
 Number     Number       Type             X           Y           Z
 ---------------------------------------------------------------------
      1          6           0       -1.086220   -0.767455   -0.663292
      2          6           0       -1.114928    0.769641   -0.610590
      3          6           0       -0.352679    1.307536    0.611978
      4          6           0        0.352761   -1.307713   -0.612151
      5          6           0        1.086289    0.767210    0.663147
      6          6           0        1.114986   -0.769834    0.610648
      7          1           0       -1.648404   -1.165509    0.194048
      8          1           0       -1.598546   -1.128700   -1.564824
      9          1           0       -0.650554    1.167483   -1.524778
     10          1           0       -0.348446    2.405524    0.607843
     11          1           0        0.348415   -2.405717   -0.607671
     12          1           0        1.648613    1.165012   -0.194203
     13          1           0        2.151115   -1.133593    0.605534
     14          1           0        0.650669   -1.167902    1.524656
     15          1           0       -0.881877    1.001904    1.526373
     16          1           0       -2.150960    1.133361   -0.605617
     17          1           0        1.598345    1.128544    1.564734
     18          1           0        0.882047   -1.002292   -1.526460
 ---------------------------------------------------------------------
                    Distance matrix (angstroms):
                    1          2          3          4          5
     1  C    0.000000
     2  C    1.538266   0.000000
     3  C    2.543616   1.537865   0.000000
     4  C    1.537908   2.543523   2.972485   0.000000
     5  C    2.972277   2.543181   1.537921   2.543572   0.000000
     6  C    2.543273   2.972192   2.543523   1.538031   1.538208
     7  H    1.099786   2.162601   2.823034   2.162137   3.381421
     8  H    1.098060   2.179024   3.496555   2.178814   3.970726
     9  H    2.162394   1.099846   2.161960   2.822433   2.822031
    10  H    3.496839   2.179034   1.098004   3.970920   2.178439
    11  H    2.178342   3.496323   3.970809   1.098022   3.496699
    12  H    3.381387   2.822562   2.162270   2.822815   1.099774
    13  H    3.496329   3.970931   3.496876   2.178796   2.179502
    14  H    2.822102   3.380929   2.822673   2.162000   2.162550
    15  H    2.822591   2.162145   1.099809   3.381116   2.161924
    16  H    2.179472   1.098034   2.178689   3.496785   3.496228
    17  H    3.970617   3.496098   2.178596   3.496521   1.098008
    18  H    2.162009   2.822494   3.381238   1.099721   2.822628
                    6          7          8          9         10
     6  C    0.000000
     7  H    2.822488   0.000000
     8  H    3.496387   1.759964   0.000000
     9  H    3.380884   3.064788   2.484502   0.000000
    10  H    3.496360   3.822747   4.332894   2.484369   0.000000
    11  H    2.179001   2.483576   2.517453   3.821882   5.011100
    12  H    2.162445   4.056154   4.205205   2.656427   2.484027
    13  H    1.098140   3.821869   4.332486   4.205060   4.332801
    14  H    1.099754   2.656363   3.821701   4.055398   3.822060
    15  H    2.822245   2.657129   3.822118   3.064384   1.760226
    16  H    3.970876   2.485324   2.518365   1.759898   2.517923
    17  H    2.178934   4.205097   5.010927   3.821537   2.517204
    18  H    2.162297   3.064305   2.484107   2.656462   4.205064
                   11         12         13         14         15
    11  H    0.000000
    12  H    3.822509   0.000000
    13  H    2.517914   2.485090   0.000000
    14  H    2.484022   3.064776   1.759915   0.000000
    15  H    4.204716   3.064370   3.821954   2.656455   0.000000
    16  H    4.332661   3.821912   5.011369   4.205116   2.484599
    17  H    4.332744   1.760033   2.518508   2.484624   2.483750
    18  H    1.760267   2.657016   2.484587   3.064355   4.055615
                   16         17         18
    16  H    0.000000
    17  H    4.332174   0.000000
    18  H    3.822054   3.822175   0.000000
 Stoichiometry    C6H12
 Framework group  C1[X(C6H12)]
 Deg. of freedom    48
 Full point group                 C1      NOp   1
 Largest Abelian subgroup         C1      NOp   1
 Largest concise Abelian subgroup C1      NOp   1
                         Standard orientation:                         
 ---------------------------------------------------------------------
 Center     Atomic      Atomic             Coordinates (Angstroms)
 Number     Number       Type             X           Y           Z
 ---------------------------------------------------------------------
      1          6           0       -0.929696   -1.136681   -0.228653
      2          6           0        0.519879   -1.373296    0.228523
      3          6           0        1.449353   -0.236620   -0.228725
      4          6           0       -1.449336    0.236581    0.228824
      5          6           0        0.929661    1.136654    0.228701
      6          6           0       -0.519792    1.373342   -0.228628
      7          1           0       -0.971512   -1.187345   -1.326475
      8          1           0       -1.583414   -1.936443    0.143865
      9          1           0        0.543098   -1.434223    1.326435
     10          1           0        2.468885   -0.402548    0.143610
     11          1           0       -2.468754    0.402566   -0.143851
     12          1           0        0.971235    1.187475    1.326513
     13          1           0       -0.885849    2.339517    0.143418
     14          1           0       -0.543287    1.434274   -1.326441
     15          1           0        1.513587   -0.246805   -1.326609
     16          1           0        0.885846   -2.339443   -0.143376
     17          1           0        1.583488    1.936189   -0.143958
     18          1           0       -1.513736    0.246914    1.326610
 ---------------------------------------------------------------------
 Rotational constants (GHZ):      4.2765907      4.2752848      2.4376515
 Standard basis: 6-31+G(d,p) (6D, 7F)
 There are   174 symmetry adapted basis functions of A   symmetry.
 Integral buffers will be    131072 words long.
 Raffenetti 2 integral format.
 Two-electron integral symmetry is turned on.
   174 basis functions,   276 primitive gaussians,   174 cartesian basis functions
    24 alpha electrons       24 beta electrons
       nuclear repulsion energy       254.8009830659 Hartrees.
 NAtoms=   18 NActive=   18 NUniq=   18 SFac= 7.50D-01 NAtFMM=   80 NAOKFM=F Big=F
 One-electron integrals computed using PRISM.
 NBasis=   174 RedAO= T  NBF=   174
 NBsUse=   174 1.00D-06 NBFU=   174
 Initial guess read from the read-write file.
 B after Tr=     0.000000    0.000000    0.000000
         Rot=    1.000000    0.000000    0.000000    0.000000 Ang=   0.00 deg.
 Initial guess orbital symmetries:
       Occupied  (A) (A) (A) (A) (A) (A) (A) (A) (A) (A) (A) (A)
                 (A) (A) (A) (A) (A) (A) (A) (A) (A) (A) (A) (A)
       Virtual   (A) (A) (A) (A) (A) (A) (A) (A) (A) (A) (A) (A)
                 (A) (A) (A) (A) (A) (A) (A) (A) (A) (A) (A) (A)
                 (A) (A) (A) (A) (A) (A) (A) (A) (A) (A) (A) (A)
                 (A) (A) (A) (A) (A) (A) (A) (A) (A) (A) (A) (A)
                 (A) (A) (A) (A) (A) (A) (A) (A) (A) (A) (A) (A)
                 (A) (A) (A) (A) (A) (A) (A) (A) (A) (A) (A) (A)
                 (A) (A) (A) (A) (A) (A) (A) (A) (A) (A) (A) (A)
                 (A) (A) (A) (A) (A) (A) (A) (A) (A) (A) (A) (A)
                 (A) (A) (A) (A) (A) (A) (A) (A) (A) (A) (A) (A)
                 (A) (A) (A) (A) (A) (A) (A) (A) (A) (A) (A) (A)
                 (A) (A) (A) (A) (A) (A) (A) (A) (A) (A) (A) (A)
                 (A) (A) (A) (A) (A) (A) (A) (A) (A) (A) (A) (A)
                 (A) (A) (A) (A) (A) (A)
 Harris functional with IExCor=  402 diagonalized for initial guess.
 ExpMin= 4.38D-02 ExpMax= 3.05D+03 ExpMxC= 4.57D+02 IAcc=2 IRadAn=         0 AccDes= 0.00D+00
 HarFok:  IExCor=  402 AccDes= 0.00D+00 IRadAn=         0 IDoV= 1
 ScaDFX=  1.000000  1.000000  1.000000  1.000000
 FoFCou: FMM=F IPFlag=           0 FMFlag=      100000 FMFlg1=           0
         NFxFlg=           0 DoJE=T BraDBF=F KetDBF=T FulRan=T
         Omega=  0.000000  0.000000  1.000000  0.000000  0.000000 ICntrl=     500 IOpCl=  0
         NMat0=    1 NMatS0=    1 NMatT0=    0 NMatD0=    1 NMtDS0=    0 NMtDT0=    0
         I1Cent=           4 NGrid=           0.
 Petite list used in FoFCou.
 Requested convergence on RMS density matrix=1.00D-08 within 128 cycles.
 Requested convergence on MAX density matrix=1.00D-06.
 Requested convergence on             energy=1.00D-06.
 No special actions if energy rises.
 Keep R1 ints in memory in canonical form, NReq=118853695.
 SCF Done:  E(RB3LYP) =  -235.902277343     A.U. after   10 cycles
             Convg  =    0.7757D-08             -V/T =  2.0104
 Calling FoFJK, ICntrl=      2127 FMM=F ISym2X=0 I1Cent= 0 IOpClX= 0 NMat=1 NMatS=1 NMatT=0.
 ***** Axes restored to original set *****
 -------------------------------------------------------------------
 Center     Atomic                   Forces (Hartrees/Bohr)
 Number     Number              X              Y              Z
 -------------------------------------------------------------------
      1        6          -0.000315180   -0.000124042    0.000490144
      2        6           0.000224490    0.000263936   -0.000585362
      3        6          -0.000231702   -0.000223521    0.000586855
      4        6           0.000225844    0.000174149   -0.000476362
      5        6           0.000292183    0.000134584   -0.000466466
      6        6          -0.000174076   -0.000309023    0.000440268
      7        1          -0.000308153   -0.000186711    0.000152183
      8        1           0.000454280    0.000319587    0.000272706
      9        1          -0.000039717    0.000200594   -0.000295383
     10        1           0.000092734   -0.000517031   -0.000268293
     11        1          -0.000084807    0.000525611    0.000244603
     12        1           0.000306051    0.000204962   -0.000149151
     13        1          -0.000480777    0.000366274   -0.000249673
     14        1           0.000013876   -0.000197142    0.000342247
     15        1          -0.000187588    0.000082126    0.000304381
     16        1           0.000420771   -0.000342762    0.000256157
     17        1          -0.000416232   -0.000306502   -0.000258120
     18        1           0.000208004   -0.000065091   -0.000340732
 -------------------------------------------------------------------
 Cartesian Forces:  Max     0.000586855 RMS     0.000313425

 GradGradGradGradGradGradGradGradGradGradGradGradGradGradGradGradGradGrad
 Berny optimization.
 Using GEDIIS/GDIIS optimizer.
 Internal  Forces:  Max     0.000576663 RMS     0.000188081
 Search for a local minimum.
 Step number   2 out of a maximum of  108
 All quantities printed in internal units (Hartrees-Bohrs-Radians)
 Mixed Optimization -- En-DIIS/RFO-DIIS
 Update second derivatives using D2CorX and points    1    2
 DE= -2.49D-03 DEPred=-2.61D-03 R= 9.53D-01
 SS=  1.41D+00  RLast= 1.82D-01 DXNew= 5.0454D-01 5.4731D-01
 Trust test= 9.53D-01 RLast= 1.82D-01 DXMaxT set to 5.05D-01
 Use linear search instead of GDIIS.
     Eigenvalues ---    0.00472   0.00477   0.00570   0.01824   0.01827
     Eigenvalues ---    0.03553   0.03805   0.03806   0.04409   0.04770
     Eigenvalues ---    0.04772   0.04809   0.05476   0.05478   0.05939
     Eigenvalues ---    0.06051   0.07999   0.08001   0.08129   0.08131
     Eigenvalues ---    0.08132   0.08141   0.08194   0.08197   0.12067
     Eigenvalues ---    0.12096   0.12098   0.16104   0.16106   0.21875
     Eigenvalues ---    0.27417   0.27707   0.27732   0.28869   0.28914
     Eigenvalues ---    0.28926   0.30243   0.31844   0.31881   0.31909
     Eigenvalues ---    0.31930   0.31943   0.31953   0.31966   0.31980
     Eigenvalues ---    0.31999   0.32009   0.326921000.000001000.00000
     Eigenvalues --- 1000.000001000.000001000.000001000.000001000.00000
     Eigenvalues --- 1000.000001000.000001000.000001000.000001000.00000
     Eigenvalues --- 1000.000001000.000001000.000001000.000001000.00000
     Eigenvalues --- 1000.000001000.000001000.000001000.000001000.00000
     Eigenvalues --- 1000.000001000.000001000.000001000.000001000.00000
     Eigenvalues --- 1000.000001000.000001000.000001000.000001000.00000
     Eigenvalues --- 1000.000001000.000001000.000001000.000001000.00000
     Eigenvalues --- 1000.000001000.000001000.000001000.000001000.00000
     Eigenvalues --- 1000.000001000.000001000.000001000.000001000.00000
     Eigenvalues --- 1000.000001000.000001000.000001000.000001000.00000
     Eigenvalues --- 1000.000001000.000001000.000001000.000001000.00000
     Eigenvalues --- 1000.000001000.000001000.00000
 RFO step:  Lambda=-3.89542912D-05 EMin= 4.71855663D-03
 Quartic linear search produced a step of -0.01160.
 Iteration  1 RMS(Cart)=  0.00266865 RMS(Int)=  0.00000635
 Iteration  2 RMS(Cart)=  0.00000580 RMS(Int)=  0.00000297
 Iteration  3 RMS(Cart)=  0.00000000 RMS(Int)=  0.00000297
 Variable       Old X    -DE/DX   Delta X   Delta X   Delta X     New X
                                 (Linear)    (Quad)   (Total)
    R1        2.90690  -0.00028  -0.00006  -0.00085  -0.00091   2.90599
    R2        2.90622  -0.00016  -0.00004  -0.00049  -0.00053   2.90570
    R3        2.07829   0.00034   0.00036   0.00046   0.00081   2.07911
    R4        2.07503  -0.00054   0.00041  -0.00237  -0.00197   2.07307
    R5        2.90614  -0.00019  -0.00005  -0.00055  -0.00060   2.90554
    R6        2.07841   0.00031   0.00036   0.00033   0.00069   2.07910
    R7        2.07498  -0.00051   0.00040  -0.00226  -0.00186   2.07312
    R8        2.90625  -0.00016  -0.00004  -0.00049  -0.00053   2.90572
    R9        2.07493  -0.00051   0.00040  -0.00226  -0.00186   2.07306
   R10        2.07834   0.00031   0.00037   0.00035   0.00071   2.07905
   R11        2.90646  -0.00025  -0.00005  -0.00076  -0.00081   2.90565
   R12        2.07496  -0.00052   0.00042  -0.00233  -0.00191   2.07305
   R13        2.07817   0.00036   0.00035   0.00051   0.00086   2.07903
   R14        2.90679  -0.00026  -0.00006  -0.00077  -0.00083   2.90597
   R15        2.07827   0.00035   0.00035   0.00048   0.00083   2.07910
   R16        2.07493  -0.00051   0.00041  -0.00227  -0.00186   2.07307
   R17        2.07518  -0.00058   0.00042  -0.00251  -0.00209   2.07309
   R18        2.07823   0.00036   0.00035   0.00050   0.00085   2.07908
    A1        1.94695  -0.00005  -0.00013  -0.00039  -0.00053   1.94643
    A2        1.90225   0.00010   0.00010   0.00225   0.00234   1.90459
    A3        1.92640  -0.00009  -0.00009  -0.00238  -0.00247   1.92392
    A4        1.90204   0.00012   0.00009   0.00266   0.00275   1.90480
    A5        1.92654  -0.00009  -0.00010  -0.00243  -0.00254   1.92401
    A6        1.85715   0.00002   0.00014   0.00048   0.00063   1.85778
    A7        1.94710  -0.00014  -0.00014  -0.00100  -0.00113   1.94597
    A8        1.90191   0.00013   0.00009   0.00263   0.00272   1.90462
    A9        1.92704  -0.00008  -0.00010  -0.00255  -0.00266   1.92438
   A10        1.90180   0.00012   0.00010   0.00265   0.00275   1.90454
   A11        1.92645  -0.00003  -0.00008  -0.00211  -0.00219   1.92426
   A12        1.85701   0.00001   0.00014   0.00061   0.00075   1.85776
   A13        1.94693  -0.00006  -0.00013  -0.00041  -0.00054   1.94639
   A14        1.92696  -0.00013  -0.00010  -0.00277  -0.00288   1.92408
   A15        1.90208   0.00012   0.00010   0.00233   0.00242   1.90451
   A16        1.92607  -0.00004  -0.00009  -0.00195  -0.00204   1.92403
   A17        1.90172   0.00011   0.00010   0.00253   0.00262   1.90434
   A18        1.85759   0.00002   0.00014   0.00046   0.00060   1.85819
   A19        1.94689  -0.00007  -0.00014  -0.00040  -0.00054   1.94635
   A20        1.92594  -0.00003  -0.00009  -0.00180  -0.00189   1.92404
   A21        1.90194   0.00010   0.00010   0.00238   0.00248   1.90441
   A22        1.92669  -0.00012  -0.00010  -0.00255  -0.00265   1.92404
   A23        1.90218   0.00012   0.00010   0.00219   0.00228   1.90446
   A24        1.85774   0.00001   0.00014   0.00035   0.00050   1.85823
   A25        1.94700  -0.00007  -0.00014  -0.00043  -0.00057   1.94643
   A26        1.90222   0.00012   0.00009   0.00251   0.00259   1.90481
   A27        1.92628  -0.00007  -0.00009  -0.00222  -0.00232   1.92396
   A28        1.90212   0.00011   0.00010   0.00232   0.00241   1.90453
   A29        1.92640  -0.00008  -0.00008  -0.00232  -0.00241   1.92399
   A30        1.85733   0.00001   0.00014   0.00032   0.00047   1.85780
   A31        1.94695  -0.00010  -0.00013  -0.00083  -0.00096   1.94598
   A32        1.92629  -0.00004  -0.00010  -0.00199  -0.00210   1.92419
   A33        1.90174   0.00013   0.00010   0.00264   0.00274   1.90449
   A34        1.92705  -0.00009  -0.00010  -0.00255  -0.00266   1.92439
   A35        1.90228   0.00010   0.00010   0.00233   0.00243   1.90471
   A36        1.85702   0.00001   0.00014   0.00061   0.00076   1.85778
    D1       -0.95117  -0.00023  -0.00038  -0.00167  -0.00204  -0.95322
    D2        1.14940  -0.00008  -0.00027   0.00274   0.00247   1.15187
    D3       -3.10018  -0.00004  -0.00011   0.00356   0.00345  -3.09673
    D4        1.14985  -0.00005  -0.00028   0.00289   0.00261   1.15246
    D5       -3.03276   0.00011  -0.00018   0.00729   0.00712  -3.02564
    D6       -0.99916   0.00014  -0.00001   0.00812   0.00810  -0.99106
    D7       -3.09973  -0.00002  -0.00010   0.00343   0.00333  -3.09641
    D8       -0.99916   0.00014   0.00001   0.00783   0.00784  -0.99132
    D9        1.03445   0.00017   0.00017   0.00866   0.00882   1.04327
   D10        0.95118   0.00026   0.00038   0.00185   0.00224   0.95342
   D11        3.09956   0.00003   0.00010  -0.00299  -0.00288   3.09668
   D12       -1.14976   0.00009   0.00028  -0.00219  -0.00191  -1.15167
   D13       -1.14995   0.00009   0.00028  -0.00245  -0.00218  -1.15213
   D14        0.99842  -0.00013   0.00000  -0.00729  -0.00729   0.99113
   D15        3.03229  -0.00008   0.00018  -0.00650  -0.00632   3.02597
   D16        3.09966   0.00004   0.00011  -0.00322  -0.00310   3.09656
   D17       -1.03515  -0.00018  -0.00017  -0.00806  -0.00822  -1.04337
   D18        0.99872  -0.00012   0.00001  -0.00726  -0.00725   0.99147
   D19        0.95111   0.00024   0.00037   0.00167   0.00205   0.95316
   D20        3.09945   0.00005   0.00010  -0.00310  -0.00299   3.09646
   D21       -1.14938   0.00006   0.00027  -0.00276  -0.00249  -1.15186
   D22       -1.14953   0.00007   0.00028  -0.00272  -0.00244  -1.15197
   D23        0.99881  -0.00011   0.00001  -0.00749  -0.00748   0.99133
   D24        3.03317  -0.00010   0.00017  -0.00715  -0.00698   3.02619
   D25        3.10046   0.00001   0.00009  -0.00381  -0.00371   3.09674
   D26       -1.03439  -0.00018  -0.00017  -0.00858  -0.00875  -1.04314
   D27        0.99997  -0.00016  -0.00001  -0.00824  -0.00825   0.99172
   D28       -0.95120  -0.00026  -0.00037  -0.00182  -0.00219  -0.95339
   D29        1.14992  -0.00009  -0.00028   0.00245   0.00217   1.15209
   D30       -3.09952  -0.00005  -0.00011   0.00305   0.00294  -3.09658
   D31       -3.10004  -0.00002  -0.00010   0.00342   0.00332  -3.09672
   D32       -0.99892   0.00015  -0.00001   0.00769   0.00768  -0.99124
   D33        1.03483   0.00019   0.00017   0.00828   0.00845   1.04327
   D34        1.14951  -0.00008  -0.00027   0.00249   0.00222   1.15173
   D35       -3.03256   0.00008  -0.00018   0.00676   0.00659  -3.02597
   D36       -0.99881   0.00012  -0.00001   0.00736   0.00735  -0.99146
   D37       -0.95132  -0.00022  -0.00039  -0.00144  -0.00183  -0.95315
   D38       -3.10044   0.00000  -0.00010   0.00384   0.00374  -3.09670
   D39        1.14965  -0.00007  -0.00027   0.00269   0.00241   1.15207
   D40       -3.09926  -0.00005  -0.00011   0.00297   0.00286  -3.09641
   D41        1.03480   0.00017   0.00017   0.00825   0.00843   1.04323
   D42       -0.99829   0.00010   0.00000   0.00710   0.00710  -0.99119
   D43        1.14948  -0.00006  -0.00028   0.00272   0.00243   1.15191
   D44       -0.99964   0.00016   0.00000   0.00800   0.00800  -0.99164
   D45       -3.03273   0.00009  -0.00017   0.00684   0.00667  -3.02606
   D46        0.95133   0.00023   0.00038   0.00144   0.00182   0.95315
   D47        3.10002   0.00004   0.00009  -0.00353  -0.00343   3.09659
   D48       -1.14933   0.00007   0.00027  -0.00287  -0.00260  -1.15193
   D49       -1.14984   0.00005   0.00029  -0.00294  -0.00265  -1.15249
   D50        0.99885  -0.00013   0.00001  -0.00791  -0.00790   0.99095
   D51        3.03268  -0.00011   0.00018  -0.00725  -0.00707   3.02561
   D52        3.09959   0.00003   0.00011  -0.00337  -0.00326   3.09633
   D53       -1.03491  -0.00016  -0.00018  -0.00834  -0.00851  -1.04341
   D54        0.99893  -0.00013   0.00000  -0.00768  -0.00768   0.99125
         Item               Value     Threshold  Converged?
 Maximum Force            0.000577     0.000450     NO 
 RMS     Force            0.000188     0.000300     YES
 Maximum Displacement     0.007608     0.001800     NO 
 RMS     Displacement     0.002669     0.001200     NO 
 Predicted change in Energy=-1.984481D-05
 GradGradGradGradGradGradGradGradGradGradGradGradGradGradGradGradGradGrad

                          Input orientation:                          
 ---------------------------------------------------------------------
 Center     Atomic      Atomic             Coordinates (Angstroms)
 Number     Number       Type             X           Y           Z
 ---------------------------------------------------------------------
      1          6           0       -1.086046   -0.767021   -0.662378
      2          6           0       -1.114222    0.769647   -0.611005
      3          6           0       -0.352791    1.306538    0.612115
      4          6           0        0.352843   -1.306821   -0.612215
      5          6           0        1.086111    0.766751    0.662339
      6          6           0        1.114306   -0.769902    0.610941
      7          1           0       -1.651227   -1.166698    0.192785
      8          1           0       -1.594669   -1.125809   -1.565719
      9          1           0       -0.653293    1.169466   -1.526515
     10          1           0       -0.346522    2.403506    0.603817
     11          1           0        0.346574   -2.403781   -0.603853
     12          1           0        1.651321    1.166385   -0.192819
     13          1           0        2.150260   -1.130731    0.601678
     14          1           0        0.653412   -1.169829    1.526409
     15          1           0       -0.882917    1.004631    1.527662
     16          1           0       -2.150187    1.130488   -0.601837
     17          1           0        1.594664    1.125600    1.565701
     18          1           0        0.883006   -1.004921   -1.527732
 ---------------------------------------------------------------------
                    Distance matrix (angstroms):
                    1          2          3          4          5
     1  C    0.000000
     2  C    1.537785   0.000000
     3  C    2.541976   1.537547   0.000000
     4  C    1.537629   2.542440   2.970951   0.000000
     5  C    2.970791   2.542220   1.537639   2.542021   0.000000
     6  C    2.542223   2.971482   2.542436   1.537602   1.537771
     7  H    1.100217   2.164229   2.824654   2.164246   3.384040
     8  H    1.097020   2.176021   3.493070   2.175945   3.966436
     9  H    2.164253   1.100214   2.163985   2.824934   2.824675
    10  H    3.493191   2.175925   1.097017   3.966657   2.175966
    11  H    2.175962   3.493512   3.966631   1.097010   3.493198
    12  H    3.384039   2.824979   2.164261   2.824657   1.100212
    13  H    3.493394   3.967226   3.493659   2.176064   2.176357
    14  H    2.824670   3.384471   2.825026   2.163983   2.164299
    15  H    2.824232   2.163935   1.100185   3.383636   2.163896
    16  H    2.176373   1.097048   2.176076   3.493672   3.493433
    17  H    3.966428   3.493252   2.175924   3.493151   1.097023
    18  H    2.163931   2.824606   3.383635   1.100176   2.824268
                    6          7          8          9         10
     6  C    0.000000
     7  H    2.824973   0.000000
     8  H    3.493289   1.759889   0.000000
     9  H    3.384417   3.067496   2.481132   0.000000
    10  H    3.493507   3.823292   4.326757   2.480983   0.000000
    11  H    2.175936   2.481173   2.515318   3.823498   5.004883
    12  H    2.164168   4.061871   4.204219   2.662705   2.481224
    13  H    1.097034   3.823584   4.326908   4.204762   4.327211
    14  H    1.100203   2.662691   3.823227   4.062035   3.823581
    15  H    2.824580   2.662117   3.822876   3.067230   1.760131
    16  H    3.967270   2.481421   2.515660   1.759898   2.515429
    17  H    2.176060   4.204204   5.004646   3.823223   2.515247
    18  H    2.163945   3.067359   2.480913   2.662363   4.203881
                   11         12         13         14         15
    11  H    0.000000
    12  H    3.823271   0.000000
    13  H    2.515402   2.481312   0.000000
    14  H    2.480888   3.067485   1.759889   0.000000
    15  H    4.203841   3.067342   3.823269   2.662441   0.000000
    16  H    4.327225   3.823617   5.005537   4.204886   2.481246
    17  H    4.326802   1.759905   2.515761   2.481228   2.480824
    18  H    1.760148   2.662118   2.481159   3.067195   4.061061
                   16         17         18
    16  H    0.000000
    17  H    4.326910   0.000000
    18  H    3.823285   3.822944   0.000000
 Stoichiometry    C6H12
 Framework group  C1[X(C6H12)]
 Deg. of freedom    48
 Full point group                 C1      NOp   1
 Largest Abelian subgroup         C1      NOp   1
 Largest concise Abelian subgroup C1      NOp   1
                         Standard orientation:                         
 ---------------------------------------------------------------------
 Center     Atomic      Atomic             Coordinates (Angstroms)
 Number     Number       Type             X           Y           Z
 ---------------------------------------------------------------------
      1          6           0        0.451121   -1.396545   -0.229201
      2          6           0        1.435386   -0.307540    0.229137
      3          6           0        0.983995    1.088951   -0.229240
      4          6           0       -0.983983   -1.088983    0.229255
      5          6           0       -0.451123    1.396562    0.229177
      6          6           0       -1.435388    0.307562   -0.229127
      7          1           0        0.472592   -1.462834   -1.327209
      8          1           0        0.767862   -2.377029    0.147332
      9          1           0        1.503304   -0.321998    1.327157
     10          1           0        1.674714    1.853626    0.147090
     11          1           0       -1.674710   -1.853617   -0.147125
     12          1           0       -0.472643    1.462836    1.327179
     13          1           0       -2.442972    0.523432    0.147249
     14          1           0       -1.503393    0.321937   -1.327132
     15          1           0        1.030177    1.140235   -1.327259
     16          1           0        2.443003   -0.523459   -0.147163
     17          1           0       -0.767776    2.377067   -0.147386
     18          1           0       -1.030203   -1.140239    1.327264
 ---------------------------------------------------------------------
 Rotational constants (GHZ):      4.2787567      4.2774093      2.4398513
 Standard basis: 6-31+G(d,p) (6D, 7F)
 There are   174 symmetry adapted basis functions of A   symmetry.
 Integral buffers will be    131072 words long.
 Raffenetti 2 integral format.
 Two-electron integral symmetry is turned on.
   174 basis functions,   276 primitive gaussians,   174 cartesian basis functions
    24 alpha electrons       24 beta electrons
       nuclear repulsion energy       254.8667162317 Hartrees.
 NAtoms=   18 NActive=   18 NUniq=   18 SFac= 7.50D-01 NAtFMM=   80 NAOKFM=F Big=F
 One-electron integrals computed using PRISM.
 NBasis=   174 RedAO= T  NBF=   174
 NBsUse=   174 1.00D-06 NBFU=   174
 Initial guess read from the read-write file.
 B after Tr=     0.000000    0.000000    0.000000
         Rot=    1.000000    0.000000    0.000000    0.000000 Ang=   0.00 deg.
 Initial guess orbital symmetries:
       Occupied  (A) (A) (A) (A) (A) (A) (A) (A) (A) (A) (A) (A)
                 (A) (A) (A) (A) (A) (A) (A) (A) (A) (A) (A) (A)
       Virtual   (A) (A) (A) (A) (A) (A) (A) (A) (A) (A) (A) (A)
                 (A) (A) (A) (A) (A) (A) (A) (A) (A) (A) (A) (A)
                 (A) (A) (A) (A) (A) (A) (A) (A) (A) (A) (A) (A)
                 (A) (A) (A) (A) (A) (A) (A) (A) (A) (A) (A) (A)
                 (A) (A) (A) (A) (A) (A) (A) (A) (A) (A) (A) (A)
                 (A) (A) (A) (A) (A) (A) (A) (A) (A) (A) (A) (A)
                 (A) (A) (A) (A) (A) (A) (A) (A) (A) (A) (A) (A)
                 (A) (A) (A) (A) (A) (A) (A) (A) (A) (A) (A) (A)
                 (A) (A) (A) (A) (A) (A) (A) (A) (A) (A) (A) (A)
                 (A) (A) (A) (A) (A) (A) (A) (A) (A) (A) (A) (A)
                 (A) (A) (A) (A) (A) (A) (A) (A) (A) (A) (A) (A)
                 (A) (A) (A) (A) (A) (A) (A) (A) (A) (A) (A) (A)
                 (A) (A) (A) (A) (A) (A)
 Requested convergence on RMS density matrix=1.00D-08 within 128 cycles.
 Requested convergence on MAX density matrix=1.00D-06.
 Requested convergence on             energy=1.00D-06.
 No special actions if energy rises.
 Keep R1 ints in memory in canonical form, NReq=118853695.
 SCF Done:  E(RB3LYP) =  -235.902338123     A.U. after   10 cycles
             Convg  =    0.7772D-08             -V/T =  2.0104
 Calling FoFJK, ICntrl=      2127 FMM=F ISym2X=0 I1Cent= 0 IOpClX= 0 NMat=1 NMatS=1 NMatT=0.
 ***** Axes restored to original set *****
 -------------------------------------------------------------------
 Center     Atomic                   Forces (Hartrees/Bohr)
 Number     Number              X              Y              Z
 -------------------------------------------------------------------
      1        6          -0.000095797    0.000057386   -0.000177271
      2        6          -0.000000460   -0.000105306    0.000048854
      3        6          -0.000240619    0.000020954   -0.000225399
      4        6           0.000252243   -0.000005503    0.000253395
      5        6           0.000087286   -0.000054857    0.000172353
      6        6          -0.000011762    0.000087772   -0.000069943
      7        1           0.000073675    0.000046338   -0.000003747
      8        1          -0.000091655   -0.000061245   -0.000165009
      9        1           0.000054886   -0.000069851    0.000055415
     10        1          -0.000001213    0.000187859    0.000007045
     11        1           0.000001945   -0.000191095   -0.000010547
     12        1          -0.000072270   -0.000040130    0.000003409
     13        1           0.000153489   -0.000026145   -0.000043934
     14        1          -0.000056035    0.000073925   -0.000047546
     15        1          -0.000010809    0.000018932   -0.000022818
     16        1          -0.000144742    0.000024454    0.000048132
     17        1           0.000093963    0.000055587    0.000162027
     18        1           0.000007874   -0.000019076    0.000015583
 -------------------------------------------------------------------
 Cartesian Forces:  Max     0.000253395 RMS     0.000104078

 GradGradGradGradGradGradGradGradGradGradGradGradGradGradGradGradGradGrad
 Berny optimization.
 Using GEDIIS/GDIIS optimizer.
 Internal  Forces:  Max     0.000248804 RMS     0.000064265
 Search for a local minimum.
 Step number   3 out of a maximum of  108
 All quantities printed in internal units (Hartrees-Bohrs-Radians)
 Mixed Optimization -- En-DIIS/RFO-DIIS
 Swaping is turned off.
 Update second derivatives using D2CorX and points    1    2    3
 DE= -6.08D-05 DEPred=-1.98D-05 R= 3.06D+00
 SS=  1.41D+00  RLast= 4.27D-02 DXNew= 8.4853D-01 1.2812D-01
 Trust test= 3.06D+00 RLast= 4.27D-02 DXMaxT set to 5.05D-01
     Eigenvalues ---    0.00472   0.00477   0.00514   0.01827   0.01834
     Eigenvalues ---    0.03562   0.03827   0.03828   0.04546   0.04761
     Eigenvalues ---    0.04807   0.04818   0.05467   0.05470   0.06044
[...]
 ! D39   D(1,4,6,14)            66.1094         -DE/DX =    0.0                 !
 ! D40   D(11,4,6,5)          -177.2798         -DE/DX =    0.0                 !
 ! D41   D(11,4,6,13)           59.8897         -DE/DX =    0.0                 !
 ! D42   D(11,4,6,14)          -56.6925         -DE/DX =    0.0                 !
 ! D43   D(18,4,6,5)            66.149          -DE/DX =    0.0                 !
 ! D44   D(18,4,6,13)          -56.6814         -DE/DX =    0.0                 !
 ! D45   D(18,4,6,14)         -173.2637         -DE/DX =    0.0                 !
 ! D46   D(3,5,6,4)             54.4869         -DE/DX =    0.0                 !
 ! D47   D(3,5,6,13)           177.3185         -DE/DX =    0.0                 !
 ! D48   D(3,5,6,14)           -66.1019         -DE/DX =    0.0                 !
 ! D49   D(12,5,6,4)           -66.0887         -DE/DX =    0.0                 !
 ! D50   D(12,5,6,13)           56.7429         -DE/DX =    0.0                 !
 ! D51   D(12,5,6,14)          173.3225         -DE/DX =    0.0                 !
 ! D52   D(17,5,6,4)           177.322          -DE/DX =    0.0                 !
 ! D53   D(17,5,6,13)          -59.8463         -DE/DX =    0.0                 !
 ! D54   D(17,5,6,14)           56.7333         -DE/DX =    0.0                 !
 --------------------------------------------------------------------------------
 GradGradGradGradGradGradGradGradGradGradGradGradGradGradGradGradGradGrad

                          Input orientation:                          
 ---------------------------------------------------------------------
 Center     Atomic      Atomic             Coordinates (Angstroms)
 Number     Number       Type             X           Y           Z
 ---------------------------------------------------------------------
      1          6           0       -1.086100   -0.767144   -0.663551
      2          6           0       -1.114761    0.769518   -0.610441
      3          6           0       -0.352610    1.307411    0.612177
      4          6           0        0.352682   -1.307689   -0.612244
      5          6           0        1.086172    0.766861    0.663476
      6          6           0        1.114826   -0.769801    0.610373
      7          1           0       -1.651291   -1.167247    0.191316
      8          1           0       -1.594177   -1.125489   -1.567764
      9          1           0       -0.654398    1.169732   -1.525978
     10          1           0       -0.345530    2.404713    0.602428
     11          1           0        0.345619   -2.404992   -0.602510
     12          1           0        1.651358    1.166976   -0.191391
     13          1           0        2.151325   -1.129932    0.600111
     14          1           0        0.654441   -1.169992    1.525916
     15          1           0       -0.883048    1.007310    1.528146
     16          1           0       -2.151263    1.129637   -0.600159
     17          1           0        1.594263    1.125200    1.567684
     18          1           0        0.883117   -1.007572   -1.528215
 ---------------------------------------------------------------------
                    Distance matrix (angstroms):
                    1          2          3          4          5
     1  C    0.000000
     2  C    1.537847   0.000000
     3  C    2.543476   1.537854   0.000000
     4  C    1.537828   2.543261   2.972438   0.000000
     5  C    2.972026   2.543025   1.537830   2.543467   0.000000
     6  C    2.543023   2.971691   2.543262   1.537849   1.537846
     7  H    1.100146   2.163732   2.826239   2.163640   3.384880
     8  H    1.097340   2.176548   3.494658   2.176344   3.967832
     9  H    2.163709   1.100143   2.163732   2.826081   2.825881
    10  H    3.494542   2.176380   1.097368   3.967978   2.176248
    11  H    2.176257   3.494322   3.967988   1.097369   3.494538
    12  H    3.384883   2.825773   2.163639   2.826242   1.100148
    13  H    3.494192   3.967450   3.494349   2.176355   2.176325
    14  H    2.825870   3.384641   2.826057   2.163735   2.163699
    15  H    2.827270   2.164206   1.100193   3.386372   2.164093
    16  H    2.176320   1.097328   2.176353   3.494344   3.494191
    17  H    3.967837   3.494216   2.176353   3.494647   1.097340
    18  H    2.164085   2.826990   3.386361   1.100198   2.827252
                    6          7          8          9         10
     6  C    0.000000
     7  H    2.825770   0.000000
     8  H    3.494209   1.760503   0.000000
     9  H    3.384663   3.066654   2.480518   0.000000
    10  H    3.494315   3.825300   4.327953   2.480058   0.000000
    11  H    2.176377   2.479884   2.516278   3.825112   5.006279
    12  H    2.163746   4.062334   4.205151   2.664141   2.479860
    13  H    1.097329   3.824708   4.327642   4.204854   4.327586
    14  H    1.100148   2.664126   3.824804   4.062196   3.825087
    15  H    2.827000   2.665710   3.826121   3.066975   1.760289
    16  H    3.967441   2.480338   2.516386   1.760498   2.516487
    17  H    2.176541   4.205155   5.006275   3.824815   2.516281
    18  H    2.164205   3.066840   2.480414   2.665448   4.206292
                   11         12         13         14         15
    11  H    0.000000
    12  H    3.825301   0.000000
    13  H    2.516476   2.480368   0.000000
    14  H    2.480080   3.066661   1.760506   0.000000
    15  H    4.206320   3.066842   3.825764   2.665431   0.000000
    16  H    4.327589   3.824712   5.005853   4.204815   2.480528
    17  H    4.327946   1.760497   2.516373   2.480508   2.480430
    18  H    1.760289   2.665699   2.480544   3.066984   4.064533
                   16         17         18
    16  H    0.000000
    17  H    4.327648   0.000000
    18  H    3.825756   3.826099   0.000000
 Stoichiometry    C6H12
 Framework group  C1[X(C6H12)]
 Deg. of freedom    48
 Full point group                 C1      NOp   1
 Largest Abelian subgroup         C1      NOp   1
 Largest concise Abelian subgroup C1      NOp   1
                         Standard orientation:                         
 ---------------------------------------------------------------------
 Center     Atomic      Atomic             Coordinates (Angstroms)
 Number     Number       Type             X           Y           Z
 ---------------------------------------------------------------------
      1          6           0       -1.004254    1.071208    0.228532
      2          6           0        0.425626    1.405114   -0.228549
      3          6           0        1.430052    0.334035    0.228522
      4          6           0       -1.430049   -0.334037   -0.228522
      5          6           0        1.004249   -1.071208   -0.228537
      6          6           0       -0.425628   -1.405112    0.228554
      7          1           0       -1.052088    1.122166    1.326456
      8          1           0       -1.708967    1.822893   -0.148964
      9          1           0        0.445890    1.472095   -1.326463
     10          1           0        2.433162    0.568322   -0.149760
     11          1           0       -2.433166   -0.568334    0.149740
     12          1           0        1.052094   -1.122160   -1.326462
     13          1           0       -0.724226   -2.391223   -0.149009
     14          1           0       -0.445869   -1.472071    1.326476
     15          1           0        1.499385    0.350157    1.326410
     16          1           0        0.724221    2.391217    0.149036
     17          1           0        1.708955   -1.822906    0.148950
     18          1           0       -1.499367   -0.350152   -1.326415
 ---------------------------------------------------------------------
 Rotational constants (GHZ):      4.2769287      4.2753222      2.4378719

 **********************************************************************

            Population analysis using the SCF density.

 **********************************************************************

 Orbital symmetries:
       Occupied  (A) (A) (A) (A) (A) (A) (A) (A) (A) (A) (A) (A)
                 (A) (A) (A) (A) (A) (A) (A) (A) (A) (A) (A) (A)
       Virtual   (A) (A) (A) (A) (A) (A) (A) (A) (A) (A) (A) (A)
                 (A) (A) (A) (A) (A) (A) (A) (A) (A) (A) (A) (A)
                 (A) (A) (A) (A) (A) (A) (A) (A) (A) (A) (A) (A)
                 (A) (A) (A) (A) (A) (A) (A) (A) (A) (A) (A) (A)
                 (A) (A) (A) (A) (A) (A) (A) (A) (A) (A) (A) (A)
                 (A) (A) (A) (A) (A) (A) (A) (A) (A) (A) (A) (A)
                 (A) (A) (A) (A) (A) (A) (A) (A) (A) (A) (A) (A)
                 (A) (A) (A) (A) (A) (A) (A) (A) (A) (A) (A) (A)
                 (A) (A) (A) (A) (A) (A) (A) (A) (A) (A) (A) (A)
                 (A) (A) (A) (A) (A) (A) (A) (A) (A) (A) (A) (A)
                 (A) (A) (A) (A) (A) (A) (A) (A) (A) (A) (A) (A)
                 (A) (A) (A) (A) (A) (A) (A) (A) (A) (A) (A) (A)
                 (A) (A) (A) (A) (A) (A)
 The electronic state is 1-A.
 Alpha  occ. eigenvalues --  -10.17927 -10.17918 -10.17918 -10.17898 -10.17897
 Alpha  occ. eigenvalues --  -10.17886  -0.82503  -0.73698  -0.73696  -0.60436
 Alpha  occ. eigenvalues --   -0.60435  -0.54726  -0.47556  -0.43964  -0.43265
 Alpha  occ. eigenvalues --   -0.43263  -0.37550  -0.37546  -0.36978  -0.33929
 Alpha  occ. eigenvalues --   -0.33923  -0.31376  -0.29735  -0.29729
 Alpha virt. eigenvalues --    0.00694   0.02440   0.02441   0.02508   0.04499
 Alpha virt. eigenvalues --    0.04500   0.06782   0.06783   0.07043   0.09395
 Alpha virt. eigenvalues --    0.09813   0.09814   0.09840   0.10313   0.11094
 Alpha virt. eigenvalues --    0.11095   0.14386   0.14387   0.14817   0.16041
 Alpha virt. eigenvalues --    0.17251   0.17254   0.19325   0.19326   0.21278
 Alpha virt. eigenvalues --    0.22221   0.22227   0.23836   0.23837   0.25637
 Alpha virt. eigenvalues --    0.28619   0.28620   0.28629   0.31448   0.31602
 Alpha virt. eigenvalues --    0.31607   0.34502   0.36943   0.36951   0.41346
 Alpha virt. eigenvalues --    0.41352   0.41900   0.60096   0.62104   0.62170
 Alpha virt. eigenvalues --    0.64632   0.64634   0.66701   0.66706   0.69781
 Alpha virt. eigenvalues --    0.71764   0.71765   0.76416   0.76418   0.78071
 Alpha virt. eigenvalues --    0.78401   0.81355   0.81379   0.96404   0.96407
 Alpha virt. eigenvalues --    0.97678   0.97685   1.01706   1.02079   1.08031
 Alpha virt. eigenvalues --    1.10015   1.10238   1.10477   1.10480   1.13841
 Alpha virt. eigenvalues --    1.13853   1.15391   1.15407   1.27817   1.27821
 Alpha virt. eigenvalues --    1.38926   1.38954   1.44728   1.53437   1.60739
 Alpha virt. eigenvalues --    1.60755   1.61742   1.61764   1.71622   1.71649
 Alpha virt. eigenvalues --    1.80311   1.86186   1.86198   1.88031   1.88037
 Alpha virt. eigenvalues --    1.93704   1.97128   1.98150   1.98155   2.12391
 Alpha virt. eigenvalues --    2.13592   2.13617   2.14805   2.14816   2.16122
 Alpha virt. eigenvalues --    2.16696   2.16712   2.25456   2.32796   2.33957
 Alpha virt. eigenvalues --    2.33977   2.35870   2.35885   2.39013   2.44330
 Alpha virt. eigenvalues --    2.44355   2.48105   2.48683   2.48686   2.50806
 Alpha virt. eigenvalues --    2.58087   2.63595   2.63601   2.64077   2.64090
 Alpha virt. eigenvalues --    2.77079   2.77096   2.81569   2.82441   2.82450
 Alpha virt. eigenvalues --    2.87012   2.89049   2.89066   2.90782   2.90934
 Alpha virt. eigenvalues --    2.95987   2.95998   3.29271   3.33255   3.33264
 Alpha virt. eigenvalues --    3.33823   3.34622   3.34629   3.49825   3.51227
 Alpha virt. eigenvalues --    3.51251   3.55812   3.55826   3.62489   4.32363
 Alpha virt. eigenvalues --    4.45575   4.45579   4.72875   4.77439   4.77443
          Condensed to atoms (all electrons):
              1          2          3          4          5          6
     1  C    5.337844   0.274625  -0.161485   0.274440   0.067889  -0.161317
     2  C    0.274625   5.337428   0.274651  -0.161293  -0.161324   0.067732
     3  C   -0.161485   0.274651   5.337608   0.067512   0.274440  -0.161291
     4  C    0.274440  -0.161293   0.067512   5.337610  -0.161486   0.274647
     5  C    0.067889  -0.161324   0.274440  -0.161486   5.337858   0.274623
     6  C   -0.161317   0.067732  -0.161291   0.274647   0.274623   5.337419
     7  H    0.400008  -0.044490   0.002056  -0.044432  -0.008849   0.001960
     8  H    0.366990  -0.036688   0.018492  -0.036739  -0.002862   0.018507
     9  H   -0.044533   0.400065  -0.044419   0.002040   0.001948  -0.008856
    10  H    0.018503  -0.036757   0.366988  -0.002835  -0.036731   0.018486
    11  H   -0.036730   0.018485  -0.002835   0.366987   0.018504  -0.036758
    12  H   -0.008849   0.001962  -0.044434   0.002055   0.400007  -0.044486
    13  H    0.018510  -0.002857   0.018491  -0.036755  -0.036716   0.367023
    14  H    0.001946  -0.008855   0.002040  -0.044419  -0.044537   0.400069
    15  H    0.001956  -0.044407   0.400094  -0.008776  -0.044476   0.001962
    16  H   -0.036717   0.367024  -0.036757   0.018492   0.018510  -0.002857
    17  H   -0.002862   0.018507  -0.036737   0.018493   0.366988  -0.036689
    18  H   -0.044479   0.001962  -0.008775   0.400096   0.001954  -0.044407
              7          8          9         10         11         12
     1  C    0.400008   0.366990  -0.044533   0.018503  -0.036730  -0.008849
     2  C   -0.044490  -0.036688   0.400065  -0.036757   0.018485   0.001962
     3  C    0.002056   0.018492  -0.044419   0.366988  -0.002835  -0.044434
     4  C   -0.044432  -0.036739   0.002040  -0.002835   0.366987   0.002055
     5  C   -0.008849  -0.002862   0.001948  -0.036731   0.018504   0.400007
     6  C    0.001960   0.018507  -0.008856   0.018486  -0.036758  -0.044486
     7  H    0.584695  -0.032255   0.005109  -0.000021  -0.004787   0.000099
     8  H   -0.032255   0.588591  -0.004773  -0.000140  -0.002587  -0.000018
     9  H    0.005109  -0.004773   0.584698  -0.004785  -0.000021   0.002963
    10  H   -0.000021  -0.000140  -0.004785   0.588707   0.000011  -0.004787
    11  H   -0.004787  -0.002587  -0.000021   0.000011   0.588708  -0.000021
    12  H    0.000099  -0.000018   0.002963  -0.004787  -0.000021   0.584695
    13  H   -0.000021  -0.000140  -0.000018  -0.000140  -0.002586  -0.004778
    14  H    0.002963  -0.000021   0.000099  -0.000021  -0.004785   0.005109
    15  H    0.002955  -0.000021   0.005103  -0.032295  -0.000018   0.005105
    16  H   -0.004779  -0.002595  -0.032259  -0.002586  -0.000140  -0.000021
    17  H   -0.000018   0.000011  -0.000021  -0.002587  -0.000140  -0.032256
    18  H    0.005106  -0.004776   0.002956  -0.000018  -0.032296   0.002955
             13         14         15         16         17         18
     1  C    0.018510   0.001946   0.001956  -0.036717  -0.002862  -0.044479
     2  C   -0.002857  -0.008855  -0.044407   0.367024   0.018507   0.001962
     3  C    0.018491   0.002040   0.400094  -0.036757  -0.036737  -0.008775
     4  C   -0.036755  -0.044419  -0.008776   0.018492   0.018493   0.400096
     5  C   -0.036716  -0.044537  -0.044476   0.018510   0.366988   0.001954
     6  C    0.367023   0.400069   0.001962  -0.002857  -0.036689  -0.044407
     7  H   -0.000021   0.002963   0.002955  -0.004779  -0.000018   0.005106
     8  H   -0.000140  -0.000021  -0.000021  -0.002595   0.000011  -0.004776
     9  H   -0.000018   0.000099   0.005103  -0.032259  -0.000021   0.002956
    10  H   -0.000140  -0.000021  -0.032295  -0.002586  -0.002587  -0.000018
    11  H   -0.002586  -0.004785  -0.000018  -0.000140  -0.000140  -0.032296
    12  H   -0.004778   0.005109   0.005105  -0.000021  -0.032256   0.002955
    13  H    0.588601  -0.032259  -0.000021   0.000011  -0.002595  -0.004775
    14  H   -0.032259   0.584700   0.002956  -0.000018  -0.004773   0.005103
    15  H   -0.000021   0.002956   0.584656  -0.004776  -0.004776   0.000098
    16  H    0.000011  -0.000018  -0.004776   0.588602  -0.000140  -0.000021
    17  H   -0.002595  -0.004773  -0.004776  -0.000140   0.588592  -0.000021
    18  H   -0.004775   0.005103   0.000098  -0.000021  -0.000021   0.584658
 Mulliken atomic charges:
              1
     1  C   -0.265739
     2  C   -0.265770
     3  C   -0.265639
     4  C   -0.265637
     5  C   -0.265739
     6  C   -0.265765
     7  H    0.134700
     8  H    0.131026
     9  H    0.134703
    10  H    0.131009
    11  H    0.131008
    12  H    0.134700
    13  H    0.131027
    14  H    0.134702
    15  H    0.134681
    16  H    0.131027
    17  H    0.131026
    18  H    0.134680
 Sum of Mulliken atomic charges =   0.00000
 Mulliken charges with hydrogens summed into heavy atoms:
              1
     1  C   -0.000013
     2  C   -0.000040
     3  C    0.000051
     4  C    0.000052
     5  C   -0.000013
     6  C   -0.000036
 Sum of Mulliken charges with hydrogens summed into heavy atoms =   0.00000
 Electronic spatial extent (au):  <R**2>=            597.4543
 Charge=              0.0000 electrons
 Dipole moment (field-independent basis, Debye):
    X=              0.0000    Y=              0.0000    Z=              0.0000  Tot=              0.0000
 Quadrupole moment (field-independent basis, Debye-Ang):
   XX=            -40.9497   YY=            -40.9523   ZZ=            -40.3497
   XY=             -0.0010   XZ=              0.0014   YZ=              0.0004
 Traceless Quadrupole moment (field-independent basis, Debye-Ang):
   XX=             -0.1992   YY=             -0.2018   ZZ=              0.4009
   XY=             -0.0010   XZ=              0.0014   YZ=              0.0004
 Octapole moment (field-independent basis, Debye-Ang**2):
  XXX=              0.0000  YYY=             -0.0001  ZZZ=              0.0000  XYY=              0.0000
  XXY=              0.0000  XXZ=             -0.0001  XZZ=              0.0001  YZZ=              0.0001
  YYZ=              0.0000  XYZ=              0.0000
 Hexadecapole moment (field-independent basis, Debye-Ang**3):
 XXXX=           -373.7833 YYYY=           -373.6409 ZZZZ=           -105.7822 XXXY=             -0.0116
 XXXZ=             -2.3248 YYYX=             -0.0049 YYYZ=              1.9220 ZZZX=              0.0051
 ZZZY=              0.0004 XXYY=           -124.5696 XXZZ=            -81.5370 YYZZ=            -81.5235
 XXYZ=             -1.9184 YYXZ=              2.3351 ZZXY=              0.0018
 N-N= 2.548114129476D+02 E-N=-1.054101118884D+03  KE= 2.334792190385D+02
 1\1\GINC-ROCK\FOpt\RB3LYP\6-31+G(d,p)\C6H12\STYLIANAKIS\27-Mar-2016\0\
 \# opt b3lyp/6-31+g(d,p)\\cyclohexane-chair\\0,1\C,-1.0861001874,-0.76
 71442756,-0.6635512937\C,-1.1147607363,0.7695180738,-0.6104405976\C,-0
 .3526103243,1.3074108923,0.6121766722\C,0.3526815502,-1.3076888076,-0.
 6122436501\C,1.0861722028,0.7668608641,0.6634762527\C,1.1148259853,-0.
 7698006461,0.6103734028\H,-1.6512911356,-1.1672469115,0.1913160175\H,-
 1.5941768755,-1.1254890017,-1.5677644876\H,-0.6543983672,1.1697324427,
 -1.5259780495\H,-0.3455298179,2.4047130448,0.6024275364\H,0.3456194288
 ,-2.4049922553,-0.6025104079\H,1.6513584817,1.1669756131,-0.1913908429
 \H,2.1513248715,-1.1299320709,0.6001114647\H,0.65444124,-1.1699923489,
 1.525916444\H,-0.883048095,1.0073102463,1.5281462631\H,-2.1512633551,1
 .1296365325,-0.6001589748\H,1.5942633771,1.1252001304,1.5676840285\H,0
 .883116697,-1.0075715823,-1.528214778\\Version=EM64L-G09RevA.01\State=
 1-A\HF=-235.9023703\RMSD=8.668e-09\RMSF=6.722e-05\Dipole=-0.0000007,0.
 0000026,-0.0000006\Quadrupole=-0.0497651,-0.0992443,0.1490094,0.071048
 9,-0.1726193,-0.1205253\PG=C01 [X(C6H12)]\\@


 CHEMISTRY BEGAN BY SAYING IT WOULD CHANGE THE BASER
 METALS INTO GOLD.  BY NOT DOING THAT IT HAS DONE MUCH
 GREATER THINGS.  --  RALPH WALDO EMERSON
 Job cpu time:  0 days  0 hours 25 minutes  5.1 seconds.
 File lengths (MBytes):  RWF=     18 Int=      0 D2E=      0 Chk=      3 Scr=      1
 Normal termination of Gaussian 09 at Sun Mar 27 11:44:49 2016.
