 Entering Gaussian System, Link 0=g09
 Input=diMe-sulfone.gjf
 Output=diMe-sulfone.out
 Initial command:
 /usr/local/g09/l1.exe /home/scratch/stylianakis/Gau-20415.inp -scrdir=/home/scratch/stylianakis/
 Entering Link 1 = /usr/local/g09/l1.exe PID=     20416.
  
 Copyright (c) 1988,1990,1992,1993,1995,1998,2003,2009, Gaussian, Inc.
                  All Rights Reserved.
  
 This is part of the Gaussian(R) 09 program.  It is based on
 the Gaussian(R) 03 system (copyright 2003, Gaussian, Inc.),
 the Gaussian(R) 98 system (copyright 1998, Gaussian, Inc.),
 the Gaussian(R) 94 system (copyright 1995, Gaussian, Inc.),
 the Gaussian 92(TM) system (copyright 1992, Gaussian, Inc.),
 the Gaussian 90(TM) system (copyright 1990, Gaussian, Inc.),
 the Gaussian 88(TM) system (copyright 1988, Gaussian, Inc.),
 the Gaussian 86(TM) system (copyright 1986, Carnegie Mellon
 University), and the Gaussian 82(TM) system (copyright 1983,
 Carnegie Mellon University). Gaussian is a federally registered
 trademark of Gaussian, Inc.
  
 This software contains proprietary and confidential information,
 including trade secrets, belonging to Gaussian, Inc.
  
 This software is provided under written license and may be
 used, copied, transmitted, or stored only in accord with that
 written license.
  
 The following legend is applicable only to US Government
 contracts under FAR:
  
                    RESTRICTED RIGHTS LEGEND
  
 Use, reproduction and disclosure by the US Government is
 subject to restrictions as set forth in subparagraphs (a)
 and (c) of the Commercial Computer Software - Restricted
 Rights clause in FAR 52.227-19.
  
 Gaussian, Inc.
 340 Quinnipiac St., Bldg. 40, Wallingford CT 06492
  
  
 ---------------------------------------------------------------
 Warning -- This program may not be used in any manner that
 competes with the business of Gaussian, Inc. or will provide
 assistance to any competitor of Gaussian, Inc.  The licensee
 of this program is prohibited from giving any competitor of
 Gaussian, Inc. access to this program.  By using this program,
 the user acknowledges that Gaussian, Inc. is engaged in the
 business of creating and licensing software in the field of
 computational chemistry and represents and warrants to the
 licensee that it is not a competitor of Gaussian, Inc. and that
 it will not use this program in any manner prohibited above.
 ---------------------------------------------------------------
  

 Cite this work as:
 Gaussian 09, Revision A.01,
 M. J. Frisch, G. W. Trucks, H. B. Schlegel, G. E. Scuseria, 
 M. A. Robb, J. R. Cheeseman, G. Scalmani, V. Barone, B. Mennucci, 
 G. A. Petersson, H. Nakatsuji, M. Caricato, X. Li, H. P. Hratchian, 
 A. F. Izmaylov, J. Bloino, G. Zheng, J. L. Sonnenberg, M. Hada, 
 M. Ehara, K. Toyota, R. Fukuda, J. Hasegawa, M. Ishida, T. Nakajima, 
 Y. Honda, O. Kitao, H. Nakai, T. Vreven, J. A. Montgomery, Jr., 
 J. E. Peralta, F. Ogliaro, M. Bearpark, J. J. Heyd, E. Brothers, 
 K. N. Kudin, V. N. Staroverov, R. Kobayashi, J. Normand, 
 K. Raghavachari, A. Rendell, J. C. Burant, S. S. Iyengar, J. Tomasi, 
 M. Cossi, N. Rega, J. M. Millam, M. Klene, J. E. Knox, J. B. Cross, 
 V. Bakken, C. Adamo, J. Jaramillo, R. Gomperts, R. E. Stratmann, 
 O. Yazyev, A. J. Austin, R. Cammi, C. Pomelli, J. W. Ochterski, 
 R. L. Martin, K. Morokuma, V. G. Zakrzewski, G. A. Voth, 
 P. Salvador, J. J. Dannenberg, S. Dapprich, A. D. Daniels, 
 O. Farkas, J. B. Foresman, J. V. Ortiz, J. Cioslowski, 
 and D. J. Fox, Gaussian, Inc., Wallingford CT, 2009.
 
 ******************************************
 Gaussian 09:  EM64L-G09RevA.01  8-May-2009
                27-Mar-2016 
 ******************************************
 %mem=16000Mb
 %nproc=8
 Will use up to    8 processors via shared memory.
 -----------------------
 # opt b3lyp/6-31+g(d,p)
 -----------------------
 1/14=-1,18=20,19=15,26=3,38=1/1,3;
 2/9=110,12=2,17=6,18=5,40=1/2;
 3/5=1,6=6,7=111,11=2,16=1,25=1,30=1,71=1,74=-5/1,2,3;
 4//1;
 5/5=2,38=5/2;
 6/7=2,8=2,9=2,10=2,28=1/1;
 7//1,2,3,16;
 1/14=-1,18=20,19=15/3(2);
 2/9=110/2;
 99//99;
 2/9=110/2;
 3/5=1,6=6,7=111,11=2,16=1,25=1,30=1,71=1,74=-5/1,2,3;
 4/5=5,16=3/1;
 5/5=2,38=5/2;
 7//1,2,3,16;
 1/14=-1,18=20,19=15/3(-5);
 2/9=110/2;
 6/7=2,8=2,9=2,10=2,19=2,28=1/1;
 99/9=1/99;
 ------------
 diMe-sulfone
 ------------
 Symbolic Z-matrix:
 Charge =  0 Multiplicity = 1
 C                     1.55752  -0.62094   0. 
 S                    -0.14848  -0.10394   0. 
 C                    -0.04948   1.67606   0. 
 O                    -0.77048  -0.53894  -1.235 
 O                    -0.77048  -0.53894   1.235 
 H                     2.06852  -0.22994   0.908 
 H                     2.06852  -0.22994  -0.908 
 H                    -1.07648   2.10406   0. 
 H                     0.49352   2.02206   0.908 
 H                     0.49352   2.02206  -0.908 
 H                     1.60752  -1.73294   0. 
 

 GradGradGradGradGradGradGradGradGradGradGradGradGradGradGradGradGradGrad
 Berny optimization.
 Initialization pass.
                           ----------------------------
                           !    Initial Parameters    !
                           ! (Angstroms and Degrees)  !
 --------------------------                            --------------------------
 ! Name  Definition              Value          Derivative Info.                !
 --------------------------------------------------------------------------------
 ! R1    R(1,2)                  1.7826         estimate D2E/DX2                !
 ! R2    R(1,6)                  1.1129         estimate D2E/DX2                !
 ! R3    R(1,7)                  1.1129         estimate D2E/DX2                !
 ! R4    R(1,11)                 1.1131         estimate D2E/DX2                !
 ! R5    R(2,3)                  1.7828         estimate D2E/DX2                !
 ! R6    R(2,4)                  1.4496         estimate D2E/DX2                !
 ! R7    R(2,5)                  1.4496         estimate D2E/DX2                !
 ! R8    R(3,8)                  1.1126         estimate D2E/DX2                !
 ! R9    R(3,9)                  1.1131         estimate D2E/DX2                !
 ! R10   R(3,10)                 1.1131         estimate D2E/DX2                !
 ! A1    A(2,1,6)              109.7272         estimate D2E/DX2                !
 ! A2    A(2,1,7)              109.7272         estimate D2E/DX2                !
 ! A3    A(2,1,11)             109.4338         estimate D2E/DX2                !
 ! A4    A(6,1,7)              109.3555         estimate D2E/DX2                !
 ! A5    A(6,1,11)             109.291          estimate D2E/DX2                !
 ! A6    A(7,1,11)             109.291          estimate D2E/DX2                !
 ! A7    A(1,2,3)              103.6759         estimate D2E/DX2                !
 ! A8    A(1,2,4)              108.8815         estimate D2E/DX2                !
 ! A9    A(1,2,5)              108.8815         estimate D2E/DX2                !
 ! A10   A(3,2,4)              108.8716         estimate D2E/DX2                !
 ! A11   A(3,2,5)              108.8716         estimate D2E/DX2                !
 ! A12   A(4,2,5)              116.8511         estimate D2E/DX2                !
 ! A13   A(2,3,8)              109.4404         estimate D2E/DX2                !
 ! A14   A(2,3,9)              109.7215         estimate D2E/DX2                !
 ! A15   A(2,3,10)             109.7215         estimate D2E/DX2                !
 ! A16   A(8,3,9)              109.3118         estimate D2E/DX2                !
 ! A17   A(8,3,10)             109.3118         estimate D2E/DX2                !
 ! A18   A(9,3,10)             109.3187         estimate D2E/DX2                !
 ! D1    D(6,1,2,3)             60.087          estimate D2E/DX2                !
 ! D2    D(6,1,2,4)            175.8748         estimate D2E/DX2                !
 ! D3    D(6,1,2,5)            -55.7008         estimate D2E/DX2                !
 ! D4    D(7,1,2,3)            -60.087          estimate D2E/DX2                !
 ! D5    D(7,1,2,4)             55.7008         estimate D2E/DX2                !
 ! D6    D(7,1,2,5)           -175.8748         estimate D2E/DX2                !
 ! D7    D(11,1,2,3)           180.0            estimate D2E/DX2                !
 ! D8    D(11,1,2,4)           -64.2122         estimate D2E/DX2                !
 ! D9    D(11,1,2,5)            64.2122         estimate D2E/DX2                !
 ! D10   D(1,2,3,8)            180.0            estimate D2E/DX2                !
 ! D11   D(1,2,3,9)            -60.0609         estimate D2E/DX2                !
 ! D12   D(1,2,3,10)            60.0609         estimate D2E/DX2                !
 ! D13   D(4,2,3,8)             64.2052         estimate D2E/DX2                !
 ! D14   D(4,2,3,9)           -175.8557         estimate D2E/DX2                !
 ! D15   D(4,2,3,10)           -55.7339         estimate D2E/DX2                !
 ! D16   D(5,2,3,8)            -64.2052         estimate D2E/DX2                !
 ! D17   D(5,2,3,9)             55.7339         estimate D2E/DX2                !
 ! D18   D(5,2,3,10)           175.8557         estimate D2E/DX2                !
 --------------------------------------------------------------------------------
 Trust Radius=3.00D-01 FncErr=1.00D-07 GrdErr=1.00D-06
 Number of steps in this run=  56 maximum allowed number of steps= 100.
 GradGradGradGradGradGradGradGradGradGradGradGradGradGradGradGradGradGrad

                          Input orientation:                          
 ---------------------------------------------------------------------
 Center     Atomic      Atomic             Coordinates (Angstroms)
 Number     Number       Type             X           Y           Z
 ---------------------------------------------------------------------
      1          6           0        1.557520   -0.620940    0.000000
      2         16           0       -0.148480   -0.103940    0.000000
      3          6           0       -0.049480    1.676060    0.000000
      4          8           0       -0.770480   -0.538940   -1.235000
      5          8           0       -0.770480   -0.538940    1.235000
      6          1           0        2.068520   -0.229940    0.908000
      7          1           0        2.068520   -0.229940   -0.908000
      8          1           0       -1.076480    2.104060    0.000000
      9          1           0        0.493520    2.022060    0.908000
     10          1           0        0.493520    2.022060   -0.908000
     11          1           0        1.607520   -1.732940    0.000000
 ---------------------------------------------------------------------
                    Distance matrix (angstroms):
                    1          2          3          4          5
     1  C    0.000000
     2  S    1.782617   0.000000
     3  C    2.803330   1.782751   0.000000
     4  O    2.636576   1.449598   2.636530   0.000000
     5  O    2.636576   1.449598   2.636530   2.470000   0.000000
     6  H    1.112864   2.399048   2.990522   3.570413   2.874427
     7  H    1.112864   2.399048   2.990522   2.874427   3.570413
     8  H    3.789932   2.395088   1.112615   2.933310   2.933310
     9  H    2.990319   2.399272   1.113117   3.570555   2.874604
    10  H    2.990319   2.399272   1.113117   2.874604   3.570555
    11  H    1.113124   2.395240   3.790373   2.933555   2.933555
                    6          7          8          9         10
     6  H    0.000000
     7  H    1.816000   0.000000
     8  H    4.020329   4.020329   0.000000
     9  H    2.748114   3.293932   1.815513   0.000000
    10  H    3.293932   2.748114   1.815513   1.816000   0.000000
    11  H    1.815487   1.815487   4.682566   4.020632   4.020632
                   11
    11  H    0.000000
 Stoichiometry    C2H6O2S
 Framework group  CS[SG(C2H2S),X(H4O2)]
 Deg. of freedom    16
 Full point group                 CS      NOp   2
 Largest Abelian subgroup         CS      NOp   2
 Largest concise Abelian subgroup CS      NOp   2
                         Standard orientation:                         
 ---------------------------------------------------------------------
 Center     Atomic      Atomic             Coordinates (Angstroms)
 Number     Number       Type             X           Y           Z
 ---------------------------------------------------------------------
      1          6           0        1.401476   -0.920490    0.000000
      2         16           0        0.000082    0.181245    0.000000
      3          6           0       -1.401854   -0.920017    0.000000
      4          8           0        0.000082    0.940264    1.235000
      5          8           0        0.000082    0.940264   -1.235000
      6          1           0        1.373918   -1.563329   -0.908000
      7          1           0        1.373918   -1.563329    0.908000
      8          1           0       -2.341174   -0.323702    0.000000
      9          1           0       -1.374196   -1.563289   -0.908000
     10          1           0       -1.374196   -1.563289    0.908000
     11          1           0        2.341392   -0.324167    0.000000
 ---------------------------------------------------------------------
 Rotational constants (GHZ):      4.5390751      4.2855052      4.0418528
 Standard basis: 6-31+G(d,p) (6D, 7F)
 There are    82 symmetry adapted basis functions of A'  symmetry.
 There are    47 symmetry adapted basis functions of A"  symmetry.
 Integral buffers will be    131072 words long.
 Raffenetti 2 integral format.
 Two-electron integral symmetry is turned on.
   129 basis functions,   226 primitive gaussians,   129 cartesian basis functions
    25 alpha electrons       25 beta electrons
       nuclear repulsion energy       273.2165479955 Hartrees.
 NAtoms=   11 NActive=   11 NUniq=    8 SFac= 1.42D+00 NAtFMM=   80 NAOKFM=F Big=F
 One-electron integrals computed using PRISM.
 NBasis=   129 RedAO= T  NBF=    82    47
 NBsUse=   129 1.00D-06 NBFU=    82    47
 Harris functional with IExCor=  402 diagonalized for initial guess.
 ExpMin= 4.05D-02 ExpMax= 2.19D+04 ExpMxC= 3.30D+03 IAcc=2 IRadAn=         0 AccDes= 0.00D+00
 HarFok:  IExCor=  402 AccDes= 0.00D+00 IRadAn=         0 IDoV= 1
 ScaDFX=  1.000000  1.000000  1.000000  1.000000
 FoFCou: FMM=F IPFlag=           0 FMFlag=      100000 FMFlg1=           0
         NFxFlg=           0 DoJE=T BraDBF=F KetDBF=T FulRan=T
         Omega=  0.000000  0.000000  1.000000  0.000000  0.000000 ICntrl=     500 IOpCl=  0
         NMat0=    1 NMatS0=    1 NMatT0=    0 NMatD0=    1 NMtDS0=    0 NMtDT0=    0
         I1Cent=           4 NGrid=           0.
 Petite list used in FoFCou.
 Initial guess orbital symmetries:
       Occupied  (A') (A') (A") (A') (A') (A') (A") (A') (A') (A')
                 (A") (A') (A') (A') (A') (A") (A') (A") (A') (A")
                 (A') (A') (A") (A") (A')
       Virtual   (A') (A') (A') (A") (A') (A') (A') (A") (A") (A')
                 (A') (A') (A') (A') (A") (A") (A') (A") (A') (A')
                 (A") (A') (A") (A') (A') (A") (A') (A') (A") (A')
                 (A') (A') (A") (A") (A') (A') (A') (A") (A') (A')
                 (A") (A') (A') (A") (A") (A') (A') (A') (A') (A')
                 (A") (A") (A") (A') (A') (A') (A') (A") (A') (A")
                 (A') (A") (A') (A") (A') (A") (A") (A') (A') (A")
                 (A") (A") (A") (A') (A") (A') (A') (A') (A") (A')
                 (A') (A") (A') (A") (A') (A') (A') (A") (A') (A")
                 (A') (A') (A") (A') (A') (A") (A') (A") (A') (A')
                 (A") (A') (A') (A')
 The electronic state of the initial guess is 1-A'.
 Requested convergence on RMS density matrix=1.00D-08 within 128 cycles.
 Requested convergence on MAX density matrix=1.00D-06.
 Requested convergence on             energy=1.00D-06.
 No special actions if energy rises.
 Keep R1 ints in memory in canonical form, NReq=36421547.
 SCF Done:  E(RB3LYP) =  -628.418127004     A.U. after   11 cycles
             Convg  =    0.6434D-08             -V/T =  2.0059

 **********************************************************************

            Population analysis using the SCF density.

 **********************************************************************

 Orbital symmetries:
       Occupied  (A') (A") (A') (A') (A') (A') (A") (A') (A') (A')
                 (A") (A') (A') (A') (A') (A') (A") (A") (A') (A')
                 (A") (A') (A") (A') (A")
       Virtual   (A') (A') (A') (A") (A') (A') (A") (A') (A") (A')
                 (A') (A') (A') (A") (A') (A') (A") (A") (A') (A')
                 (A") (A') (A") (A') (A') (A") (A') (A') (A') (A")
                 (A') (A') (A") (A") (A') (A') (A') (A') (A") (A')
                 (A") (A') (A') (A") (A") (A') (A') (A') (A') (A')
                 (A") (A") (A') (A") (A') (A') (A') (A') (A") (A")
                 (A") (A') (A') (A") (A') (A") (A") (A') (A') (A")
                 (A") (A") (A") (A') (A") (A') (A') (A') (A") (A')
                 (A') (A") (A') (A") (A') (A') (A') (A") (A') (A")
                 (A') (A') (A") (A') (A') (A") (A') (A") (A') (A')
                 (A") (A') (A') (A')
 The electronic state is 1-A'.
 Alpha  occ. eigenvalues --  -89.10735 -19.14628 -19.14628 -10.24384 -10.24382
 Alpha  occ. eigenvalues --   -8.13668  -6.10091  -6.10028  -6.10001  -1.12090
 Alpha  occ. eigenvalues --   -1.00946  -0.81137  -0.75572  -0.60996  -0.51732
 Alpha  occ. eigenvalues --   -0.49769  -0.48847  -0.44979  -0.44976  -0.42924
 Alpha  occ. eigenvalues --   -0.42876  -0.34165  -0.32342  -0.30551  -0.30312
 Alpha virt. eigenvalues --   -0.01538   0.01330   0.01933   0.02877   0.04298
 Alpha virt. eigenvalues --    0.04996   0.05984   0.06120   0.06653   0.07325
 Alpha virt. eigenvalues --    0.09838   0.11477   0.11699   0.13081   0.13369
 Alpha virt. eigenvalues --    0.13552   0.14516   0.16449   0.17873   0.20854
 Alpha virt. eigenvalues --    0.23043   0.24097   0.26418   0.28686   0.29694
 Alpha virt. eigenvalues --    0.30963   0.31048   0.31727   0.33216   0.33348
 Alpha virt. eigenvalues --    0.49280   0.49426   0.56142   0.56777   0.58458
 Alpha virt. eigenvalues --    0.61029   0.61424   0.69827   0.71350   0.76915
 Alpha virt. eigenvalues --    0.78675   0.79558   0.89328   0.91237   0.91954
 Alpha virt. eigenvalues --    0.93671   0.94804   1.01919   1.08258   1.08433
 Alpha virt. eigenvalues --    1.10831   1.22507   1.23036   1.24519   1.25081
 Alpha virt. eigenvalues --    1.28744   1.31542   1.31818   1.33435   1.40091
 Alpha virt. eigenvalues --    1.46996   1.47304   1.57298   1.69552   1.70844
 Alpha virt. eigenvalues --    1.79321   1.82333   1.85255   1.85336   1.97870
 Alpha virt. eigenvalues --    1.98003   1.99050   1.99574   2.01232   2.01985
 Alpha virt. eigenvalues --    2.02375   2.04178   2.08279   2.11322   2.14138
 Alpha virt. eigenvalues --    2.24687   2.28649   2.30843   2.31904   2.36158
 Alpha virt. eigenvalues --    2.56313   2.59221   2.73809   2.74450   2.76879
 Alpha virt. eigenvalues --    2.77022   2.84623   2.92137   3.12732   3.14738
 Alpha virt. eigenvalues --    3.34544   3.35797   3.35931   3.36115   3.95770
 Alpha virt. eigenvalues --    4.12069   4.14565   4.40486   4.42245
          Condensed to atoms (all electrons):
              1          2          3          4          5          6
     1  C    5.757932   0.122835  -0.169471  -0.138918  -0.138918   0.351472
     2  S    0.122835  14.249727   0.123277   0.290917   0.290917  -0.007142
     3  C   -0.169471   0.123277   5.757522  -0.138945  -0.138945   0.001713
     4  O   -0.138918   0.290917  -0.138945   8.748668  -0.193702   0.008292
     5  O   -0.138918   0.290917  -0.138945  -0.193702   8.748668  -0.007641
     6  H    0.351472  -0.007142   0.001713   0.008292  -0.007641   0.509461
     7  H    0.351472  -0.007142   0.001713  -0.007641   0.008292  -0.028620
     8  H    0.011704  -0.020453   0.379648  -0.004511  -0.004511   0.000018
     9  H    0.001731  -0.007188   0.351472   0.008294  -0.007644  -0.000457
    10  H    0.001731  -0.007188   0.351472  -0.007644   0.008294   0.000132
    11  H    0.379596  -0.020477   0.011710  -0.004511  -0.004511  -0.017705
              7          8          9         10         11
     1  C    0.351472   0.011704   0.001731   0.001731   0.379596
     2  S   -0.007142  -0.020453  -0.007188  -0.007188  -0.020477
     3  C    0.001713   0.379648   0.351472   0.351472   0.011710
     4  O   -0.007641  -0.004511   0.008294  -0.007644  -0.004511
     5  O    0.008292  -0.004511  -0.007644   0.008294  -0.004511
     6  H   -0.028620   0.000018  -0.000457   0.000132  -0.017705
     7  H    0.509461   0.000018   0.000132  -0.000457  -0.017705
     8  H    0.000018   0.458896  -0.017694  -0.017694  -0.000046
     9  H    0.000132  -0.017694   0.509563  -0.028646   0.000018
    10  H   -0.000457  -0.017694  -0.028646   0.509563   0.000018
    11  H   -0.017705  -0.000046   0.000018   0.000018   0.459015
 Mulliken atomic charges:
              1
     1  C   -0.531167
     2  S    0.991918
     3  C   -0.531168
     4  O   -0.560298
     5  O   -0.560298
     6  H    0.190477
     7  H    0.190477
     8  H    0.214624
     9  H    0.190418
    10  H    0.190418
    11  H    0.214598
 Sum of Mulliken atomic charges =   0.00000
 Mulliken charges with hydrogens summed into heavy atoms:
              1
     1  C    0.064386
     2  S    0.991918
     3  C    0.064293
     4  O   -0.560298
     5  O   -0.560298
 Sum of Mulliken charges with hydrogens summed into heavy atoms =   0.00000
 Electronic spatial extent (au):  <R**2>=            459.1840
 Charge=              0.0000 electrons
 Dipole moment (field-independent basis, Debye):
    X=              0.0004    Y=             -5.0971    Z=              0.0000  Tot=              5.0971
 Quadrupole moment (field-independent basis, Debye-Ang):
   XX=            -31.7055   YY=            -39.2963   ZZ=            -44.1441
   XY=             -0.0019   XZ=              0.0000   YZ=              0.0000
 Traceless Quadrupole moment (field-independent basis, Debye-Ang):
   XX=              6.6764   YY=             -0.9143   ZZ=             -5.7621
   XY=             -0.0019   XZ=              0.0000   YZ=              0.0000
 Octapole moment (field-independent basis, Debye-Ang**2):
  XXX=              0.0038  YYY=             -2.2680  ZZZ=              0.0000  XYY=              0.0005
  XXY=             -0.2090  XXZ=              0.0000  XZZ=              0.0008  YZZ=             -8.2344
  YYZ=              0.0000  XYZ=              0.0000
 Hexadecapole moment (field-independent basis, Debye-Ang**3):
 XXXX=           -213.5626 YYYY=           -202.4647 ZZZZ=           -172.9205 XXXY=             -0.0072
 XXXZ=              0.0000 YYYX=             -0.0008 YYYZ=              0.0000 ZZZX=              0.0000
 ZZZY=              0.0000 XXYY=            -72.3262 XXZZ=            -67.2716 YYZZ=            -60.8968
 XXYZ=              0.0000 YYXZ=              0.0000 ZZXY=             -0.0028
 N-N= 2.732165479955D+02 E-N=-2.029357319988D+03  KE= 6.247447394303D+02
 Symmetry A'   KE= 5.073179298745D+02
 Symmetry A"   KE= 1.174268095558D+02
 Calling FoFJK, ICntrl=      2127 FMM=F ISym2X=1 I1Cent= 0 IOpClX= 0 NMat=1 NMatS=1 NMatT=0.
 ***** Axes restored to original set *****
 -------------------------------------------------------------------
 Center     Atomic                   Forces (Hartrees/Bohr)
 Number     Number              X              Y              Z
 -------------------------------------------------------------------
      1        6           0.027405529   -0.002145279    0.000000000
      2       16          -0.000881608   -0.000517246    0.000000000
      3        6           0.007868852    0.026401839    0.000000000
      4        8          -0.006161460   -0.004331417   -0.029148357
      5        8          -0.006161460   -0.004331417    0.029148357
      6        1          -0.006763656   -0.004985954   -0.009401834
      7        1          -0.006763656   -0.004985954    0.009401834
      8        1           0.010706237   -0.009236391    0.000000000
      9        1          -0.007109872   -0.004686774   -0.009492014
     10        1          -0.007109872   -0.004686774    0.009492014
     11        1          -0.005029034    0.013505369    0.000000000
 -------------------------------------------------------------------
 Cartesian Forces:  Max     0.029148357 RMS     0.011519734

 GradGradGradGradGradGradGradGradGradGradGradGradGradGradGradGradGradGrad
 Berny optimization.
 Internal  Forces:  Max     0.028776819 RMS     0.008190256
 Search for a local minimum.
 Step number   1 out of a maximum of   56
 All quantities printed in internal units (Hartrees-Bohrs-Radians)
 Mixed Optimization -- RFO/linear search
 Second derivative matrix not updated -- first step.
     Eigenvalues ---    0.00598   0.00600   0.05910   0.05912   0.05943
     Eigenvalues ---    0.05946   0.07587   0.07891   0.10352   0.16000
     Eigenvalues ---    0.16000   0.16000   0.16000   0.16000   0.16000
     Eigenvalues ---    0.16859   0.25000   0.27524   0.27535   0.32272
     Eigenvalues ---    0.32272   0.32272   0.32299   0.32299   0.32325
     Eigenvalues ---    0.96119   0.961191000.000001000.000001000.00000
     Eigenvalues --- 1000.000001000.000001000.000001000.000001000.00000
     Eigenvalues --- 1000.000001000.000001000.000001000.000001000.00000
     Eigenvalues --- 1000.000001000.000001000.000001000.000001000.00000
     Eigenvalues --- 1000.00000
 RFO step:  Lambda=-7.95161629D-03 EMin= 5.98473065D-03
 Linear search not attempted -- first point.
 Iteration  1 RMS(Cart)=  0.02580747 RMS(Int)=  0.00061665
 Iteration  2 RMS(Cart)=  0.00075310 RMS(Int)=  0.00020617
 Iteration  3 RMS(Cart)=  0.00000036 RMS(Int)=  0.00020617
 ClnCor:  largest displacement from symmetrization is 1.09D-10 for atom    10.
 Variable       Old X    -DE/DX   Delta X   Delta X   Delta X     New X
                                 (Linear)    (Quad)   (Total)
    R1        3.36866   0.00807   0.00000   0.02847   0.02847   3.39713
    R2        2.10301  -0.01253   0.00000  -0.03786  -0.03786   2.06515
    R3        2.10301  -0.01253   0.00000  -0.03786  -0.03786   2.06515
    R4        2.10350  -0.01372   0.00000  -0.04148  -0.04148   2.06201
    R5        3.36891   0.00802   0.00000   0.02833   0.02833   3.39724
    R6        2.73934   0.02878   0.00000   0.02969   0.02969   2.76904
    R7        2.73934   0.02878   0.00000   0.02969   0.02969   2.76904
    R8        2.10254  -0.01344   0.00000  -0.04057  -0.04057   2.06197
    R9        2.10349  -0.01267   0.00000  -0.03831  -0.03831   2.06518
   R10        2.10349  -0.01267   0.00000  -0.03831  -0.03831   2.06518
    A1        1.91510   0.00020   0.00000   0.00423   0.00406   1.91917
    A2        1.91510   0.00020   0.00000   0.00423   0.00406   1.91917
    A3        1.90998  -0.00680   0.00000  -0.04654  -0.04676   1.86322
    A4        1.90861   0.00147   0.00000   0.02071   0.02059   1.92920
    A5        1.90749   0.00248   0.00000   0.00874   0.00851   1.91600
    A6        1.90749   0.00248   0.00000   0.00874   0.00851   1.91600
    A7        1.80949  -0.00030   0.00000  -0.02492  -0.02555   1.78394
    A8        1.90034  -0.00180   0.00000  -0.01386  -0.01431   1.88603
    A9        1.90034  -0.00180   0.00000  -0.01386  -0.01431   1.88603
   A10        1.90017  -0.00177   0.00000  -0.01364  -0.01408   1.88608
   A11        1.90017  -0.00177   0.00000  -0.01364  -0.01408   1.88608
   A12        2.03944   0.00664   0.00000   0.06892   0.06918   2.10861
   A13        1.91010  -0.00679   0.00000  -0.04657  -0.04680   1.86330
   A14        1.91500   0.00020   0.00000   0.00428   0.00411   1.91911
   A15        1.91500   0.00020   0.00000   0.00428   0.00411   1.91911
   A16        1.90785   0.00246   0.00000   0.00855   0.00832   1.91617
   A17        1.90785   0.00246   0.00000   0.00855   0.00832   1.91617
   A18        1.90797   0.00150   0.00000   0.02105   0.02092   1.92889
    D1        1.04872   0.00103   0.00000   0.01539   0.01536   1.06408
    D2        3.06960  -0.00192   0.00000  -0.01863  -0.01851   3.05108
    D3       -0.97216   0.00399   0.00000   0.04941   0.04923  -0.92293
    D4       -1.04872  -0.00103   0.00000  -0.01539  -0.01536  -1.06408
    D5        0.97216  -0.00399   0.00000  -0.04941  -0.04923   0.92293
    D6       -3.06960   0.00192   0.00000   0.01863   0.01851  -3.05108
    D7        3.14159   0.00000   0.00000   0.00000   0.00000   3.14159
    D8       -1.12071  -0.00295   0.00000  -0.03402  -0.03387  -1.15459
    D9        1.12071   0.00295   0.00000   0.03402   0.03387   1.15459
   D10        3.14159   0.00000   0.00000   0.00000   0.00000   3.14159
   D11       -1.04826  -0.00105   0.00000  -0.01562  -0.01559  -1.06385
   D12        1.04826   0.00105   0.00000   0.01562   0.01559   1.06385
   D13        1.12059   0.00297   0.00000   0.03418   0.03403   1.15462
   D14       -3.06926   0.00192   0.00000   0.01856   0.01844  -3.05082
   D15       -0.97274   0.00402   0.00000   0.04980   0.04962  -0.92312
   D16       -1.12059  -0.00297   0.00000  -0.03418  -0.03403  -1.15462
   D17        0.97274  -0.00402   0.00000  -0.04980  -0.04962   0.92312
   D18        3.06926  -0.00192   0.00000  -0.01856  -0.01844   3.05082
         Item               Value     Threshold  Converged?
 Maximum Force            0.028777     0.000450     NO 
 RMS     Force            0.008190     0.000300     NO 
 Maximum Displacement     0.074025     0.001800     NO 
 RMS     Displacement     0.025908     0.001200     NO 
 Predicted change in Energy=-4.123975D-03
 GradGradGradGradGradGradGradGradGradGradGradGradGradGradGradGradGradGrad

                          Input orientation:                          
 ---------------------------------------------------------------------
 Center     Atomic      Atomic             Coordinates (Angstroms)
 Number     Number       Type             X           Y           Z
 ---------------------------------------------------------------------
      1          6           0        1.565947   -0.612090    0.000000
      2         16           0       -0.160953   -0.112603    0.000000
      3          6           0       -0.038062    1.680932    0.000000
      4          8           0       -0.753866   -0.527421   -1.274173
      5          8           0       -0.753866   -0.527421    1.274173
      6          1           0        2.062821   -0.236868    0.898111
      7          1           0        2.062821   -0.236868   -0.898111
      8          1           0       -1.058912    2.066251    0.000000
      9          1           0        0.484992    2.018971    0.898027
     10          1           0        0.484992    2.018971   -0.898027
     11          1           0        1.577806   -1.703196    0.000000
 ---------------------------------------------------------------------
                    Distance matrix (angstroms):
                    1          2          3          4          5
     1  C    0.000000
     2  S    1.797684   0.000000
     3  C    2.798356   1.797741   0.000000
     4  O    2.648059   1.465311   2.648153   0.000000
     5  O    2.648059   1.465311   2.648153   2.548345   0.000000
     6  H    1.092830   2.401503   2.982997   3.568888   2.856496
     7  H    1.092830   2.401503   2.982997   2.856496   3.568888
     8  H    3.750119   2.356637   1.091149   2.905805   2.905805
     9  H    2.982851   2.401522   1.092844   3.568940   2.856636
    10  H    2.982851   2.401522   1.092844   2.856636   3.568940
    11  H    1.091171   2.356538   3.750114   2.905625   2.905625
                    6          7          8          9         10
     6  H    0.000000
     7  H    1.796221   0.000000
     8  H    3.981982   3.981982   0.000000
     9  H    2.752881   3.287015   1.786709   0.000000
    10  H    3.287015   2.752881   1.786709   1.796053   0.000000
    11  H    1.786606   1.786606   4.600111   3.981862   3.981862
                   11
    11  H    0.000000
 Stoichiometry    C2H6O2S
 Framework group  CS[SG(C2H2S),X(H4O2)]
 Deg. of freedom    16
 Full point group                 CS      NOp   2
 Largest Abelian subgroup         CS      NOp   2
 Largest concise Abelian subgroup CS      NOp   2
                         Standard orientation:                         
 ---------------------------------------------------------------------
 Center     Atomic      Atomic             Coordinates (Angstroms)
 Number     Number       Type             X           Y           Z
 ---------------------------------------------------------------------
      1          6           0       -1.676242   -0.102214    0.000000
      2         16           0        0.120527   -0.159539    0.000000
      3          6           0        0.556646    1.584500    0.000000
      4          8           0        0.556646   -0.736965    1.274173
      5          8           0        0.556646   -0.736965   -1.274173
      6          1           0       -2.033211    0.407933   -0.898111
      7          1           0       -2.033211    0.407933    0.898111
      8          1           0        1.646566    1.636274    0.000000
      9          1           0        0.163309    2.067348   -0.898027
     10          1           0        0.163309    2.067348    0.898027
     11          1           0       -2.023958   -1.136500    0.000000
 ---------------------------------------------------------------------
 Rotational constants (GHZ):      4.4383634      4.1949542      4.0768056
 Standard basis: 6-31+G(d,p) (6D, 7F)
 There are    82 symmetry adapted basis functions of A'  symmetry.
 There are    47 symmetry adapted basis functions of A"  symmetry.
 Integral buffers will be    131072 words long.
 Raffenetti 2 integral format.
 Two-electron integral symmetry is turned on.
   129 basis functions,   226 primitive gaussians,   129 cartesian basis functions
    25 alpha electrons       25 beta electrons
       nuclear repulsion energy       271.7413934409 Hartrees.
 NAtoms=   11 NActive=   11 NUniq=    8 SFac= 1.42D+00 NAtFMM=   80 NAOKFM=F Big=F
 One-electron integrals computed using PRISM.
 NBasis=   129 RedAO= T  NBF=    82    47
 NBsUse=   129 1.00D-06 NBFU=    82    47
 Initial guess read from the read-write file.
 B after Tr=     0.000000    0.000000    0.000000
         Rot=    1.000000    0.000000    0.000000    0.000000 Ang=   0.00 deg.
 Initial guess orbital symmetries:
       Occupied  (A') (A") (A') (A') (A') (A') (A") (A') (A') (A')
                 (A") (A') (A') (A') (A') (A') (A") (A") (A') (A')
                 (A") (A') (A") (A') (A")
       Virtual   (A') (A') (A') (A") (A') (A') (A") (A') (A") (A')
                 (A') (A') (A') (A") (A') (A') (A") (A") (A') (A')
                 (A") (A') (A") (A') (A') (A") (A') (A') (A') (A")
                 (A') (A') (A") (A") (A') (A') (A') (A') (A") (A')
                 (A") (A') (A') (A") (A") (A') (A') (A') (A') (A')
                 (A") (A") (A') (A") (A') (A') (A') (A') (A") (A")
                 (A") (A') (A') (A") (A') (A") (A") (A') (A') (A")
                 (A") (A") (A") (A') (A") (A') (A') (A') (A") (A')
                 (A') (A") (A') (A") (A') (A') (A') (A") (A') (A")
                 (A') (A') (A") (A') (A') (A") (A') (A") (A') (A')
                 (A") (A') (A') (A')
 Harris functional with IExCor=  402 diagonalized for initial guess.
 ExpMin= 4.05D-02 ExpMax= 2.19D+04 ExpMxC= 3.30D+03 IAcc=2 IRadAn=         0 AccDes= 0.00D+00
 HarFok:  IExCor=  402 AccDes= 0.00D+00 IRadAn=         0 IDoV= 1
 ScaDFX=  1.000000  1.000000  1.000000  1.000000
 FoFCou: FMM=F IPFlag=           0 FMFlag=      100000 FMFlg1=           0
         NFxFlg=           0 DoJE=T BraDBF=F KetDBF=T FulRan=T
         Omega=  0.000000  0.000000  1.000000  0.000000  0.000000 ICntrl=     500 IOpCl=  0
         NMat0=    1 NMatS0=    1 NMatT0=    0 NMatD0=    1 NMtDS0=    0 NMtDT0=    0
         I1Cent=           4 NGrid=           0.
 Petite list used in FoFCou.
 Requested convergence on RMS density matrix=1.00D-08 within 128 cycles.
 Requested convergence on MAX density matrix=1.00D-06.
 Requested convergence on             energy=1.00D-06.
 No special actions if energy rises.
 Keep R1 ints in memory in canonical form, NReq=36421547.
 SCF Done:  E(RB3LYP) =  -628.422426318     A.U. after   13 cycles
             Convg  =    0.1021D-08             -V/T =  2.0058
 Calling FoFJK, ICntrl=      2127 FMM=F ISym2X=1 I1Cent= 0 IOpClX= 0 NMat=1 NMatS=1 NMatT=0.
 ***** Axes restored to original set *****
 -------------------------------------------------------------------
 Center     Atomic                   Forces (Hartrees/Bohr)
 Number     Number              X              Y              Z
 -------------------------------------------------------------------
      1        6           0.007278394   -0.002209876    0.000000000
      2       16           0.007162728    0.004909793    0.000000000
      3        6           0.000457715    0.007594979    0.000000000
      4        8          -0.004071604   -0.002859383   -0.007329176
      5        8          -0.004071604   -0.002859383    0.007329176
      6        1          -0.001725435   -0.000237796    0.000118175
      7        1          -0.001725435   -0.000237796   -0.000118175
      8        1          -0.000878176   -0.000417579    0.000000000
      9        1          -0.000860929   -0.001505974    0.000142089
     10        1          -0.000860929   -0.001505974   -0.000142089
     11        1          -0.000704724   -0.000671011    0.000000000
 -------------------------------------------------------------------
 Cartesian Forces:  Max     0.007594979 RMS     0.003312742

 GradGradGradGradGradGradGradGradGradGradGradGradGradGradGradGradGradGrad
 Berny optimization.
 Using GEDIIS/GDIIS optimizer.
 Internal  Forces:  Max     0.008830118 RMS     0.002341087
 Search for a local minimum.
 Step number   2 out of a maximum of   56
 All quantities printed in internal units (Hartrees-Bohrs-Radians)
 Mixed Optimization -- RFO/linear search
 Update second derivatives using D2CorX and points    1    2
 DE= -4.30D-03 DEPred=-4.12D-03 R= 1.04D+00
 SS=  1.41D+00  RLast= 2.03D-01 DXNew= 5.0454D-01 6.0808D-01
 Trust test= 1.04D+00 RLast= 2.03D-01 DXMaxT set to 5.05D-01
 Use linear search instead of GDIIS.
     Eigenvalues ---    0.00598   0.00600   0.05816   0.05863   0.06243
     Eigenvalues ---    0.06245   0.08111   0.09360   0.09866   0.14984
     Eigenvalues ---    0.16000   0.16000   0.16000   0.16000   0.16398
     Eigenvalues ---    0.16485   0.23618   0.26486   0.27530   0.32105
     Eigenvalues ---    0.32272   0.32286   0.32299   0.32299   0.34469
     Eigenvalues ---    0.86465   0.961191000.000001000.000001000.00000
     Eigenvalues --- 1000.000001000.000001000.000001000.000001000.00000
     Eigenvalues --- 1000.000001000.000001000.000001000.000001000.00000
     Eigenvalues --- 1000.000001000.000001000.000001000.000001000.00000
     Eigenvalues --- 1000.00000
 RFO step:  Lambda=-7.12341998D-04 EMin= 5.98473065D-03
 Quartic linear search produced a step of  0.08945.
 Iteration  1 RMS(Cart)=  0.02034102 RMS(Int)=  0.00017822
 Iteration  2 RMS(Cart)=  0.00019614 RMS(Int)=  0.00004656
 Iteration  3 RMS(Cart)=  0.00000002 RMS(Int)=  0.00004656
 ClnCor:  largest displacement from symmetrization is 9.14D-11 for atom     7.
 Variable       Old X    -DE/DX   Delta X   Delta X   Delta X     New X
                                 (Linear)    (Quad)   (Total)
    R1        3.39713   0.00392   0.00255   0.01551   0.01806   3.41519
    R2        2.06515  -0.00077  -0.00339  -0.00267  -0.00606   2.05909
    R3        2.06515  -0.00077  -0.00339  -0.00267  -0.00606   2.05909
    R4        2.06201   0.00067  -0.00371   0.00219  -0.00152   2.06049
    R5        3.39724   0.00402   0.00253   0.01594   0.01847   3.41571
    R6        2.76904   0.00883   0.00266   0.01010   0.01276   2.78179
    R7        2.76904   0.00883   0.00266   0.01010   0.01276   2.78179
    R8        2.06197   0.00067  -0.00363   0.00218  -0.00145   2.06052
    R9        2.06518  -0.00076  -0.00343  -0.00262  -0.00604   2.05913
   R10        2.06518  -0.00076  -0.00343  -0.00262  -0.00604   2.05913
    A1        1.91917  -0.00153   0.00036  -0.00974  -0.00943   1.90973
    A2        1.91917  -0.00153   0.00036  -0.00974  -0.00943   1.90973
    A3        1.86322  -0.00065  -0.00418  -0.00568  -0.00995   1.85327
    A4        1.92920   0.00189   0.00184   0.01529   0.01711   1.94631
    A5        1.91600   0.00087   0.00076   0.00456   0.00522   1.92122
    A6        1.91600   0.00087   0.00076   0.00456   0.00522   1.92122
    A7        1.78394   0.00544  -0.00229   0.03036   0.02800   1.81194
    A8        1.88603  -0.00118  -0.00128  -0.00301  -0.00436   1.88167
    A9        1.88603  -0.00118  -0.00128  -0.00301  -0.00436   1.88167
   A10        1.88608  -0.00118  -0.00126  -0.00301  -0.00435   1.88174
   A11        1.88608  -0.00118  -0.00126  -0.00301  -0.00435   1.88174
   A12        2.10861   0.00027   0.00619  -0.01089  -0.00474   2.10388
   A13        1.86330  -0.00062  -0.00419  -0.00557  -0.00985   1.85345
   A14        1.91911  -0.00150   0.00037  -0.00947  -0.00916   1.90995
   A15        1.91911  -0.00150   0.00037  -0.00947  -0.00916   1.90995
   A16        1.91617   0.00082   0.00074   0.00416   0.00481   1.92098
   A17        1.91617   0.00082   0.00074   0.00416   0.00481   1.92098
   A18        1.92889   0.00188   0.00187   0.01543   0.01728   1.94618
    D1        1.06408   0.00018   0.00137   0.00318   0.00453   1.06861
    D2        3.05108   0.00087  -0.00166   0.01239   0.01072   3.06180
    D3       -0.92293  -0.00051   0.00440  -0.00604  -0.00166  -0.92459
    D4       -1.06408  -0.00018  -0.00137  -0.00318  -0.00453  -1.06861
    D5        0.92293   0.00051  -0.00440   0.00604   0.00166   0.92459
    D6       -3.05108  -0.00087   0.00166  -0.01239  -0.01072  -3.06180
    D7        3.14159   0.00000   0.00000   0.00000   0.00000   3.14159
    D8       -1.15459   0.00069  -0.00303   0.00921   0.00619  -1.14840
    D9        1.15459  -0.00069   0.00303  -0.00921  -0.00619   1.14840
   D10        3.14159   0.00000   0.00000   0.00000   0.00000   3.14159
   D11       -1.06385  -0.00019  -0.00139  -0.00344  -0.00482  -1.06867
   D12        1.06385   0.00019   0.00139   0.00344   0.00482   1.06867
   D13        1.15462  -0.00069   0.00304  -0.00922  -0.00618   1.14844
   D14       -3.05082  -0.00089   0.00165  -0.01266  -0.01100  -3.06182
   D15       -0.92312  -0.00050   0.00444  -0.00578  -0.00137  -0.92448
   D16       -1.15462   0.00069  -0.00304   0.00922   0.00618  -1.14844
   D17        0.92312   0.00050  -0.00444   0.00578   0.00137   0.92448
   D18        3.05082   0.00089  -0.00165   0.01266   0.01100   3.06182
         Item               Value     Threshold  Converged?
 Maximum Force            0.008830     0.000450     NO 
 RMS     Force            0.002341     0.000300     NO 
 Maximum Displacement     0.045446     0.001800     NO 
 RMS     Displacement     0.020241     0.001200     NO 
 Predicted change in Energy=-3.869668D-04
 GradGradGradGradGradGradGradGradGradGradGradGradGradGradGradGradGradGrad

                          Input orientation:                          
 ---------------------------------------------------------------------
 Center     Atomic      Atomic             Coordinates (Angstroms)
 Number     Number       Type             X           Y           Z
 ---------------------------------------------------------------------
      1          6           0        1.583065   -0.628591    0.000000
      2         16           0       -0.145810   -0.102179    0.000000
      3          6           0       -0.047493    1.702661    0.000000
      4          8           0       -0.743934   -0.520649   -1.278318
      5          8           0       -0.743934   -0.520649    1.278318
      6          1           0        2.073717   -0.260917    0.900755
      7          1           0        2.073717   -0.260917   -0.900755
      8          1           0       -1.076514    2.063282    0.000000
      9          1           0        0.466058    2.037740    0.900732
     10          1           0        0.466058    2.037740   -0.900732
     11          1           0        1.568788   -1.718861    0.000000
 ---------------------------------------------------------------------
                    Distance matrix (angstroms):
                    1          2          3          4          5
     1  C    0.000000
     2  S    1.807240   0.000000
     3  C    2.844899   1.807516   0.000000
     4  O    2.657192   1.472062   2.657486   0.000000
     5  O    2.657192   1.472062   2.657486   2.556636   0.000000
     6  H    1.089625   2.400595   3.027628   3.571411   2.854676
     7  H    1.089625   2.400595   3.027628   2.854676   3.571411
     8  H    3.784116   2.356996   1.090381   2.901966   2.901966
     9  H    3.027927   2.401031   1.089647   3.571791   2.855171
    10  H    3.027927   2.401031   1.089647   2.855171   3.571791
    11  H    1.090364   2.356588   3.784069   2.901464   2.901464
                    6          7          8          9         10
     6  H    0.000000
     7  H    1.801509   0.000000
     8  H    4.017115   4.017115   0.000000
     9  H    2.805065   3.333728   1.786476   0.000000
    10  H    3.333728   2.805065   1.786476   1.801464   0.000000
    11  H    1.786593   1.786593   4.615434   4.017385   4.017385
                   11
    11  H    0.000000
 Stoichiometry    C2H6O2S
 Framework group  CS[SG(C2H2S),X(H4O2)]
 Deg. of freedom    16
 Full point group                 CS      NOp   2
 Largest Abelian subgroup         CS      NOp   2
 Largest concise Abelian subgroup CS      NOp   2
                         Standard orientation:                         
 ---------------------------------------------------------------------
 Center     Atomic      Atomic             Coordinates (Angstroms)
 Number     Number       Type             X           Y           Z
 ---------------------------------------------------------------------
      1          6           0       -0.562607    1.599866    0.000000
      2         16           0       -0.116871   -0.151544    0.000000
      3          6           0        1.690586   -0.136964    0.000000
      4          8           0       -0.562607   -0.729635    1.278318
      5          8           0       -0.562607   -0.729635   -1.278318
      6          1           0       -0.172593    2.072954   -0.900755
      7          1           0       -0.172593    2.072954    0.900755
      8          1           0        2.003138   -1.181589    0.000000
      9          1           0        2.049101    0.360509   -0.900732
     10          1           0        2.049101    0.360509    0.900732
     11          1           0       -1.652368    1.636124    0.000000
 ---------------------------------------------------------------------
 Rotational constants (GHZ):      4.4503688      4.1164572      4.0353223
 Standard basis: 6-31+G(d,p) (6D, 7F)
 There are    82 symmetry adapted basis functions of A'  symmetry.
 There are    47 symmetry adapted basis functions of A"  symmetry.
 Integral buffers will be    131072 words long.
 Raffenetti 2 integral format.
 Two-electron integral symmetry is turned on.
   129 basis functions,   226 primitive gaussians,   129 cartesian basis functions
    25 alpha electrons       25 beta electrons
       nuclear repulsion energy       270.6803918250 Hartrees.
 NAtoms=   11 NActive=   11 NUniq=    8 SFac= 1.42D+00 NAtFMM=   80 NAOKFM=F Big=F
 One-electron integrals computed using PRISM.
 NBasis=   129 RedAO= T  NBF=    82    47
 NBsUse=   129 1.00D-06 NBFU=    82    47
 Initial guess read from the read-write file.
 B after Tr=     0.000000    0.000000    0.000000
         Rot=    1.000000    0.000000    0.000000    0.000000 Ang=   0.00 deg.
 Initial guess orbital symmetries:
       Occupied  (A') (A") (A') (A') (A') (A') (A") (A') (A') (A')
                 (A") (A') (A') (A') (A') (A') (A") (A") (A') (A")
                 (A') (A') (A") (A") (A')
       Virtual   (A') (A') (A') (A") (A') (A') (A') (A") (A") (A')
                 (A') (A') (A') (A') (A') (A") (A") (A") (A') (A')
                 (A") (A') (A") (A') (A') (A") (A') (A') (A") (A')
                 (A') (A') (A") (A") (A') (A') (A') (A') (A") (A')
                 (A") (A') (A') (A") (A") (A') (A') (A') (A") (A')
                 (A') (A") (A") (A') (A') (A') (A") (A') (A') (A")
                 (A") (A') (A') (A') (A") (A") (A") (A') (A') (A")
                 (A") (A") (A") (A') (A") (A') (A') (A') (A") (A')
                 (A') (A") (A') (A") (A') (A') (A') (A') (A") (A')
                 (A") (A') (A") (A') (A') (A") (A") (A') (A') (A')
                 (A") (A') (A') (A')
 Harris functional with IExCor=  402 diagonalized for initial guess.
 ExpMin= 4.05D-02 ExpMax= 2.19D+04 ExpMxC= 3.30D+03 IAcc=2 IRadAn=         0 AccDes= 0.00D+00
 HarFok:  IExCor=  402 AccDes= 0.00D+00 IRadAn=         0 IDoV= 1
 ScaDFX=  1.000000  1.000000  1.000000  1.000000
 FoFCou: FMM=F IPFlag=           0 FMFlag=      100000 FMFlg1=           0
         NFxFlg=           0 DoJE=T BraDBF=F KetDBF=T FulRan=T
         Omega=  0.000000  0.000000  1.000000  0.000000  0.000000 ICntrl=     500 IOpCl=  0
         NMat0=    1 NMatS0=    1 NMatT0=    0 NMatD0=    1 NMtDS0=    0 NMtDT0=    0
         I1Cent=           4 NGrid=           0.
 Petite list used in FoFCou.
 Requested convergence on RMS density matrix=1.00D-08 within 128 cycles.
 Requested convergence on MAX density matrix=1.00D-06.
 Requested convergence on             energy=1.00D-06.
 No special actions if energy rises.
 Keep R1 ints in memory in canonical form, NReq=36421547.
 SCF Done:  E(RB3LYP) =  -628.422846957     A.U. after   12 cycles
             Convg  =    0.8462D-08             -V/T =  2.0059
 Calling FoFJK, ICntrl=      2127 FMM=F ISym2X=1 I1Cent= 0 IOpClX= 0 NMat=1 NMatS=1 NMatT=0.
 ***** Axes restored to original set *****
 -------------------------------------------------------------------
 Center     Atomic                   Forces (Hartrees/Bohr)
 Number     Number              X              Y              Z
 -------------------------------------------------------------------
      1        6           0.000785808    0.000231720    0.000000000
      2       16           0.000467699    0.000476240    0.000000000
      3        6           0.000475961    0.000619549    0.000000000
      4        8          -0.000748822   -0.000494592   -0.001633060
      5        8          -0.000748822   -0.000494592    0.001633060
      6        1           0.000282273    0.000421590    0.001109437
      7        1           0.000282273    0.000421590   -0.001109437
      8        1          -0.001139674   -0.000337616    0.000000000
      9        1           0.000513035    0.000058660    0.001079530
     10        1           0.000513035    0.000058660   -0.001079530
     11        1          -0.000682768   -0.000961210    0.000000000
 -------------------------------------------------------------------
 Cartesian Forces:  Max     0.001633060 RMS     0.000724362

 GradGradGradGradGradGradGradGradGradGradGradGradGradGradGradGradGradGrad
 Berny optimization.
 Using GEDIIS/GDIIS optimizer.
 Internal  Forces:  Max     0.001862986 RMS     0.000627450
 Search for a local minimum.
 Step number   3 out of a maximum of   56
 All quantities printed in internal units (Hartrees-Bohrs-Radians)
 Mixed Optimization -- En-DIIS/RFO-DIIS
 Update second derivatives using D2CorX and points    1    2    3
 DE= -4.21D-04 DEPred=-3.87D-04 R= 1.09D+00
 SS=  1.41D+00  RLast= 6.31D-02 DXNew= 8.4853D-01 1.8931D-01
 Trust test= 1.09D+00 RLast= 6.31D-02 DXMaxT set to 5.05D-01
 Use linear search instead of GDIIS.
     Eigenvalues ---    0.00598   0.00600   0.05690   0.05944   0.06354
     Eigenvalues ---    0.06357   0.07816   0.09376   0.10230   0.12813
     Eigenvalues ---    0.16000   0.16000   0.16000   0.16001   0.16746
     Eigenvalues ---    0.16784   0.25365   0.26291   0.27547   0.32272
     Eigenvalues ---    0.32284   0.32298   0.32299   0.32585   0.36675
     Eigenvalues ---    0.80471   0.961191000.000001000.000001000.00000
     Eigenvalues --- 1000.000001000.000001000.000001000.000001000.00000
     Eigenvalues --- 1000.000001000.000001000.000001000.000001000.00000
     Eigenvalues --- 1000.000001000.000001000.000001000.000001000.00000
     Eigenvalues --- 1000.00000
 RFO step:  Lambda=-5.77545463D-05 EMin= 5.98473065D-03
 Quartic linear search produced a step of  0.13062.
 Iteration  1 RMS(Cart)=  0.00414774 RMS(Int)=  0.00002588
 Iteration  2 RMS(Cart)=  0.00002520 RMS(Int)=  0.00001215
 Iteration  3 RMS(Cart)=  0.00000000 RMS(Int)=  0.00001215
 ClnCor:  largest displacement from symmetrization is 4.73D-11 for atom     7.
 Variable       Old X    -DE/DX   Delta X   Delta X   Delta X     New X
                                 (Linear)    (Quad)   (Total)
    R1        3.41519   0.00062   0.00236   0.00209   0.00445   3.41964
    R2        2.05909   0.00119  -0.00079   0.00381   0.00302   2.06212
    R3        2.05909   0.00119  -0.00079   0.00381   0.00302   2.06212
    R4        2.06049   0.00096  -0.00020   0.00274   0.00254   2.06303
    R5        3.41571   0.00041   0.00241   0.00120   0.00362   3.41933
    R6        2.78179   0.00186   0.00167   0.00199   0.00366   2.78545
    R7        2.78179   0.00186   0.00167   0.00199   0.00366   2.78545
    R8        2.06052   0.00097  -0.00019   0.00276   0.00257   2.06309
    R9        2.05913   0.00115  -0.00079   0.00366   0.00287   2.06201
   R10        2.05913   0.00115  -0.00079   0.00366   0.00287   2.06201
    A1        1.90973  -0.00017  -0.00123  -0.00027  -0.00151   1.90822
    A2        1.90973  -0.00017  -0.00123  -0.00027  -0.00151   1.90822
    A3        1.85327  -0.00094  -0.00130  -0.00777  -0.00910   1.84417
    A4        1.94631   0.00034   0.00223   0.00348   0.00571   1.95202
    A5        1.92122   0.00044   0.00068   0.00213   0.00279   1.92401
    A6        1.92122   0.00044   0.00068   0.00213   0.00279   1.92401
    A7        1.81194  -0.00011   0.00366  -0.00242   0.00124   1.81318
    A8        1.88167   0.00003  -0.00057   0.00015  -0.00043   1.88125
    A9        1.88167   0.00003  -0.00057   0.00015  -0.00043   1.88125
   A10        1.88174   0.00001  -0.00057  -0.00010  -0.00067   1.88107
   A11        1.88174   0.00001  -0.00057  -0.00010  -0.00067   1.88107
   A12        2.10388   0.00001  -0.00062   0.00167   0.00104   2.10492
   A13        1.85345  -0.00098  -0.00129  -0.00799  -0.00930   1.84415
   A14        1.90995  -0.00023  -0.00120  -0.00073  -0.00194   1.90801
   A15        1.90995  -0.00023  -0.00120  -0.00073  -0.00194   1.90801
   A16        1.92098   0.00049   0.00063   0.00261   0.00321   1.92419
   A17        1.92098   0.00049   0.00063   0.00261   0.00321   1.92419
   A18        1.94618   0.00038   0.00226   0.00364   0.00589   1.95207
    D1        1.06861   0.00010   0.00059   0.00198   0.00257   1.07117
    D2        3.06180   0.00007   0.00140   0.00082   0.00221   3.06401
    D3       -0.92459   0.00013  -0.00022   0.00315   0.00292  -0.92167
    D4       -1.06861  -0.00010  -0.00059  -0.00198  -0.00257  -1.07117
    D5        0.92459  -0.00013   0.00022  -0.00315  -0.00292   0.92167
    D6       -3.06180  -0.00007  -0.00140  -0.00082  -0.00221  -3.06401
    D7        3.14159   0.00000   0.00000   0.00000   0.00000   3.14159
    D8       -1.14840  -0.00003   0.00081  -0.00117  -0.00036  -1.14875
    D9        1.14840   0.00003  -0.00081   0.00117   0.00036   1.14875
   D10        3.14159   0.00000   0.00000   0.00000   0.00000   3.14159
   D11       -1.06867  -0.00009  -0.00063  -0.00179  -0.00241  -1.07107
   D12        1.06867   0.00009   0.00063   0.00179   0.00241   1.07107
   D13        1.14844   0.00001  -0.00081   0.00099   0.00019   1.14863
   D14       -3.06182  -0.00008  -0.00144  -0.00079  -0.00222  -3.06404
   D15       -0.92448   0.00010  -0.00018   0.00278   0.00259  -0.92189
   D16       -1.14844  -0.00001   0.00081  -0.00099  -0.00019  -1.14863
   D17        0.92448  -0.00010   0.00018  -0.00278  -0.00259   0.92189
   D18        3.06182   0.00008   0.00144   0.00079   0.00222   3.06404
         Item               Value     Threshold  Converged?
 Maximum Force            0.001863     0.000450     NO 
 RMS     Force            0.000627     0.000300     NO 
 Maximum Displacement     0.013455     0.001800     NO 
 RMS     Displacement     0.004151     0.001200     NO 
 Predicted change in Energy=-3.348198D-05
 GradGradGradGradGradGradGradGradGradGradGradGradGradGradGradGradGradGrad

                          Input orientation:                          
 ---------------------------------------------------------------------
 Center     Atomic      Atomic             Coordinates (Angstroms)
 Number     Number       Type             X           Y           Z
 ---------------------------------------------------------------------
      1          6           0        1.586582   -0.629014    0.000000
      2         16           0       -0.144211   -0.100821    0.000000
      3          6           0       -0.046882    1.705989    0.000000
      4          8           0       -0.742703   -0.519275   -1.280380
      5          8           0       -0.742703   -0.519275    1.280380
      6          1           0        2.076098   -0.262621    0.903826
      7          1           0        2.076098   -0.262621   -0.903826
      8          1           0       -1.080712    2.056833    0.000000
      9          1           0        0.465242    2.039951    0.903794
     10          1           0        0.465242    2.039951   -0.903794
     11          1           0        1.561668   -1.720436    0.000000
 ---------------------------------------------------------------------
                    Distance matrix (angstroms):
                    1          2          3          4          5
     1  C    0.000000
     2  S    1.809594   0.000000
     3  C    2.849639   1.809429   0.000000
     4  O    2.660260   1.473998   2.659951   0.000000
     5  O    2.660260   1.473998   2.659951   2.560760   0.000000
     6  H    1.091224   2.402675   3.033046   3.575229   2.855399
     7  H    1.091224   2.402675   3.033046   2.855399   3.575229
     8  H    3.785265   2.352128   1.091740   2.896542   2.896542
     9  H    3.032758   2.402328   1.091167   3.574826   2.854923
    10  H    3.032758   2.402328   1.091167   2.854923   3.574826
    11  H    1.091706   2.352270   3.785211   2.896944   2.896944
                    6          7          8          9         10
     6  H    0.000000
     7  H    1.807652   0.000000
     8  H    4.020226   4.020226   0.000000
     9  H    2.810105   3.341284   1.790839   0.000000
    10  H    3.341284   2.810105   1.790839   1.807588   0.000000
    11  H    1.790744   1.790744   4.609765   4.019888   4.019888
                   11
    11  H    0.000000
 Stoichiometry    C2H6O2S
 Framework group  CS[SG(C2H2S),X(H4O2)]
 Deg. of freedom    16
 Full point group                 CS      NOp   2
 Largest Abelian subgroup         CS      NOp   2
 Largest concise Abelian subgroup CS      NOp   2
                         Standard orientation:                         
 ---------------------------------------------------------------------
 Center     Atomic      Atomic             Coordinates (Angstroms)
 Number     Number       Type             X           Y           Z
 ---------------------------------------------------------------------
      1          6           0       -0.562845    1.602621    0.000000
      2         16           0       -0.116689   -0.151111    0.000000
      3          6           0        1.692699   -0.138920    0.000000
      4          8           0       -0.562845   -0.729247    1.280380
      5          8           0       -0.562845   -0.729247   -1.280380
      6          1           0       -0.173821    2.074352   -0.903826
      7          1           0       -0.173821    2.074352    0.903826
      8          1           0        1.994502   -1.188115    0.000000
      9          1           0        2.050392    0.356921   -0.903794
     10          1           0        2.050392    0.356921    0.903794
     11          1           0       -1.654230    1.629098    0.000000
 ---------------------------------------------------------------------
 Rotational constants (GHZ):      4.4426209      4.1045822      4.0298182
 Standard basis: 6-31+G(d,p) (6D, 7F)
 There are    82 symmetry adapted basis functions of A'  symmetry.
 There are    47 symmetry adapted basis functions of A"  symmetry.
 Integral buffers will be    131072 words long.
 Raffenetti 2 integral format.
 Two-electron integral symmetry is turned on.
   129 basis functions,   226 primitive gaussians,   129 cartesian basis functions
    25 alpha electrons       25 beta electrons
       nuclear repulsion energy       270.3922201430 Hartrees.
 NAtoms=   11 NActive=   11 NUniq=    8 SFac= 1.42D+00 NAtFMM=   80 NAOKFM=F Big=F
 One-electron integrals computed using PRISM.
 NBasis=   129 RedAO= T  NBF=    82    47
 NBsUse=   129 1.00D-06 NBFU=    82    47
 Initial guess read from the read-write file.
 B after Tr=     0.000000    0.000000    0.000000
         Rot=    1.000000    0.000000    0.000000    0.000000 Ang=   0.00 deg.
 Initial guess orbital symmetries:
       Occupied  (A') (A") (A') (A') (A') (A') (A") (A') (A') (A')
                 (A") (A') (A') (A') (A') (A') (A") (A") (A') (A")
                 (A') (A') (A") (A") (A')
       Virtual   (A') (A') (A') (A") (A') (A') (A') (A") (A") (A')
                 (A') (A') (A') (A') (A') (A") (A") (A") (A') (A')
                 (A") (A') (A") (A') (A') (A") (A') (A') (A") (A')
                 (A') (A') (A") (A") (A') (A') (A') (A') (A") (A')
                 (A") (A') (A') (A") (A") (A') (A') (A') (A") (A')
                 (A') (A") (A') (A") (A') (A') (A") (A') (A') (A")
                 (A") (A') (A') (A') (A") (A") (A") (A') (A') (A")
                 (A") (A") (A") (A') (A') (A") (A') (A') (A") (A')
                 (A') (A') (A") (A") (A') (A') (A') (A') (A") (A')
                 (A") (A') (A") (A') (A') (A") (A") (A') (A') (A')
                 (A") (A') (A') (A')
 Requested convergence on RMS density matrix=1.00D-08 within 128 cycles.
 Requested convergence on MAX density matrix=1.00D-06.
 Requested convergence on             energy=1.00D-06.
 No special actions if energy rises.
 Keep R1 ints in memory in canonical form, NReq=36421547.
 SCF Done:  E(RB3LYP) =  -628.422878294     A.U. after    8 cycles
             Convg  =    0.7105D-08             -V/T =  2.0059
 Calling FoFJK, ICntrl=      2127 FMM=F ISym2X=1 I1Cent= 0 IOpClX= 0 NMat=1 NMatS=1 NMatT=0.
 ***** Axes restored to original set *****
 -------------------------------------------------------------------
 Center     Atomic                   Forces (Hartrees/Bohr)
 Number     Number              X              Y              Z
 -------------------------------------------------------------------
      1        6          -0.000168574   -0.000062120    0.000000000
      2       16           0.000089935    0.000148070    0.000000000
      3        6          -0.000114370   -0.000170542    0.000000000
      4        8           0.000007429   -0.000007044    0.000208225
      5        8           0.000007429   -0.000007044   -0.000208225
      6        1           0.000034762   -0.000002621   -0.000025378
      7        1           0.000034762   -0.000002621    0.000025378
      8        1          -0.000035160    0.000113644    0.000000000
      9        1           0.000033626    0.000042983   -0.000024646
     10        1           0.000033626    0.000042983    0.000024646
     11        1           0.000076534   -0.000095689    0.000000000
 -------------------------------------------------------------------
 Cartesian Forces:  Max     0.000208225 RMS     0.000083745

 GradGradGradGradGradGradGradGradGradGradGradGradGradGradGradGradGradGrad
 Berny optimization.
 Using GEDIIS/GDIIS optimizer.
 Internal  Forces:  Max     0.000182350 RMS     0.000067574
 Search for a local minimum.
 Step number   4 out of a maximum of   56
 All quantities printed in internal units (Hartrees-Bohrs-Radians)
 Mixed Optimization -- En-DIIS/RFO-DIIS
 Swaping is turned off.
 Update second derivatives using D2CorX and points    1    2    3    4
 DE= -3.13D-05 DEPred=-3.35D-05 R= 9.36D-01
 SS=  1.41D+00  RLast= 2.17D-02 DXNew= 8.4853D-01 6.5132D-02
 Trust test= 9.36D-01 RLast= 2.17D-02 DXMaxT set to 5.05D-01
     Eigenvalues ---    0.00598   0.00600   0.05740   0.05960   0.06422
     Eigenvalues ---    0.06422   0.07808   0.09527   0.10245   0.13240
     Eigenvalues ---    0.16000   0.16000   0.16000   0.16001   0.16759
     Eigenvalues ---    0.16940   0.25106   0.26463   0.27554   0.32272
     Eigenvalues ---    0.32284   0.32297   0.32299   0.32668   0.34498
     Eigenvalues ---    0.81142   0.961191000.000001000.000001000.00000
     Eigenvalues --- 1000.000001000.000001000.000001000.000001000.00000
     Eigenvalues --- 1000.000001000.000001000.000001000.000001000.00000
     Eigenvalues --- 1000.000001000.000001000.000001000.000001000.00000
     Eigenvalues --- 1000.00000
 En-DIIS/RFO-DIIS IScMMF=        0 using points:     4    3
 RFO step:  Lambda=-4.36575245D-07.
 DIIS coeffs:      0.93015      0.06985
 Iteration  1 RMS(Cart)=  0.00054007 RMS(Int)=  0.00000048
 Iteration  2 RMS(Cart)=  0.00000016 RMS(Int)=  0.00000047
 ClnCor:  largest displacement from symmetrization is 8.69D-11 for atom     5.
 Variable       Old X    -DE/DX   Delta X   Delta X   Delta X     New X
                                  (DIIS)     (GDIIS)  (Total)
    R1        3.41964   0.00004  -0.00031   0.00025  -0.00006   3.41957
    R2        2.06212   0.00000  -0.00021   0.00026   0.00005   2.06216
    R3        2.06212   0.00000  -0.00021   0.00026   0.00005   2.06216
    R4        2.06303   0.00009  -0.00018   0.00042   0.00025   2.06327
    R5        3.41933   0.00001  -0.00025   0.00009  -0.00016   3.41917
    R6        2.78545  -0.00018  -0.00026  -0.00005  -0.00030   2.78515
    R7        2.78545  -0.00018  -0.00026  -0.00005  -0.00030   2.78515
    R8        2.06309   0.00008  -0.00018   0.00039   0.00021   2.06330
    R9        2.06201   0.00000  -0.00020   0.00027   0.00006   2.06207
   R10        2.06201   0.00000  -0.00020   0.00027   0.00006   2.06207
    A1        1.90822   0.00002   0.00011   0.00010   0.00021   1.90843
    A2        1.90822   0.00002   0.00011   0.00010   0.00021   1.90843
    A3        1.84417   0.00013   0.00064   0.00029   0.00093   1.84510
    A4        1.95202  -0.00005  -0.00040  -0.00033  -0.00073   1.95129
    A5        1.92401  -0.00006  -0.00019  -0.00006  -0.00026   1.92375
    A6        1.92401  -0.00006  -0.00019  -0.00006  -0.00026   1.92375
    A7        1.81318   0.00018  -0.00009   0.00077   0.00069   1.81386
    A8        1.88125  -0.00003   0.00003  -0.00006  -0.00003   1.88122
    A9        1.88125  -0.00003   0.00003  -0.00006  -0.00003   1.88122
   A10        1.88107  -0.00001   0.00005   0.00013   0.00018   1.88125
   A11        1.88107  -0.00001   0.00005   0.00013   0.00018   1.88125
   A12        2.10492  -0.00005  -0.00007  -0.00070  -0.00077   2.10415
   A13        1.84415   0.00012   0.00065   0.00025   0.00090   1.84505
   A14        1.90801   0.00003   0.00014   0.00012   0.00025   1.90827
   A15        1.90801   0.00003   0.00014   0.00012   0.00025   1.90827
   A16        1.92419  -0.00006  -0.00022  -0.00003  -0.00025   1.92394
   A17        1.92419  -0.00006  -0.00022  -0.00003  -0.00025   1.92394
   A18        1.95207  -0.00007  -0.00041  -0.00040  -0.00081   1.95126
    D1        1.07117  -0.00002  -0.00018  -0.00014  -0.00032   1.07086
    D2        3.06401   0.00004  -0.00015   0.00035   0.00019   3.06420
    D3       -0.92167  -0.00008  -0.00020  -0.00062  -0.00082  -0.92249
    D4       -1.07117   0.00002   0.00018   0.00014   0.00032  -1.07086
    D5        0.92167   0.00008   0.00020   0.00062   0.00082   0.92249
    D6       -3.06401  -0.00004   0.00015  -0.00035  -0.00019  -3.06420
    D7        3.14159   0.00000   0.00000   0.00000   0.00000   3.14159
    D8       -1.14875   0.00006   0.00002   0.00048   0.00051  -1.14825
    D9        1.14875  -0.00006  -0.00002  -0.00048  -0.00051   1.14825
   D10        3.14159   0.00000   0.00000   0.00000   0.00000   3.14159
   D11       -1.07107   0.00002   0.00017   0.00017   0.00034  -1.07074
   D12        1.07107  -0.00002  -0.00017  -0.00017  -0.00034   1.07074
   D13        1.14863  -0.00004  -0.00001  -0.00035  -0.00036   1.14827
   D14       -3.06404  -0.00002   0.00016  -0.00018  -0.00002  -3.06406
   D15       -0.92189  -0.00006  -0.00018  -0.00052  -0.00070  -0.92259
   D16       -1.14863   0.00004   0.00001   0.00035   0.00036  -1.14827
   D17        0.92189   0.00006   0.00018   0.00052   0.00070   0.92259
   D18        3.06404   0.00002  -0.00016   0.00018   0.00002   3.06406
         Item               Value     Threshold  Converged?
 Maximum Force            0.000182     0.000450     YES
 RMS     Force            0.000068     0.000300     YES
 Maximum Displacement     0.001459     0.001800     YES
 RMS     Displacement     0.000540     0.001200     YES
 Predicted change in Energy=-5.270661D-07
 Optimization completed.
    -- Stationary point found.
                           ----------------------------
                           !   Optimized Parameters   !
                           ! (Angstroms and Degrees)  !
 --------------------------                            --------------------------
 ! Name  Definition              Value          Derivative Info.                !
 --------------------------------------------------------------------------------
 ! R1    R(1,2)                  1.8096         -DE/DX =    0.0                 !
 ! R2    R(1,6)                  1.0912         -DE/DX =    0.0                 !
 ! R3    R(1,7)                  1.0912         -DE/DX =    0.0                 !
 ! R4    R(1,11)                 1.0917         -DE/DX =    0.0001              !
 ! R5    R(2,3)                  1.8094         -DE/DX =    0.0                 !
 ! R6    R(2,4)                  1.474          -DE/DX =   -0.0002              !
 ! R7    R(2,5)                  1.474          -DE/DX =   -0.0002              !
 ! R8    R(3,8)                  1.0917         -DE/DX =    0.0001              !
 ! R9    R(3,9)                  1.0912         -DE/DX =    0.0                 !
 ! R10   R(3,10)                 1.0912         -DE/DX =    0.0                 !
 ! A1    A(2,1,6)              109.3328         -DE/DX =    0.0                 !
 ! A2    A(2,1,7)              109.3328         -DE/DX =    0.0                 !
 ! A3    A(2,1,11)             105.6632         -DE/DX =    0.0001              !
 ! A4    A(6,1,7)              111.8424         -DE/DX =   -0.0001              !
 ! A5    A(6,1,11)             110.2375         -DE/DX =   -0.0001              !
 ! A6    A(7,1,11)             110.2375         -DE/DX =   -0.0001              !
 ! A7    A(1,2,3)              103.8874         -DE/DX =    0.0002              !
 ! A8    A(1,2,4)              107.7876         -DE/DX =    0.0                 !
 ! A9    A(1,2,5)              107.7876         -DE/DX =    0.0                 !
 ! A10   A(3,2,4)              107.7774         -DE/DX =    0.0                 !
 ! A11   A(3,2,5)              107.7774         -DE/DX =    0.0                 !
 ! A12   A(4,2,5)              120.603          -DE/DX =   -0.0001              !
 ! A13   A(2,3,8)              105.6619         -DE/DX =    0.0001              !
 ! A14   A(2,3,9)              109.3211         -DE/DX =    0.0                 !
 ! A15   A(2,3,10)             109.3211         -DE/DX =    0.0                 !
 ! A16   A(8,3,9)              110.248          -DE/DX =   -0.0001              !
 ! A17   A(8,3,10)             110.248          -DE/DX =   -0.0001              !
 ! A18   A(9,3,10)             111.8454         -DE/DX =   -0.0001              !
 ! D1    D(6,1,2,3)             61.3737         -DE/DX =    0.0                 !
 ! D2    D(6,1,2,4)            175.555          -DE/DX =    0.0                 !
 ! D3    D(6,1,2,5)            -52.8075         -DE/DX =   -0.0001              !
 ! D4    D(7,1,2,3)            -61.3737         -DE/DX =    0.0                 !
 ! D5    D(7,1,2,4)             52.8075         -DE/DX =    0.0001              !
 ! D6    D(7,1,2,5)           -175.555          -DE/DX =    0.0                 !
 ! D7    D(11,1,2,3)           180.0            -DE/DX =    0.0                 !
 ! D8    D(11,1,2,4)           -65.8187         -DE/DX =    0.0001              !
 ! D9    D(11,1,2,5)            65.8187         -DE/DX =   -0.0001              !
 ! D10   D(1,2,3,8)            180.0            -DE/DX =    0.0                 !
 ! D11   D(1,2,3,9)            -61.368          -DE/DX =    0.0                 !
 ! D12   D(1,2,3,10)            61.368          -DE/DX =    0.0                 !
 ! D13   D(4,2,3,8)             65.8115         -DE/DX =    0.0                 !
 ! D14   D(4,2,3,9)           -175.5566         -DE/DX =    0.0                 !
 ! D15   D(4,2,3,10)           -52.8205         -DE/DX =   -0.0001              !
 ! D16   D(5,2,3,8)            -65.8115         -DE/DX =    0.0                 !
 ! D17   D(5,2,3,9)             52.8205         -DE/DX =    0.0001              !
 ! D18   D(5,2,3,10)           175.5566         -DE/DX =    0.0                 !
 --------------------------------------------------------------------------------
 GradGradGradGradGradGradGradGradGradGradGradGradGradGradGradGradGradGrad

                          Input orientation:                          
 ---------------------------------------------------------------------
 Center     Atomic      Atomic             Coordinates (Angstroms)
 Number     Number       Type             X           Y           Z
 ---------------------------------------------------------------------
      1          6           0        1.586582   -0.629014    0.000000
      2         16           0       -0.144211   -0.100821    0.000000
      3          6           0       -0.046882    1.705989    0.000000
      4          8           0       -0.742703   -0.519275   -1.280380
      5          8           0       -0.742703   -0.519275    1.280380
      6          1           0        2.076098   -0.262621    0.903826
      7          1           0        2.076098   -0.262621   -0.903826
      8          1           0       -1.080712    2.056833    0.000000
      9          1           0        0.465242    2.039951    0.903794
     10          1           0        0.465242    2.039951   -0.903794
     11          1           0        1.561668   -1.720436    0.000000
 ---------------------------------------------------------------------
                    Distance matrix (angstroms):
                    1          2          3          4          5
     1  C    0.000000
     2  S    1.809594   0.000000
     3  C    2.849639   1.809429   0.000000
     4  O    2.660260   1.473998   2.659951   0.000000
     5  O    2.660260   1.473998   2.659951   2.560760   0.000000
     6  H    1.091224   2.402675   3.033046   3.575229   2.855399
     7  H    1.091224   2.402675   3.033046   2.855399   3.575229
     8  H    3.785265   2.352128   1.091740   2.896542   2.896542
     9  H    3.032758   2.402328   1.091167   3.574826   2.854923
    10  H    3.032758   2.402328   1.091167   2.854923   3.574826
    11  H    1.091706   2.352270   3.785211   2.896944   2.896944
                    6          7          8          9         10
     6  H    0.000000
     7  H    1.807652   0.000000
     8  H    4.020226   4.020226   0.000000
     9  H    2.810105   3.341284   1.790839   0.000000
    10  H    3.341284   2.810105   1.790839   1.807588   0.000000
    11  H    1.790744   1.790744   4.609765   4.019888   4.019888
                   11
    11  H    0.000000
 Stoichiometry    C2H6O2S
 Framework group  CS[SG(C2H2S),X(H4O2)]
 Deg. of freedom    16
 Full point group                 CS      NOp   2
 Largest Abelian subgroup         CS      NOp   2
 Largest concise Abelian subgroup CS      NOp   2
                         Standard orientation:                         
 ---------------------------------------------------------------------
 Center     Atomic      Atomic             Coordinates (Angstroms)
 Number     Number       Type             X           Y           Z
 ---------------------------------------------------------------------
      1          6           0       -0.562845    1.602621    0.000000
      2         16           0       -0.116689   -0.151111    0.000000
      3          6           0        1.692699   -0.138920    0.000000
      4          8           0       -0.562845   -0.729247    1.280380
      5          8           0       -0.562845   -0.729247   -1.280380
      6          1           0       -0.173821    2.074352   -0.903826
      7          1           0       -0.173821    2.074352    0.903826
      8          1           0        1.994502   -1.188115    0.000000
      9          1           0        2.050392    0.356921   -0.903794
     10          1           0        2.050392    0.356921    0.903794
     11          1           0       -1.654230    1.629098    0.000000
 ---------------------------------------------------------------------
 Rotational constants (GHZ):      4.4426209      4.1045822      4.0298182

 **********************************************************************

            Population analysis using the SCF density.

 **********************************************************************

 Orbital symmetries:
       Occupied  (A') (A") (A') (A') (A') (A') (A") (A') (A') (A')
                 (A") (A') (A') (A') (A') (A') (A") (A") (A') (A")
                 (A') (A') (A") (A") (A')
       Virtual   (A') (A') (A') (A") (A') (A') (A') (A") (A") (A')
                 (A') (A') (A') (A') (A') (A") (A") (A") (A') (A')
                 (A") (A') (A") (A') (A') (A") (A') (A') (A") (A')
                 (A') (A') (A") (A") (A') (A') (A') (A') (A") (A')
                 (A") (A') (A') (A") (A") (A') (A') (A') (A") (A')
                 (A') (A") (A') (A") (A') (A') (A") (A') (A') (A")
                 (A") (A') (A') (A') (A") (A") (A") (A') (A') (A")
                 (A") (A") (A") (A') (A") (A') (A') (A') (A") (A')
                 (A') (A') (A") (A") (A') (A') (A') (A') (A") (A')
                 (A") (A') (A") (A') (A') (A") (A") (A') (A') (A')
                 (A") (A') (A') (A')
 The electronic state is 1-A'.
 Alpha  occ. eigenvalues --  -89.10879 -19.15232 -19.15232 -10.23986 -10.23982
 Alpha  occ. eigenvalues --   -8.13740  -6.10163  -6.10100  -6.10078  -1.10824
 Alpha  occ. eigenvalues --   -1.00505  -0.80744  -0.75846  -0.61366  -0.51345
 Alpha  occ. eigenvalues --   -0.49815  -0.49128  -0.45760  -0.45140  -0.43281
 Alpha  occ. eigenvalues --   -0.43068  -0.33716  -0.32413  -0.30729  -0.30105
 Alpha virt. eigenvalues --   -0.01433   0.01352   0.01864   0.03223   0.04141
 Alpha virt. eigenvalues --    0.04896   0.05438   0.06021   0.06689   0.07281
 Alpha virt. eigenvalues --    0.09936   0.10147   0.11473   0.12320   0.13296
 Alpha virt. eigenvalues --    0.13371   0.15361   0.17148   0.17304   0.20939
 Alpha virt. eigenvalues --    0.22917   0.23263   0.26430   0.28925   0.30055
 Alpha virt. eigenvalues --    0.30351   0.30821   0.31664   0.33345   0.33539
 Alpha virt. eigenvalues --    0.47875   0.49835   0.55226   0.56278   0.58009
 Alpha virt. eigenvalues --    0.60844   0.61451   0.70181   0.70679   0.74937
 Alpha virt. eigenvalues --    0.78808   0.79286   0.88083   0.92257   0.92788
 Alpha virt. eigenvalues --    0.93461   0.94812   1.01665   1.08566   1.08715
 Alpha virt. eigenvalues --    1.10021   1.22354   1.23300   1.23702   1.26107
 Alpha virt. eigenvalues --    1.29934   1.29962   1.31035   1.32268   1.39451
 Alpha virt. eigenvalues --    1.46787   1.47612   1.56910   1.69647   1.70495
 Alpha virt. eigenvalues --    1.79088   1.80839   1.84520   1.85224   1.97771
 Alpha virt. eigenvalues --    1.98419   1.99079   1.99852   2.00903   2.03315
 Alpha virt. eigenvalues --    2.03411   2.04855   2.07061   2.11328   2.13576
 Alpha virt. eigenvalues --    2.23564   2.32587   2.32796   2.35722   2.36654
 Alpha virt. eigenvalues --    2.55147   2.59107   2.77877   2.78612   2.80140
 Alpha virt. eigenvalues --    2.81311   2.82601   2.87315   3.19243   3.21018
 Alpha virt. eigenvalues --    3.37592   3.38777   3.39223   3.39649   3.96391
 Alpha virt. eigenvalues --    4.12278   4.14209   4.41202   4.42532
          Condensed to atoms (all electrons):
              1          2          3          4          5          6
     1  C    5.697577   0.123962  -0.138807  -0.139542  -0.139542   0.356088
     2  S    0.123962  14.313574   0.124024   0.288432   0.288432  -0.008077
     3  C   -0.138807   0.124024   5.697362  -0.139544  -0.139544   0.001068
     4  O   -0.139542   0.288432  -0.139544   8.722614  -0.168739   0.007988
     5  O   -0.139542   0.288432  -0.139544  -0.168739   8.722614  -0.006792
     6  H    0.356088  -0.008077   0.001068   0.007988  -0.006792   0.502986
     7  H    0.356088  -0.008077   0.001068  -0.006792   0.007988  -0.027500
     8  H    0.011912  -0.028658   0.387864  -0.004199  -0.004199   0.000014
     9  H    0.001070  -0.008095   0.356113   0.007997  -0.006802  -0.000356
    10  H    0.001070  -0.008095   0.356113  -0.006802   0.007997   0.000148
    11  H    0.387877  -0.028672   0.011912  -0.004194  -0.004194  -0.018207
              7          8          9         10         11
     1  C    0.356088   0.011912   0.001070   0.001070   0.387877
     2  S   -0.008077  -0.028658  -0.008095  -0.008095  -0.028672
     3  C    0.001068   0.387864   0.356113   0.356113   0.011912
     4  O   -0.006792  -0.004199   0.007997  -0.006802  -0.004194
     5  O    0.007988  -0.004199  -0.006802   0.007997  -0.004194
     6  H   -0.027500   0.000014  -0.000356   0.000148  -0.018207
     7  H    0.502986   0.000014   0.000148  -0.000356  -0.018207
     8  H    0.000014   0.459682  -0.018203  -0.018203  -0.000054
     9  H    0.000148  -0.018203   0.502995  -0.027501   0.000014
    10  H   -0.000356  -0.018203  -0.027501   0.502995   0.000014
    11  H   -0.018207  -0.000054   0.000014   0.000014   0.459688
 Mulliken atomic charges:
              1
     1  C   -0.517752
     2  S    0.951250
     3  C   -0.517629
     4  O   -0.557219
     5  O   -0.557219
     6  H    0.192640
     7  H    0.192640
     8  H    0.214028
     9  H    0.192619
    10  H    0.192619
    11  H    0.214023
 Sum of Mulliken atomic charges =   0.00000
 Mulliken charges with hydrogens summed into heavy atoms:
              1
     1  C    0.081550
     2  S    0.951250
     3  C    0.081637
     4  O   -0.557219
     5  O   -0.557219
 Sum of Mulliken charges with hydrogens summed into heavy atoms =   0.00000
 Electronic spatial extent (au):  <R**2>=            465.8631
 Charge=              0.0000 electrons
 Dipole moment (field-independent basis, Debye):
    X=              3.0232    Y=              3.9175    Z=              0.0000  Tot=              4.9484
 Quadrupole moment (field-independent basis, Debye-Ang):
   XX=            -34.6983   YY=            -36.5150   ZZ=            -44.3953
   XY=             -3.4751   XZ=              0.0000   YZ=              0.0000
 Traceless Quadrupole moment (field-independent basis, Debye-Ang):
   XX=              3.8379   YY=              2.0212   ZZ=             -5.8591
   XY=             -3.4751   XZ=              0.0000   YZ=              0.0000
 Octapole moment (field-independent basis, Debye-Ang**2):
  XXX=              0.7209  YYY=              1.3696  ZZZ=              0.0000  XYY=              0.8983
  XXY=              0.7342  XXZ=              0.0000  XZZ=              5.2856  YZZ=              6.8478
  YYZ=              0.0000  XYZ=              0.0000
 Hexadecapole moment (field-independent basis, Debye-Ang**3):
 XXXX=           -215.7449 YYYY=           -210.0026 ZZZZ=           -180.8579 XXXY=              4.8231
 XXXZ=              0.0000 YYYX=              6.2264 YYYZ=              0.0000 ZZZX=              0.0000
 ZZZY=              0.0000 XXYY=            -69.2890 XXZZ=            -66.1140 YYZZ=            -64.3546
 XXYZ=              0.0000 YYXZ=              0.0000 ZZXY=              3.3757
 N-N= 2.703922201430D+02 E-N=-2.023683812900D+03  KE= 6.247155900899D+02
 Symmetry A'   KE= 5.073795413501D+02
 Symmetry A"   KE= 1.173360487398D+02
 1\1\GINC-ROCK\FOpt\RB3LYP\6-31+G(d,p)\C2H6O2S1\STYLIANAKIS\27-Mar-2016
 \0\\# opt b3lyp/6-31+g(d,p)\\diMe-sulfone\\0,1\C,1.5865818474,-0.62901
 40185,0.\S,-0.1442105877,-0.1008212548,0.\C,-0.0468816671,1.7059886914
 ,0.\O,-0.742702894,-0.5192747456,-1.2803800054\O,-0.742702894,-0.51927
 47456,1.2803800054\H,2.0760977524,-0.2626209717,0.9038258445\H,2.07609
 77524,-0.2626209717,-0.9038258445\H,-1.0807120161,2.0568329425,0.\H,0.
 4652423329,2.0399506244,0.9037942098\H,0.4652423329,2.0399506244,-0.90
 37942098\H,1.5616680408,-1.7204361749,0.\\Version=EM64L-G09RevA.01\Sta
 te=1-A'\HF=-628.4228783\RMSD=7.105e-09\RMSF=8.374e-05\Dipole=1.5955453
 ,1.115579,0.\Quadrupole=1.2627845,3.0933067,-4.3560912,-2.5086787,0.,0
 .\PG=CS [SG(C2H2S1),X(H4O2)]\\@


 IF YOU BELIEVE CERTAIN WORDS, YOU BELIEVE THEIR HIDDEN ARGUMENTS.
 WHEN YOU BELIEVE SOMETHING IS RIGHT OR WRONG, TRUE OR FALSE, 
 YOU BELIEVE THE ASSUMPTIONS IN THE WORDS WHICH EXPRESS THE ARGUMENTS.
 SUCH ASSUMPTIONS ARE OFTEN FULL OF HOLES, BUT REMAIN MOST PRECIOUS 
 TO THE CONVINCED.

                 -- THE OPEN-ENDED PROOF FROM THE PANOPLIA PROPHETICA
                    CHILDREN OF DUNE BY FRANK HERBERT
 Job cpu time:  0 days  0 hours  6 minutes  3.0 seconds.
 File lengths (MBytes):  RWF=     14 Int=      0 D2E=      0 Chk=      2 Scr=      1
 Normal termination of Gaussian 09 at Sun Mar 27 11:48:07 2016.
