 Entering Gaussian System, Link 0=g09
 Input=methanol-g.gjf
 Output=methanol-g.out
 Initial command:
 /usr/local/g09/l1.exe /home/scratch/stylianakis/Gau-2188.inp -scrdir=/home/scratch/stylianakis/
 Entering Link 1 = /usr/local/g09/l1.exe PID=      2189.
  
 Copyright (c) 1988,1990,1992,1993,1995,1998,2003,2009, Gaussian, Inc.
                  All Rights Reserved.
  
 This is part of the Gaussian(R) 09 program.  It is based on
 the Gaussian(R) 03 system (copyright 2003, Gaussian, Inc.),
 the Gaussian(R) 98 system (copyright 1998, Gaussian, Inc.),
 the Gaussian(R) 94 system (copyright 1995, Gaussian, Inc.),
 the Gaussian 92(TM) system (copyright 1992, Gaussian, Inc.),
 the Gaussian 90(TM) system (copyright 1990, Gaussian, Inc.),
 the Gaussian 88(TM) system (copyright 1988, Gaussian, Inc.),
 the Gaussian 86(TM) system (copyright 1986, Carnegie Mellon
 University), and the Gaussian 82(TM) system (copyright 1983,
 Carnegie Mellon University). Gaussian is a federally registered
 trademark of Gaussian, Inc.
  
 This software contains proprietary and confidential information,
 including trade secrets, belonging to Gaussian, Inc.
  
 This software is provided under written license and may be
 used, copied, transmitted, or stored only in accord with that
 written license.
  
 The following legend is applicable only to US Government
 contracts under FAR:
  
                    RESTRICTED RIGHTS LEGEND
  
 Use, reproduction and disclosure by the US Government is
 subject to restrictions as set forth in subparagraphs (a)
 and (c) of the Commercial Computer Software - Restricted
 Rights clause in FAR 52.227-19.
  
 Gaussian, Inc.
 340 Quinnipiac St., Bldg. 40, Wallingford CT 06492
  
  
 ---------------------------------------------------------------
 Warning -- This program may not be used in any manner that
 competes with the business of Gaussian, Inc. or will provide
 assistance to any competitor of Gaussian, Inc.  The licensee
 of this program is prohibited from giving any competitor of
 Gaussian, Inc. access to this program.  By using this program,
 the user acknowledges that Gaussian, Inc. is engaged in the
 business of creating and licensing software in the field of
 computational chemistry and represents and warrants to the
 licensee that it is not a competitor of Gaussian, Inc. and that
 it will not use this program in any manner prohibited above.
 ---------------------------------------------------------------
  

 Cite this work as:
 Gaussian 09, Revision A.01,
 M. J. Frisch, G. W. Trucks, H. B. Schlegel, G. E. Scuseria, 
 M. A. Robb, J. R. Cheeseman, G. Scalmani, V. Barone, B. Mennucci, 
 G. A. Petersson, H. Nakatsuji, M. Caricato, X. Li, H. P. Hratchian, 
 A. F. Izmaylov, J. Bloino, G. Zheng, J. L. Sonnenberg, M. Hada, 
 M. Ehara, K. Toyota, R. Fukuda, J. Hasegawa, M. Ishida, T. Nakajima, 
 Y. Honda, O. Kitao, H. Nakai, T. Vreven, J. A. Montgomery, Jr., 
 J. E. Peralta, F. Ogliaro, M. Bearpark, J. J. Heyd, E. Brothers, 
 K. N. Kudin, V. N. Staroverov, R. Kobayashi, J. Normand, 
 K. Raghavachari, A. Rendell, J. C. Burant, S. S. Iyengar, J. Tomasi, 
 M. Cossi, N. Rega, J. M. Millam, M. Klene, J. E. Knox, J. B. Cross, 
 V. Bakken, C. Adamo, J. Jaramillo, R. Gomperts, R. E. Stratmann, 
 O. Yazyev, A. J. Austin, R. Cammi, C. Pomelli, J. W. Ochterski, 
 R. L. Martin, K. Morokuma, V. G. Zakrzewski, G. A. Voth, 
 P. Salvador, J. J. Dannenberg, S. Dapprich, A. D. Daniels, 
 O. Farkas, J. B. Foresman, J. V. Ortiz, J. Cioslowski, 
 and D. J. Fox, Gaussian, Inc., Wallingford CT, 2009.
 
 ******************************************
 Gaussian 09:  EM64L-G09RevA.01  8-May-2009
                27-Mar-2016 
 ******************************************
 %mem=16000Mb
 %nproc=8
 Will use up to    8 processors via shared memory.
 -----------------------
 # opt b3lyp/6-31+g(d,p)
 -----------------------
 1/14=-1,18=20,19=15,26=3,38=1/1,3;
 2/9=110,12=2,17=6,18=5,40=1/2;
 3/5=1,6=6,7=111,11=2,16=1,25=1,30=1,71=1,74=-5/1,2,3;
 4//1;
 5/5=2,38=5/2;
 6/7=2,8=2,9=2,10=2,28=1/1;
 7//1,2,3,16;
 1/14=-1,18=20,19=15/3(2);
 2/9=110/2;
 99//99;
 2/9=110/2;
 3/5=1,6=6,7=111,11=2,16=1,25=1,30=1,71=1,74=-5/1,2,3;
 4/5=5,16=3/1;
 5/5=2,38=5/2;
 7//1,2,3,16;
 1/14=-1,18=20,19=15/3(-5);
 2/9=110/2;
 6/7=2,8=2,9=2,10=2,19=2,28=1/1;
 99/9=1/99;
 ----------
 methanol-g
 ----------
 Symbolic Z-matrix:
 Charge =  0 Multiplicity = 1
 C                    -0.01433  -0.66117   0.02422 
 O                    -0.03733   0.74583   0.06522 
 H                     0.40667   1.05583  -0.70478 
 H                     1.04767  -1.00117   0.01122 
 H                    -0.53633  -1.05317   0.92822 
 H                    -0.53333  -1.00117  -0.90178 
 

 GradGradGradGradGradGradGradGradGradGradGradGradGradGradGradGradGradGrad
 Berny optimization.
 Initialization pass.
                           ----------------------------
                           !    Initial Parameters    !
                           ! (Angstroms and Degrees)  !
 --------------------------                            --------------------------
 ! Name  Definition              Value          Derivative Info.                !
 --------------------------------------------------------------------------------
 ! R1    R(1,2)                  1.4078         estimate D2E/DX2                !
 ! R2    R(1,4)                  1.1152         estimate D2E/DX2                !
 ! R3    R(1,5)                  1.1151         estimate D2E/DX2                !
 ! R4    R(1,6)                  1.1146         estimate D2E/DX2                !
 ! R5    R(2,3)                  0.9413         estimate D2E/DX2                !
 ! A1    A(2,1,4)              108.7            estimate D2E/DX2                !
 ! A2    A(2,1,5)              108.6686         estimate D2E/DX2                !
 ! A3    A(2,1,6)              108.7505         estimate D2E/DX2                !
 ! A4    A(4,1,5)              110.37           estimate D2E/DX2                !
 ! A5    A(4,1,6)              109.9216         estimate D2E/DX2                !
 ! A6    A(5,1,6)              110.3836         estimate D2E/DX2                !
 ! A7    A(1,2,3)              107.3137         estimate D2E/DX2                !
 ! D1    D(4,1,2,3)             59.8846         estimate D2E/DX2                !
 ! D2    D(5,1,2,3)           -179.9662         estimate D2E/DX2                !
 ! D3    D(6,1,2,3)            -59.771          estimate D2E/DX2                !
 --------------------------------------------------------------------------------
 Trust Radius=3.00D-01 FncErr=1.00D-07 GrdErr=1.00D-06
 Number of steps in this run=  25 maximum allowed number of steps= 100.
 GradGradGradGradGradGradGradGradGradGradGradGradGradGradGradGradGradGrad

                          Input orientation:                          
 ---------------------------------------------------------------------
 Center     Atomic      Atomic             Coordinates (Angstroms)
 Number     Number       Type             X           Y           Z
 ---------------------------------------------------------------------
      1          6           0       -0.014333   -0.661167    0.024222
      2          8           0       -0.037333    0.745833    0.065222
      3          1           0        0.406667    1.055833   -0.704778
      4          1           0        1.047667   -1.001167    0.011222
      5          1           0       -0.536333   -1.053167    0.928222
      6          1           0       -0.533333   -1.001167   -0.901778
 ---------------------------------------------------------------------
                    Distance matrix (angstroms):
                    1          2          3          4          5
     1  C    0.000000
     2  O    1.407785   0.000000
     3  H    1.912269   0.941348   0.000000
     4  H    1.115174   2.057219   2.270415   0.000000
     5  H    1.115062   2.056738   2.829102   1.831024   0.000000
     6  H    1.114647   2.057453   2.270167   1.825686   1.830741
                    6
     6  H    0.000000
 Stoichiometry    CH4O
 Framework group  C1[X(CH4O)]
 Deg. of freedom    12
 Full point group                 C1      NOp   1
 Largest Abelian subgroup         C1      NOp   1
 Largest concise Abelian subgroup C1      NOp   1
                         Standard orientation:                         
 ---------------------------------------------------------------------
 Center     Atomic      Atomic             Coordinates (Angstroms)
 Number     Number       Type             X           Y           Z
 ---------------------------------------------------------------------
      1          6           0       -0.661528   -0.017723   -0.000100
      2          8           0        0.738836    0.126634    0.000026
      3          1           0        1.109661   -0.738597   -0.000340
      4          1           0       -0.962877   -0.581989    0.913358
      5          1           0       -1.124896    0.996503   -0.000296
      6          1           0       -0.963408   -0.582652   -0.912328
 ---------------------------------------------------------------------
 Rotational constants (GHZ):    122.8913371     25.3077838     24.3879318
 Standard basis: 6-31+G(d,p) (6D, 7F)
 There are    58 symmetry adapted basis functions of A   symmetry.
 Integral buffers will be    131072 words long.
 Raffenetti 2 integral format.
 Two-electron integral symmetry is turned on.
    58 basis functions,    92 primitive gaussians,    58 cartesian basis functions
     9 alpha electrons        9 beta electrons
       nuclear repulsion energy        40.4383915870 Hartrees.
 NAtoms=    6 NActive=    6 NUniq=    6 SFac= 7.50D-01 NAtFMM=   80 NAOKFM=F Big=F
 One-electron integrals computed using PRISM.
 NBasis=    58 RedAO= T  NBF=    58
 NBsUse=    58 1.00D-06 NBFU=    58
 Harris functional with IExCor=  402 diagonalized for initial guess.
 ExpMin= 4.38D-02 ExpMax= 5.48D+03 ExpMxC= 8.25D+02 IAcc=2 IRadAn=         0 AccDes= 0.00D+00
 HarFok:  IExCor=  402 AccDes= 0.00D+00 IRadAn=         0 IDoV= 1
 ScaDFX=  1.000000  1.000000  1.000000  1.000000
 FoFCou: FMM=F IPFlag=           0 FMFlag=      100000 FMFlg1=           0
         NFxFlg=           0 DoJE=T BraDBF=F KetDBF=T FulRan=T
         Omega=  0.000000  0.000000  1.000000  0.000000  0.000000 ICntrl=     500 IOpCl=  0
         NMat0=    1 NMatS0=    1 NMatT0=    0 NMatD0=    1 NMtDS0=    0 NMtDT0=    0
         I1Cent=           4 NGrid=           0.
 Petite list used in FoFCou.
 Initial guess orbital symmetries:
       Occupied  (A) (A) (A) (A) (A) (A) (A) (A) (A)
       Virtual   (A) (A) (A) (A) (A) (A) (A) (A) (A) (A) (A) (A)
                 (A) (A) (A) (A) (A) (A) (A) (A) (A) (A) (A) (A)
                 (A) (A) (A) (A) (A) (A) (A) (A) (A) (A) (A) (A)
                 (A) (A) (A) (A) (A) (A) (A) (A) (A) (A) (A) (A)
                 (A)
 The electronic state of the initial guess is 1-A.
 Requested convergence on RMS density matrix=1.00D-08 within 128 cycles.
 Requested convergence on MAX density matrix=1.00D-06.
 Requested convergence on             energy=1.00D-06.
 No special actions if energy rises.
 Keep R1 ints in memory in canonical form, NReq=2421302.
 SCF Done:  E(RB3LYP) =  -115.732210934     A.U. after   10 cycles
             Convg  =    0.1205D-08             -V/T =  2.0093

 **********************************************************************

            Population analysis using the SCF density.

 **********************************************************************

 Orbital symmetries:
       Occupied  (A) (A) (A) (A) (A) (A) (A) (A) (A)
       Virtual   (A) (A) (A) (A) (A) (A) (A) (A) (A) (A) (A) (A)
                 (A) (A) (A) (A) (A) (A) (A) (A) (A) (A) (A) (A)
                 (A) (A) (A) (A) (A) (A) (A) (A) (A) (A) (A) (A)
                 (A) (A) (A) (A) (A) (A) (A) (A) (A) (A) (A) (A)
                 (A)
 The electronic state is 1-A.
 Alpha  occ. eigenvalues --  -19.15744 -10.23952  -1.03614  -0.68505  -0.51553
 Alpha  occ. eigenvalues --   -0.44725  -0.43464  -0.34186  -0.27968
 Alpha virt. eigenvalues --    0.00002   0.02517   0.05114   0.05382   0.14762
 Alpha virt. eigenvalues --    0.17240   0.18275   0.18570   0.20772   0.20870
 Alpha virt. eigenvalues --    0.25282   0.28066   0.32931   0.63135   0.64555
 Alpha virt. eigenvalues --    0.64919   0.87103   0.87409   0.99038   0.99941
 Alpha virt. eigenvalues --    1.13461   1.16389   1.16598   1.26402   1.36775
 Alpha virt. eigenvalues --    1.43124   1.58086   1.58612   1.81780   1.96803
 Alpha virt. eigenvalues --    2.01558   2.01839   2.03410   2.03869   2.40470
 Alpha virt. eigenvalues --    2.40988   2.52243   2.56530   2.69015   2.69567
 Alpha virt. eigenvalues --    2.81916   2.82580   2.96923   3.16632   3.35091
 Alpha virt. eigenvalues --    3.36901   3.54865   4.17888   4.46147
          Condensed to atoms (all electrons):
              1          2          3          4          5          6
     1  C    4.886666   0.127061  -0.016369   0.403131   0.413701   0.403023
     2  O    0.127061   8.297791   0.265490  -0.058890  -0.056787  -0.058706
     3  H   -0.016369   0.265490   0.418561  -0.006806   0.006730  -0.006830
     4  H    0.403131  -0.058890  -0.006806   0.613016  -0.030501  -0.042524
     5  H    0.413701  -0.056787   0.006730  -0.030501   0.548658  -0.030505
     6  H    0.403023  -0.058706  -0.006830  -0.042524  -0.030505   0.612873
 Mulliken atomic charges:
              1
     1  C   -0.217215
     2  O   -0.515958
     3  H    0.339224
     4  H    0.122576
     5  H    0.148705
     6  H    0.122669
 Sum of Mulliken atomic charges =   0.00000
 Mulliken charges with hydrogens summed into heavy atoms:
              1
     1  C    0.176734
     2  O   -0.176734
 Sum of Mulliken charges with hydrogens summed into heavy atoms =   0.00000
 Electronic spatial extent (au):  <R**2>=             84.4837
 Charge=              0.0000 electrons
 Dipole moment (field-independent basis, Debye):
    X=             -0.9333    Y=             -1.6390    Z=             -0.0012  Tot=              1.8861
 Quadrupole moment (field-independent basis, Debye-Ang):
   XX=            -13.4553   YY=            -12.3620   ZZ=            -14.0473
   XY=             -2.5087   XZ=              0.0005   YZ=              0.0012
 Traceless Quadrupole moment (field-independent basis, Debye-Ang):
   XX=             -0.1671   YY=              0.9262   ZZ=             -0.7591
   XY=             -2.5087   XZ=              0.0005   YZ=              0.0012
 Octapole moment (field-independent basis, Debye-Ang**2):
  XXX=              4.1755  YYY=             -0.7231  ZZZ=             -0.0012  XYY=              1.5594
  XXY=             -2.2510  XXZ=             -0.0031  XZZ=              0.3467  YZZ=             -0.8097
  YYZ=             -0.0017  XYZ=              0.0000
 Hexadecapole moment (field-independent basis, Debye-Ang**3):
 XXXX=            -63.4137 YYYY=            -21.7658 ZZZZ=            -21.9979 XXXY=             -4.6756
 XXXZ=              0.0035 YYYX=             -3.4045 YYYZ=              0.0028 ZZZX=              0.0018
 ZZZY=              0.0015 XXYY=            -13.1615 XXZZ=            -15.2973 YYZZ=             -7.3998
 XXYZ=              0.0025 YYXZ=              0.0013 ZZXY=             -0.1590
 N-N= 4.043839158701D+01 E-N=-3.517304591199D+02  KE= 1.146646833732D+02
 Calling FoFJK, ICntrl=      2127 FMM=F ISym2X=0 I1Cent= 0 IOpClX= 0 NMat=1 NMatS=1 NMatT=0.
 ***** Axes restored to original set *****
 -------------------------------------------------------------------
 Center     Atomic                   Forces (Hartrees/Bohr)
 Number     Number              X              Y              Z
 -------------------------------------------------------------------
      1        6           0.002916415   -0.011452505   -0.004413929
      2        8          -0.014062898    0.004918795    0.024263730
      3        1           0.011300812    0.011744055   -0.019590809
      4        1          -0.011520181   -0.005193156    0.001577478
      5        1           0.007130983    0.005186127   -0.012363947
      6        1           0.004234869   -0.005203315    0.010527476
 -------------------------------------------------------------------
 Cartesian Forces:  Max     0.024263730 RMS     0.010974439

 GradGradGradGradGradGradGradGradGradGradGradGradGradGradGradGradGradGrad
 Berny optimization.
 Internal  Forces:  Max     0.025225780 RMS     0.010971743
 Search for a local minimum.
 Step number   1 out of a maximum of   25
 All quantities printed in internal units (Hartrees-Bohrs-Radians)
 Mixed Optimization -- RFO/linear search
 Second derivative matrix not updated -- first step.
 The second derivative matrix:
                          R1        R2        R3        R4        R5
           R1           0.44354
           R2           0.00000   0.32058
           R3           0.00000   0.00000   0.32070
           R4           0.00000   0.00000   0.00000   0.32113
           R5           0.00000   0.00000   0.00000   0.00000   0.59687
           A1           0.00000   0.00000   0.00000   0.00000   0.00000
           A2           0.00000   0.00000   0.00000   0.00000   0.00000
           A3           0.00000   0.00000   0.00000   0.00000   0.00000
           A4           0.00000   0.00000   0.00000   0.00000   0.00000
           A5           0.00000   0.00000   0.00000   0.00000   0.00000
           A6           0.00000   0.00000   0.00000   0.00000   0.00000
           A7           0.00000   0.00000   0.00000   0.00000   0.00000
           D1           0.00000   0.00000   0.00000   0.00000   0.00000
           D2           0.00000   0.00000   0.00000   0.00000   0.00000
           D3           0.00000   0.00000   0.00000   0.00000   0.00000
                          A1        A2        A3        A4        A5
           A1           0.16000
           A2           0.00000   0.16000
           A3           0.00000   0.00000   0.16000
           A4           0.00000   0.00000   0.00000   0.16000
           A5           0.00000   0.00000   0.00000   0.00000   0.16000
           A6           0.00000   0.00000   0.00000   0.00000   0.00000
           A7           0.00000   0.00000   0.00000   0.00000   0.00000
           D1           0.00000   0.00000   0.00000   0.00000   0.00000
           D2           0.00000   0.00000   0.00000   0.00000   0.00000
           D3           0.00000   0.00000   0.00000   0.00000   0.00000
                          A6        A7        D1        D2        D3
           A6           0.16000
           A7           0.00000   0.16000
           D1           0.00000   0.00000   0.01589
           D2           0.00000   0.00000   0.00000   0.01589
           D3           0.00000   0.00000   0.00000   0.00000   0.01589
     Eigenvalues ---    0.01589   0.10584   0.10598   0.16000   0.16000
     Eigenvalues ---    0.16000   0.16000   0.32058   0.32070   0.32113
     Eigenvalues ---    0.44354   0.596871000.000001000.000001000.00000
 RFO step:  Lambda=-6.00750088D-03 EMin= 1.58879783D-02
 Linear search not attempted -- first point.
 Iteration  1 RMS(Cart)=  0.06675292 RMS(Int)=  0.00274451
 Iteration  2 RMS(Cart)=  0.00187904 RMS(Int)=  0.00158564
 Iteration  3 RMS(Cart)=  0.00000292 RMS(Int)=  0.00158563
 Iteration  4 RMS(Cart)=  0.00000001 RMS(Int)=  0.00158563
 Variable       Old X    -DE/DX   Delta X   Delta X   Delta X     New X
                                 (Linear)    (Quad)   (Total)
    R1        2.66033   0.01683   0.00000   0.03744   0.03744   2.69777
    R2        2.10737  -0.00941   0.00000  -0.02880  -0.02880   2.07857
    R3        2.10716  -0.01518   0.00000  -0.04648  -0.04648   2.06069
    R4        2.10638  -0.00913   0.00000  -0.02791  -0.02791   2.07846
    R5        1.77889   0.02523   0.00000   0.04184   0.04184   1.82073
    A1        1.89717   0.01199   0.00000   0.07547   0.07348   1.97065
    A2        1.89663  -0.00545   0.00000  -0.03922  -0.03897   1.85766
    A3        1.89805   0.01183   0.00000   0.07440   0.07240   1.97045
    A4        1.92632  -0.00594   0.00000  -0.04228  -0.04204   1.88428
    A5        1.91849  -0.00591   0.00000  -0.02239  -0.02599   1.89251
    A6        1.92656  -0.00593   0.00000  -0.04238  -0.04215   1.88441
    A7        1.87298   0.00647   0.00000   0.03898   0.03898   1.91196
    D1        1.04518   0.00337   0.00000   0.03000   0.03289   1.07807
    D2       -3.14100   0.00003   0.00000   0.00020   0.00019  -3.14081
    D3       -1.04320  -0.00340   0.00000  -0.03038  -0.03326  -1.07646
         Item               Value     Threshold  Converged?
 Maximum Force            0.025226     0.000450     NO 
 RMS     Force            0.010972     0.000300     NO 
 Maximum Displacement     0.149327     0.001800     NO 
 RMS     Displacement     0.066403     0.001200     NO 
 Predicted change in Energy=-3.109409D-03
 GradGradGradGradGradGradGradGradGradGradGradGradGradGradGradGradGradGrad

                          Input orientation:                          
 ---------------------------------------------------------------------
 Center     Atomic      Atomic             Coordinates (Angstroms)
 Number     Number       Type             X           Y           Z
 ---------------------------------------------------------------------
      1          6           0       -0.003807   -0.661549    0.006549
      2          8           0       -0.042180    0.763971    0.073334
      3          1           0        0.402028    1.134854   -0.697016
      4          1           0        1.020059   -1.063325    0.017819
      5          1           0       -0.517901   -1.026069    0.896467
      6          1           0       -0.525198   -1.062882   -0.874819
 ---------------------------------------------------------------------
                    Distance matrix (angstroms):
                    1          2          3          4          5
     1  C    0.000000
     2  O    1.427600   0.000000
     3  H    1.971489   0.963490   0.000000
     4  H    1.099932   2.114342   2.392685   0.000000
     5  H    1.090468   2.026845   2.838141   1.771646   0.000000
     6  H    1.099876   2.114165   2.391945   1.784551   1.771683
                    6
     6  H    0.000000
 Stoichiometry    CH4O
 Framework group  C1[X(CH4O)]
 Deg. of freedom    12
 Full point group                 C1      NOp   1
 Largest Abelian subgroup         C1      NOp   1
 Largest concise Abelian subgroup C1      NOp   1
                         Standard orientation:                         
 ---------------------------------------------------------------------
 Center     Atomic      Atomic             Coordinates (Angstroms)
 Number     Number       Type             X           Y           Z
 ---------------------------------------------------------------------
      1          6           0       -0.668249   -0.020584   -0.000008
      2          8           0        0.752339    0.120736    0.000009
      3          1           0        1.163001   -0.750854    0.000095
      4          1           0       -1.046906   -0.539795    0.892678
      5          1           0       -1.078809    0.989644   -0.000927
      6          1           0       -1.046505   -0.541380   -0.891872
 ---------------------------------------------------------------------
 Rotational constants (GHZ):    128.5357840     24.4483178     23.6229128
 Standard basis: 6-31+G(d,p) (6D, 7F)
 There are    58 symmetry adapted basis functions of A   symmetry.
 Integral buffers will be    131072 words long.
 Raffenetti 2 integral format.
 Two-electron integral symmetry is turned on.
    58 basis functions,    92 primitive gaussians,    58 cartesian basis functions
     9 alpha electrons        9 beta electrons
       nuclear repulsion energy        40.0978606166 Hartrees.
 NAtoms=    6 NActive=    6 NUniq=    6 SFac= 7.50D-01 NAtFMM=   80 NAOKFM=F Big=F
 One-electron integrals computed using PRISM.
 NBasis=    58 RedAO= T  NBF=    58
 NBsUse=    58 1.00D-06 NBFU=    58
 Initial guess read from the read-write file.
 B after Tr=     0.000000    0.000000    0.000000
         Rot=    1.000000    0.000000    0.000000    0.000000 Ang=   0.00 deg.
 Initial guess orbital symmetries:
       Occupied  (A) (A) (A) (A) (A) (A) (A) (A) (A)
       Virtual   (A) (A) (A) (A) (A) (A) (A) (A) (A) (A) (A) (A)
                 (A) (A) (A) (A) (A) (A) (A) (A) (A) (A) (A) (A)
                 (A) (A) (A) (A) (A) (A) (A) (A) (A) (A) (A) (A)
                 (A) (A) (A) (A) (A) (A) (A) (A) (A) (A) (A) (A)
                 (A)
 Harris functional with IExCor=  402 diagonalized for initial guess.
 ExpMin= 4.38D-02 ExpMax= 5.48D+03 ExpMxC= 8.25D+02 IAcc=2 IRadAn=         0 AccDes= 0.00D+00
 HarFok:  IExCor=  402 AccDes= 0.00D+00 IRadAn=         0 IDoV= 1
 ScaDFX=  1.000000  1.000000  1.000000  1.000000
 FoFCou: FMM=F IPFlag=           0 FMFlag=      100000 FMFlg1=           0
         NFxFlg=           0 DoJE=T BraDBF=F KetDBF=T FulRan=T
         Omega=  0.000000  0.000000  1.000000  0.000000  0.000000 ICntrl=     500 IOpCl=  0
         NMat0=    1 NMatS0=    1 NMatT0=    0 NMatD0=    1 NMtDS0=    0 NMtDT0=    0
         I1Cent=           4 NGrid=           0.
 Petite list used in FoFCou.
 Requested convergence on RMS density matrix=1.00D-08 within 128 cycles.
 Requested convergence on MAX density matrix=1.00D-06.
 Requested convergence on             energy=1.00D-06.
 No special actions if energy rises.
 Keep R1 ints in memory in canonical form, NReq=2421302.
 SCF Done:  E(RB3LYP) =  -115.734792992     A.U. after    9 cycles
             Convg  =    0.3228D-08             -V/T =  2.0096
 Calling FoFJK, ICntrl=      2127 FMM=F ISym2X=0 I1Cent= 0 IOpClX= 0 NMat=1 NMatS=1 NMatT=0.
 ***** Axes restored to original set *****
 -------------------------------------------------------------------
 Center     Atomic                   Forces (Hartrees/Bohr)
 Number     Number              X              Y              Z
 -------------------------------------------------------------------
      1        6           0.000145671   -0.000833071   -0.000225159
      2        8          -0.000443290   -0.003313584    0.000786520
      3        1           0.000848206   -0.000154673   -0.001462695
      4        1           0.000145377    0.002120640   -0.000078519
      5        1          -0.000674730    0.000093313    0.001157816
      6        1          -0.000021233    0.002087375   -0.000177962
 -------------------------------------------------------------------
 Cartesian Forces:  Max     0.003313584 RMS     0.001205587

 GradGradGradGradGradGradGradGradGradGradGradGradGradGradGradGradGradGrad
 Berny optimization.
 Using GEDIIS/GDIIS optimizer.
 Internal  Forces:  Max     0.003507749 RMS     0.001613160
 Search for a local minimum.
 Step number   2 out of a maximum of   25
 All quantities printed in internal units (Hartrees-Bohrs-Radians)
 Mixed Optimization -- RFO/linear search
 Update second derivatives using D2CorX and points    1    2
 DE= -2.58D-03 DEPred=-3.11D-03 R= 8.30D-01
 SS=  1.41D+00  RLast= 1.64D-01 DXNew= 5.0454D-01 4.9301D-01
 Trust test= 8.30D-01 RLast= 1.64D-01 DXMaxT set to 4.93D-01
 The second derivative matrix:
                          R1        R2        R3        R4        R5
           R1           0.45737
           R2           0.00001   0.31726
           R3          -0.00685  -0.00241   0.32235
           R4          -0.00002  -0.00321  -0.00231   0.31803
           R5           0.00000   0.00898   0.00649   0.00867   0.57262
           A1           0.00984  -0.00001  -0.00489  -0.00004   0.00006
           A2           0.00033  -0.00239  -0.00189  -0.00231   0.00644
           A3           0.00972  -0.00002  -0.00483  -0.00005   0.00009
           A4          -0.00295  -0.00115   0.00064  -0.00110   0.00308
           A5          -0.01172   0.00355   0.00838   0.00346  -0.00963
           A6          -0.00282  -0.00121   0.00053  -0.00116   0.00326
           A7           0.00605  -0.00037  -0.00327  -0.00037   0.00101
           D1           0.01054  -0.00435  -0.00837  -0.00423   0.01178
           D2           0.00008  -0.00003  -0.00006  -0.00003   0.00009
           D3          -0.01060   0.00438   0.00842   0.00426  -0.01185
                          A1        A2        A3        A4        A5
           A1           0.16700
           A2           0.00022   0.15830
           A3           0.00691   0.00021   0.16683
           A4          -0.00211  -0.00089  -0.00209   0.16024
           A5          -0.00831   0.00228  -0.00820   0.00373   0.16611
           A6          -0.00202  -0.00093  -0.00199   0.00019   0.00368
           A7           0.00431  -0.00012   0.00425  -0.00142  -0.00473
           D1           0.00747  -0.00288   0.00736  -0.00375  -0.00425
           D2           0.00006  -0.00002   0.00006  -0.00003  -0.00003
           D3          -0.00751   0.00289  -0.00741   0.00377   0.00428
                          A6        A7        D1        D2        D3
           A6           0.16014
           A7          -0.00137   0.16261
           D1          -0.00373   0.00412   0.01819
           D2          -0.00003   0.00003   0.00002   0.01589
           D3           0.00375  -0.00415  -0.00232  -0.00002   0.01822
 Use linear search instead of GDIIS.
     Eigenvalues ---    0.01589   0.10149   0.10576   0.15982   0.16000
     Eigenvalues ---    0.16000   0.18565   0.31271   0.32087   0.32385
     Eigenvalues ---    0.45945   0.573441000.000001000.000001000.00000
 RFO step:  Lambda=-7.32762921D-05 EMin= 1.58879764D-02
 Quartic linear search produced a step of -0.11219.
 Iteration  1 RMS(Cart)=  0.01113018 RMS(Int)=  0.00015314
 Iteration  2 RMS(Cart)=  0.00006736 RMS(Int)=  0.00013365
 Iteration  3 RMS(Cart)=  0.00000000 RMS(Int)=  0.00013365
 Variable       Old X    -DE/DX   Delta X   Delta X   Delta X     New X
                                 (Linear)    (Quad)   (Total)
    R1        2.69777  -0.00351  -0.00420  -0.00235  -0.00655   2.69122
    R2        2.07857  -0.00064   0.00323  -0.00535  -0.00212   2.07645
    R3        2.06069   0.00123   0.00521  -0.00236   0.00285   2.06354
    R4        2.07846  -0.00061   0.00313  -0.00515  -0.00202   2.07644
    R5        1.82073   0.00150  -0.00469   0.00747   0.00277   1.82351
    A1        1.97065  -0.00242  -0.00824  -0.00514  -0.01323   1.95742
    A2        1.85766   0.00036   0.00437  -0.00172   0.00262   1.86027
    A3        1.97045  -0.00238  -0.00812  -0.00504  -0.01301   1.95744
    A4        1.88428   0.00142   0.00472   0.00378   0.00846   1.89274
    A5        1.89251   0.00191   0.00292   0.00509   0.00830   1.90081
    A6        1.88441   0.00140   0.00473   0.00368   0.00837   1.89278
    A7        1.91196  -0.00145  -0.00437  -0.00328  -0.00765   1.90431
    D1        1.07807  -0.00061  -0.00369  -0.00074  -0.00469   1.07339
    D2       -3.14081   0.00000  -0.00002  -0.00012  -0.00014  -3.14095
    D3       -1.07646   0.00061   0.00373   0.00044   0.00442  -1.07203
         Item               Value     Threshold  Converged?
 Maximum Force            0.003508     0.000450     NO 
 RMS     Force            0.001613     0.000300     NO 
 Maximum Displacement     0.023848     0.001800     NO 
 RMS     Displacement     0.011164     0.001200     NO 
 Predicted change in Energy=-7.454605D-05
 GradGradGradGradGradGradGradGradGradGradGradGradGradGradGradGradGradGrad

                          Input orientation:                          
 ---------------------------------------------------------------------
 Center     Atomic      Atomic             Coordinates (Angstroms)
 Number     Number       Type             X           Y           Z
 ---------------------------------------------------------------------
      1          6           0       -0.005319   -0.663340    0.009105
      2          8           0       -0.042609    0.758822    0.074072
      3          1           0        0.404016    1.122234   -0.700267
      4          1           0        1.022565   -1.051642    0.016958
      5          1           0       -0.519868   -1.029664    0.899868
      6          1           0       -0.525786   -1.051409   -0.877402
 ---------------------------------------------------------------------
                    Distance matrix (angstroms):
                    1          2          3          4          5
     1  C    0.000000
     2  O    1.424134   0.000000
     3  H    1.964443   0.964958   0.000000
     4  H    1.098811   2.101342   2.371234   0.000000
     5  H    1.091977   2.026918   2.836311   1.777390   0.000000
     6  H    1.098807   2.101357   2.370787   1.788091   1.777413
                    6
     6  H    0.000000
 Stoichiometry    CH4O
 Framework group  C1[X(CH4O)]
 Deg. of freedom    12
 Full point group                 C1      NOp   1
 Largest Abelian subgroup         C1      NOp   1
 Largest concise Abelian subgroup C1      NOp   1
                         Standard orientation:                         
 ---------------------------------------------------------------------
 Center     Atomic      Atomic             Coordinates (Angstroms)
 Number     Number       Type             X           Y           Z
 ---------------------------------------------------------------------
      1          6           0       -0.667569   -0.020543   -0.000002
      2          8           0        0.749379    0.122336   -0.000004
      3          1           0        1.155151   -0.753160    0.000050
      4          1           0       -1.031085   -0.545206    0.894409
      5          1           0       -1.082700    0.989447   -0.000739
      6          1           0       -1.030980   -0.546513   -0.893682
 ---------------------------------------------------------------------
 Rotational constants (GHZ):    127.7034721     24.6243785     23.7728362
 Standard basis: 6-31+G(d,p) (6D, 7F)
 There are    58 symmetry adapted basis functions of A   symmetry.
 Integral buffers will be    131072 words long.
 Raffenetti 2 integral format.
 Two-electron integral symmetry is turned on.
    58 basis functions,    92 primitive gaussians,    58 cartesian basis functions
     9 alpha electrons        9 beta electrons
       nuclear repulsion energy        40.1680822513 Hartrees.
 NAtoms=    6 NActive=    6 NUniq=    6 SFac= 7.50D-01 NAtFMM=   80 NAOKFM=F Big=F
 One-electron integrals computed using PRISM.
 NBasis=    58 RedAO= T  NBF=    58
 NBsUse=    58 1.00D-06 NBFU=    58
 Initial guess read from the read-write file.
 B after Tr=     0.000000    0.000000    0.000000
         Rot=    1.000000    0.000000    0.000000    0.000000 Ang=   0.00 deg.
 Initial guess orbital symmetries:
       Occupied  (A) (A) (A) (A) (A) (A) (A) (A) (A)
       Virtual   (A) (A) (A) (A) (A) (A) (A) (A) (A) (A) (A) (A)
                 (A) (A) (A) (A) (A) (A) (A) (A) (A) (A) (A) (A)
                 (A) (A) (A) (A) (A) (A) (A) (A) (A) (A) (A) (A)
                 (A) (A) (A) (A) (A) (A) (A) (A) (A) (A) (A) (A)
                 (A)
 Harris functional with IExCor=  402 diagonalized for initial guess.
 ExpMin= 4.38D-02 ExpMax= 5.48D+03 ExpMxC= 8.25D+02 IAcc=2 IRadAn=         0 AccDes= 0.00D+00
 HarFok:  IExCor=  402 AccDes= 0.00D+00 IRadAn=         0 IDoV= 1
 ScaDFX=  1.000000  1.000000  1.000000  1.000000
 FoFCou: FMM=F IPFlag=           0 FMFlag=      100000 FMFlg1=           0
         NFxFlg=           0 DoJE=T BraDBF=F KetDBF=T FulRan=T
         Omega=  0.000000  0.000000  1.000000  0.000000  0.000000 ICntrl=     500 IOpCl=  0
         NMat0=    1 NMatS0=    1 NMatT0=    0 NMatD0=    1 NMtDS0=    0 NMtDT0=    0
         I1Cent=           4 NGrid=           0.
 Petite list used in FoFCou.
 Requested convergence on RMS density matrix=1.00D-08 within 128 cycles.
 Requested convergence on MAX density matrix=1.00D-06.
 Requested convergence on             energy=1.00D-06.
 No special actions if energy rises.
 Keep R1 ints in memory in canonical form, NReq=2421302.
 SCF Done:  E(RB3LYP) =  -115.734870959     A.U. after    8 cycles
             Convg  =    0.3420D-08             -V/T =  2.0095
 Calling FoFJK, ICntrl=      2127 FMM=F ISym2X=0 I1Cent= 0 IOpClX= 0 NMat=1 NMatS=1 NMatT=0.
 ***** Axes restored to original set *****
 -------------------------------------------------------------------
 Center     Atomic                   Forces (Hartrees/Bohr)
 Number     Number              X              Y              Z
 -------------------------------------------------------------------
      1        6           0.000095707   -0.000588952   -0.000155069
      2        8           0.000003372    0.000453569   -0.000014992
      3        1          -0.000007395   -0.000004033    0.000019240
      4        1           0.000063972    0.000083540    0.000078239
      5        1          -0.000051895   -0.000026940    0.000085944
      6        1          -0.000103762    0.000082816   -0.000013362
 -------------------------------------------------------------------
 Cartesian Forces:  Max     0.000588952 RMS     0.000187420

 GradGradGradGradGradGradGradGradGradGradGradGradGradGradGradGradGradGrad
 Berny optimization.
 Using GEDIIS/GDIIS optimizer.
 Internal  Forces:  Max     0.000447073 RMS     0.000133740
 Search for a local minimum.
 Step number   3 out of a maximum of   25
 All quantities printed in internal units (Hartrees-Bohrs-Radians)
 Mixed Optimization -- En-DIIS/RFO-DIIS
 Update second derivatives using D2CorX and points    1    2    3
 DE= -7.80D-05 DEPred=-7.45D-05 R= 1.05D+00
 SS=  1.41D+00  RLast= 2.70D-02 DXNew= 8.2914D-01 8.1003D-02
 Trust test= 1.05D+00 RLast= 2.70D-02 DXMaxT set to 4.93D-01
 The second derivative matrix:
                          R1        R2        R3        R4        R5
           R1           0.47937
           R2           0.00504   0.31814
           R3          -0.00601  -0.00218   0.32041
           R4           0.00483  -0.00236  -0.00210   0.31885
           R5          -0.01008   0.00743   0.00543   0.00718   0.57490
           A1           0.01184   0.00002  -0.00125   0.00002   0.00137
           A2           0.00148  -0.00208  -0.00276  -0.00202   0.00554
           A3           0.01156  -0.00002  -0.00123  -0.00002   0.00145
           A4          -0.00505  -0.00138  -0.00134  -0.00133   0.00279
           A5          -0.01643   0.00273   0.00650   0.00266  -0.00867
           A6          -0.00502  -0.00147  -0.00140  -0.00142   0.00305
           A7           0.00988   0.00033  -0.00171   0.00031   0.00016
           D1           0.01636  -0.00290  -0.00893  -0.00284   0.00855
           D2           0.00005  -0.00004  -0.00005  -0.00004   0.00012
           D3          -0.01650   0.00291   0.00900   0.00284  -0.00856
                          A1        A2        A3        A4        A5
           A1           0.16028
           A2           0.00201   0.15793
           A3           0.00023   0.00198   0.16019
           A4           0.00141  -0.00190   0.00142   0.15844
           A5          -0.00537   0.00122  -0.00525   0.00236   0.16547
           A6           0.00138  -0.00192   0.00139  -0.00154   0.00239
           A7           0.00191   0.00074   0.00185  -0.00031  -0.00421
           D1           0.00955  -0.00294   0.00939  -0.00514  -0.00626
           D2           0.00002  -0.00002   0.00002  -0.00001  -0.00001
           D3          -0.00965   0.00297  -0.00949   0.00520   0.00633
                          A6        A7        D1        D2        D3
           A6           0.15848
           A7          -0.00032   0.16219
           D1          -0.00512   0.00576   0.01938
           D2          -0.00001   0.00001   0.00002   0.01589
           D3           0.00518  -0.00581  -0.00352  -0.00002   0.01944
 Use linear search instead of GDIIS.
     Eigenvalues ---    0.01589   0.10319   0.10607   0.15958   0.16000
     Eigenvalues ---    0.16009   0.16954   0.31406   0.32086   0.32161
     Eigenvalues ---    0.48168   0.576461000.000001000.000001000.00000
 RFO step:  Lambda=-8.59132062D-07 EMin= 1.58878069D-02
 Quartic linear search produced a step of  0.00920.
 Iteration  1 RMS(Cart)=  0.00045326 RMS(Int)=  0.00000047
 Iteration  2 RMS(Cart)=  0.00000018 RMS(Int)=  0.00000042
 Variable       Old X    -DE/DX   Delta X   Delta X   Delta X     New X
                                 (Linear)    (Quad)   (Total)
    R1        2.69122   0.00045  -0.00006   0.00105   0.00099   2.69221
    R2        2.07645   0.00003  -0.00002   0.00010   0.00008   2.07653
    R3        2.06354   0.00010   0.00003   0.00031   0.00033   2.06387
    R4        2.07644   0.00003  -0.00002   0.00010   0.00008   2.07652
    R5        1.82351  -0.00002   0.00003  -0.00003   0.00000   1.82350
    A1        1.95742  -0.00010  -0.00012  -0.00054  -0.00066   1.95676
    A2        1.86027   0.00000   0.00002  -0.00014  -0.00011   1.86016
    A3        1.95744  -0.00011  -0.00012  -0.00055  -0.00067   1.95678
    A4        1.89274   0.00002   0.00008   0.00002   0.00010   1.89284
    A5        1.90081   0.00017   0.00008   0.00121   0.00128   1.90209
    A6        1.89278   0.00002   0.00008  -0.00002   0.00006   1.89284
    A7        1.90431   0.00000  -0.00007   0.00004  -0.00003   1.90427
    D1        1.07339   0.00003  -0.00004   0.00026   0.00022   1.07360
    D2       -3.14095   0.00000   0.00000  -0.00010  -0.00010  -3.14105
    D3       -1.07203  -0.00004   0.00004  -0.00051  -0.00047  -1.07251
         Item               Value     Threshold  Converged?
 Maximum Force            0.000447     0.000450     YES
 RMS     Force            0.000134     0.000300     YES
 Maximum Displacement     0.000863     0.001800     YES
 RMS     Displacement     0.000453     0.001200     YES
 Predicted change in Energy=-4.368389D-07
 Optimization completed.
    -- Stationary point found.
                           ----------------------------
                           !   Optimized Parameters   !
                           ! (Angstroms and Degrees)  !
 --------------------------                            --------------------------
 ! Name  Definition              Value          Derivative Info.                !
 --------------------------------------------------------------------------------
 ! R1    R(1,2)                  1.4241         -DE/DX =    0.0004              !
 ! R2    R(1,4)                  1.0988         -DE/DX =    0.0                 !
 ! R3    R(1,5)                  1.092          -DE/DX =    0.0001              !
 ! R4    R(1,6)                  1.0988         -DE/DX =    0.0                 !
 ! R5    R(2,3)                  0.965          -DE/DX =    0.0                 !
 ! A1    A(2,1,4)              112.1519         -DE/DX =   -0.0001              !
 ! A2    A(2,1,5)              106.5859         -DE/DX =    0.0                 !
 ! A3    A(2,1,6)              112.1533         -DE/DX =   -0.0001              !
 ! A4    A(4,1,5)              108.4462         -DE/DX =    0.0                 !
 ! A5    A(4,1,6)              108.9081         -DE/DX =    0.0002              !
 ! A6    A(5,1,6)              108.4486         -DE/DX =    0.0                 !
 ! A7    A(1,2,3)              109.1087         -DE/DX =    0.0                 !
 ! D1    D(4,1,2,3)             61.5005         -DE/DX =    0.0                 !
 ! D2    D(5,1,2,3)           -179.963          -DE/DX =    0.0                 !
 ! D3    D(6,1,2,3)            -61.4229         -DE/DX =    0.0                 !
 --------------------------------------------------------------------------------
 GradGradGradGradGradGradGradGradGradGradGradGradGradGradGradGradGradGrad

                          Input orientation:                          
 ---------------------------------------------------------------------
 Center     Atomic      Atomic             Coordinates (Angstroms)
 Number     Number       Type             X           Y           Z
 ---------------------------------------------------------------------
      1          6           0       -0.005319   -0.663340    0.009105
      2          8           0       -0.042609    0.758822    0.074072
      3          1           0        0.404016    1.122234   -0.700267
      4          1           0        1.022565   -1.051642    0.016958
      5          1           0       -0.519868   -1.029664    0.899868
      6          1           0       -0.525786   -1.051409   -0.877402
 ---------------------------------------------------------------------
                    Distance matrix (angstroms):
                    1          2          3          4          5
     1  C    0.000000
     2  O    1.424134   0.000000
     3  H    1.964443   0.964958   0.000000
     4  H    1.098811   2.101342   2.371234   0.000000
     5  H    1.091977   2.026918   2.836311   1.777390   0.000000
     6  H    1.098807   2.101357   2.370787   1.788091   1.777413
                    6
     6  H    0.000000
 Stoichiometry    CH4O
 Framework group  C1[X(CH4O)]
 Deg. of freedom    12
 Full point group                 C1      NOp   1
 Largest Abelian subgroup         C1      NOp   1
 Largest concise Abelian subgroup C1      NOp   1
                         Standard orientation:                         
 ---------------------------------------------------------------------
 Center     Atomic      Atomic             Coordinates (Angstroms)
 Number     Number       Type             X           Y           Z
 ---------------------------------------------------------------------
      1          6           0       -0.667569   -0.020543   -0.000002
      2          8           0        0.749379    0.122336   -0.000004
      3          1           0        1.155151   -0.753160    0.000050
      4          1           0       -1.031085   -0.545206    0.894409
      5          1           0       -1.082700    0.989447   -0.000739
      6          1           0       -1.030980   -0.546513   -0.893682
 ---------------------------------------------------------------------
 Rotational constants (GHZ):    127.7034721     24.6243785     23.7728362

 **********************************************************************

            Population analysis using the SCF density.

 **********************************************************************

 Orbital symmetries:
       Occupied  (A) (A) (A) (A) (A) (A) (A) (A) (A)
       Virtual   (A) (A) (A) (A) (A) (A) (A) (A) (A) (A) (A) (A)
                 (A) (A) (A) (A) (A) (A) (A) (A) (A) (A) (A) (A)
                 (A) (A) (A) (A) (A) (A) (A) (A) (A) (A) (A) (A)
                 (A) (A) (A) (A) (A) (A) (A) (A) (A) (A) (A) (A)
                 (A)
 The electronic state is 1-A.
 Alpha  occ. eigenvalues --  -19.16083 -10.23447  -1.02522  -0.68947  -0.51377
 Alpha  occ. eigenvalues --   -0.44456  -0.43124  -0.34266  -0.28236
 Alpha virt. eigenvalues --    0.00039   0.02302   0.05224   0.05464   0.14605
 Alpha virt. eigenvalues --    0.17356   0.18737   0.19392   0.20297   0.21061
 Alpha virt. eigenvalues --    0.25147   0.27921   0.32533   0.63047   0.64119
 Alpha virt. eigenvalues --    0.65360   0.87599   0.87677   0.97392   1.01925
 Alpha virt. eigenvalues --    1.13905   1.15929   1.17084   1.26723   1.36492
 Alpha virt. eigenvalues --    1.44154   1.57487   1.58168   1.81337   1.93112
 Alpha virt. eigenvalues --    2.00477   2.02882   2.07370   2.07641   2.36996
 Alpha virt. eigenvalues --    2.38077   2.53549   2.60525   2.66507   2.69234
 Alpha virt. eigenvalues --    2.82149   2.85137   2.97347   3.20194   3.36328
 Alpha virt. eigenvalues --    3.40861   3.52902   4.17192   4.46751
          Condensed to atoms (all electrons):
              1          2          3          4          5          6
     1  C    4.868195   0.142643  -0.015647   0.400727   0.419134   0.400716
     2  O    0.142643   8.288454   0.259207  -0.051426  -0.059806  -0.051392
     3  H   -0.015647   0.259207   0.420958  -0.005809   0.006667  -0.005824
     4  H    0.400727  -0.051426  -0.005809   0.607357  -0.032650  -0.044644
     5  H    0.419134  -0.059806   0.006667  -0.032650   0.549166  -0.032631
     6  H    0.400716  -0.051392  -0.005824  -0.044644  -0.032631   0.607343
 Mulliken atomic charges:
              1
     1  C   -0.215768
     2  O   -0.527679
     3  H    0.340449
     4  H    0.126445
     5  H    0.150120
     6  H    0.126433
 Sum of Mulliken atomic charges =   0.00000
 Mulliken charges with hydrogens summed into heavy atoms:
              1
     1  C    0.187231
     2  O   -0.187231
 Sum of Mulliken charges with hydrogens summed into heavy atoms =   0.00000
 Electronic spatial extent (au):  <R**2>=             85.3542
 Charge=              0.0000 electrons
 Dipole moment (field-independent basis, Debye):
    X=             -0.9586    Y=             -1.6479    Z=              0.0000  Tot=              1.9064
 Quadrupole moment (field-independent basis, Debye-Ang):
   XX=            -13.1169   YY=            -12.3944   ZZ=            -14.0643
   XY=             -2.4653   XZ=              0.0003   YZ=             -0.0001
 Traceless Quadrupole moment (field-independent basis, Debye-Ang):
   XX=              0.0750   YY=              0.7975   ZZ=             -0.8724
   XY=             -2.4653   XZ=              0.0003   YZ=             -0.0001
 Octapole moment (field-independent basis, Debye-Ang**2):
  XXX=              4.0641  YYY=             -0.7790  ZZZ=              0.0009  XYY=              1.6377
  XXY=             -2.5864  XXZ=              0.0000  XZZ=              0.1658  YZZ=             -0.7457
  YYZ=             -0.0011  XYZ=              0.0000
 Hexadecapole moment (field-independent basis, Debye-Ang**3):
 XXXX=            -64.1246 YYYY=            -21.3059 ZZZZ=            -21.5669 XXXY=             -4.6241
 XXXZ=              0.0006 YYYX=             -3.3552 YYYZ=             -0.0002 ZZZX=             -0.0008
 ZZZY=              0.0000 XXYY=            -13.2668 XXZZ=            -15.2747 YYZZ=             -7.3050
 XXYZ=             -0.0003 YYXZ=              0.0014 ZZXY=             -0.1255
 N-N= 4.016808225131D+01 E-N=-3.512041877425D+02  KE= 1.146476687169D+02
 1\1\GINC-ROCK\FOpt\RB3LYP\6-31+G(d,p)\C1H4O1\STYLIANAKIS\27-Mar-2016\0
 \\# opt b3lyp/6-31+g(d,p)\\methanol-g\\0,1\C,-0.0053185361,-0.66334028
 82,0.0091045196\O,-0.0426091756,0.7588219323,0.0740721736\H,0.40401565
 94,1.1222336229,-0.7002672602\H,1.0225654476,-1.0516419961,0.016957646
 5\H,-0.5198677101,-1.0296641162,0.8998683922\H,-0.5257856653,-1.051409
 1746,-0.8774021516\\Version=EM64L-G09RevA.01\State=1-A\HF=-115.734871\
 RMSD=3.420e-09\RMSF=1.874e-04\Dipole=0.314436,-0.4077457,-0.5453714\Qu
 adrupole=-0.2951644,-0.1182585,0.4134229,0.8988102,-0.6127128,-1.55816
 4\PG=C01 [X(C1H4O1)]\\@


 ... UNTIL SCIENCE IS MIXED WITH EMOTION AND APPEALS TO THE HEART AND
 IMAGINATION , IT IS LIKE DEAD INORGANIC MATTER; AND WHEN IT IS SO MIXED
 AND SO TRANSFORMED IT IS LITERATURE.

                                  -- JOHN BURROUGHS
 Job cpu time:  0 days  0 hours  1 minutes 23.2 seconds.
 File lengths (MBytes):  RWF=      5 Int=      0 D2E=      0 Chk=      1 Scr=      1
 Normal termination of Gaussian 09 at Sun Mar 27 12:14:32 2016.
