 Entering Gaussian System, Link 0=g09
 Input=methylformate_O-CH3_ecl.gjf
 Output=methylformate_O-CH3_ecl.out
 Initial command:
 /usr/local/g09/l1.exe /home/scratch/stylianakis/Gau-6021.inp -scrdir=/home/scratch/stylianakis/
 Entering Link 1 = /usr/local/g09/l1.exe PID=      6022.
  
 Copyright (c) 1988,1990,1992,1993,1995,1998,2003,2009, Gaussian, Inc.
                  All Rights Reserved.
  
 This is part of the Gaussian(R) 09 program.  It is based on
 the Gaussian(R) 03 system (copyright 2003, Gaussian, Inc.),
 the Gaussian(R) 98 system (copyright 1998, Gaussian, Inc.),
 the Gaussian(R) 94 system (copyright 1995, Gaussian, Inc.),
 the Gaussian 92(TM) system (copyright 1992, Gaussian, Inc.),
 the Gaussian 90(TM) system (copyright 1990, Gaussian, Inc.),
 the Gaussian 88(TM) system (copyright 1988, Gaussian, Inc.),
 the Gaussian 86(TM) system (copyright 1986, Carnegie Mellon
 University), and the Gaussian 82(TM) system (copyright 1983,
 Carnegie Mellon University). Gaussian is a federally registered
 trademark of Gaussian, Inc.
  
 This software contains proprietary and confidential information,
 including trade secrets, belonging to Gaussian, Inc.
  
 This software is provided under written license and may be
 used, copied, transmitted, or stored only in accord with that
 written license.
  
 The following legend is applicable only to US Government
 contracts under FAR:
  
                    RESTRICTED RIGHTS LEGEND
  
 Use, reproduction and disclosure by the US Government is
 subject to restrictions as set forth in subparagraphs (a)
 and (c) of the Commercial Computer Software - Restricted
 Rights clause in FAR 52.227-19.
  
 Gaussian, Inc.
 340 Quinnipiac St., Bldg. 40, Wallingford CT 06492
  
  
 ---------------------------------------------------------------
 Warning -- This program may not be used in any manner that
 competes with the business of Gaussian, Inc. or will provide
 assistance to any competitor of Gaussian, Inc.  The licensee
 of this program is prohibited from giving any competitor of
 Gaussian, Inc. access to this program.  By using this program,
 the user acknowledges that Gaussian, Inc. is engaged in the
 business of creating and licensing software in the field of
 computational chemistry and represents and warrants to the
 licensee that it is not a competitor of Gaussian, Inc. and that
 it will not use this program in any manner prohibited above.
 ---------------------------------------------------------------
  

 Cite this work as:
 Gaussian 09, Revision A.01,
 M. J. Frisch, G. W. Trucks, H. B. Schlegel, G. E. Scuseria, 
 M. A. Robb, J. R. Cheeseman, G. Scalmani, V. Barone, B. Mennucci, 
 G. A. Petersson, H. Nakatsuji, M. Caricato, X. Li, H. P. Hratchian, 
 A. F. Izmaylov, J. Bloino, G. Zheng, J. L. Sonnenberg, M. Hada, 
 M. Ehara, K. Toyota, R. Fukuda, J. Hasegawa, M. Ishida, T. Nakajima, 
 Y. Honda, O. Kitao, H. Nakai, T. Vreven, J. A. Montgomery, Jr., 
 J. E. Peralta, F. Ogliaro, M. Bearpark, J. J. Heyd, E. Brothers, 
 K. N. Kudin, V. N. Staroverov, R. Kobayashi, J. Normand, 
 K. Raghavachari, A. Rendell, J. C. Burant, S. S. Iyengar, J. Tomasi, 
 M. Cossi, N. Rega, J. M. Millam, M. Klene, J. E. Knox, J. B. Cross, 
 V. Bakken, C. Adamo, J. Jaramillo, R. Gomperts, R. E. Stratmann, 
 O. Yazyev, A. J. Austin, R. Cammi, C. Pomelli, J. W. Ochterski, 
 R. L. Martin, K. Morokuma, V. G. Zakrzewski, G. A. Voth, 
 P. Salvador, J. J. Dannenberg, S. Dapprich, A. D. Daniels, 
 O. Farkas, J. B. Foresman, J. V. Ortiz, J. Cioslowski, 
 and D. J. Fox, Gaussian, Inc., Wallingford CT, 2009.
 
 ******************************************
 Gaussian 09:  EM64L-G09RevA.01  8-May-2009
                27-Mar-2016 
 ******************************************
 %mem=16000Mb
 %nproc=8
 Will use up to    8 processors via shared memory.
 -----------------------
 # opt b3lyp/6-31+g(d,p)
 -----------------------
 1/14=-1,18=20,19=15,26=3,38=1/1,3;
 2/9=110,12=2,17=6,18=5,40=1/2;
 3/5=1,6=6,7=111,11=2,16=1,25=1,30=1,71=1,74=-5/1,2,3;
 4//1;
 5/5=2,38=5/2;
 6/7=2,8=2,9=2,10=2,28=1/1;
 7//1,2,3,16;
 1/14=-1,18=20,19=15/3(2);
 2/9=110/2;
 99//99;
 2/9=110/2;
 3/5=1,6=6,7=111,11=2,16=1,25=1,30=1,71=1,74=-5/1,2,3;
 4/5=5,16=3/1;
 5/5=2,38=5/2;
 7//1,2,3,16;
 1/14=-1,18=20,19=15/3(-5);
 2/9=110/2;
 6/7=2,8=2,9=2,10=2,19=2,28=1/1;
 99/9=1/99;
 -----------------------
 methylformate O-CH3 ecl
 -----------------------
 Symbolic Z-matrix:
 Charge =  0 Multiplicity = 1
 C                    -0.94175  -0.07356   0.00322 
 O                    -0.98975   0.98144  -0.58478 
 O                     0.17625  -0.73056   0.41222 
 C                     1.43925  -0.14756   0.14022 
 H                    -1.84675  -0.66056   0.29322 
 H                     2.03525  -0.86056  -0.47778 
 H                     1.36225   0.82244  -0.40178 
 H                     1.97225   0.01844   1.10622 
 

 GradGradGradGradGradGradGradGradGradGradGradGradGradGradGradGradGradGrad
 Berny optimization.
 Initialization pass.
                           ----------------------------
                           !    Initial Parameters    !
                           ! (Angstroms and Degrees)  !
 --------------------------                            --------------------------
 ! Name  Definition              Value          Derivative Info.                !
 --------------------------------------------------------------------------------
 ! R1    R(1,2)                  1.2087         estimate D2E/DX2                !
 ! R2    R(1,3)                  1.3597         estimate D2E/DX2                !
 ! R3    R(1,5)                  1.117          estimate D2E/DX2                !
 ! R4    R(3,4)                  1.4174         estimate D2E/DX2                !
 ! R5    R(4,6)                  1.116          estimate D2E/DX2                !
 ! R6    R(4,7)                  1.1138         estimate D2E/DX2                !
 ! R7    R(4,8)                  1.1157         estimate D2E/DX2                !
 ! A1    A(2,1,3)              126.9201         estimate D2E/DX2                !
 ! A2    A(2,1,5)              123.5587         estimate D2E/DX2                !
 ! A3    A(3,1,5)              109.5212         estimate D2E/DX2                !
 ! A4    A(1,3,4)              118.4369         estimate D2E/DX2                !
 ! A5    A(3,4,6)              108.6235         estimate D2E/DX2                !
 ! A6    A(3,4,7)              112.9536         estimate D2E/DX2                !
 ! A7    A(3,4,8)              108.7071         estimate D2E/DX2                !
 ! A8    A(6,4,7)              108.8952         estimate D2E/DX2                !
 ! A9    A(6,4,8)              108.6255         estimate D2E/DX2                !
 ! A10   A(7,4,8)              108.9518         estimate D2E/DX2                !
 ! D1    D(2,1,3,4)              0.0876         estimate D2E/DX2                !
 ! D2    D(5,1,3,4)           -179.9358         estimate D2E/DX2                !
 ! D3    D(1,3,4,6)           -120.9983         estimate D2E/DX2                !
 ! D4    D(1,3,4,7)             -0.0783         estimate D2E/DX2                !
 ! D5    D(1,3,4,8)            120.9714         estimate D2E/DX2                !
 --------------------------------------------------------------------------------
 Trust Radius=3.00D-01 FncErr=1.00D-07 GrdErr=1.00D-06
 Number of steps in this run=  32 maximum allowed number of steps= 100.
 GradGradGradGradGradGradGradGradGradGradGradGradGradGradGradGradGradGrad

                          Input orientation:                          
 ---------------------------------------------------------------------
 Center     Atomic      Atomic             Coordinates (Angstroms)
 Number     Number       Type             X           Y           Z
 ---------------------------------------------------------------------
      1          6           0       -0.941750   -0.073563    0.003219
      2          8           0       -0.989750    0.981438   -0.584781
      3          8           0        0.176250   -0.730563    0.412219
      4          6           0        1.439250   -0.147563    0.140219
      5          1           0       -1.846750   -0.660563    0.293219
      6          1           0        2.035250   -0.860563   -0.477781
      7          1           0        1.362250    0.822438   -0.401781
      8          1           0        1.972250    0.018438    1.106219
 ---------------------------------------------------------------------
                    Distance matrix (angstroms):
                    1          2          3          4          5
     1  C    0.000000
     2  O    1.208749   0.000000
     3  O    1.359726   2.298806   0.000000
     4  C    2.386086   2.774943   1.417407   0.000000
     5  H    1.117002   2.049755   2.027706   3.329320   0.000000
     6  H    3.116610   3.543309   2.065159   1.116024   3.962873
     7  H    2.505046   2.364461   2.116837   1.113819   3.602776
     8  H    3.117125   3.544051   2.065975   1.115707   3.963177
                    6          7          8
     6  H    0.000000
     7  H    1.814165   0.000000
     8  H    1.812641   1.814547   0.000000
 Stoichiometry    C2H4O2
 Framework group  C1[X(C2H4O2)]
 Deg. of freedom    18
 Full point group                 C1      NOp   1
 Largest Abelian subgroup         C1      NOp   1
 Largest concise Abelian subgroup C1      NOp   1
                         Standard orientation:                         
 ---------------------------------------------------------------------
 Center     Atomic      Atomic             Coordinates (Angstroms)
 Number     Number       Type             X           Y           Z
 ---------------------------------------------------------------------
      1          6           0       -0.839532    0.433013   -0.000272
      2          8           0       -1.361101   -0.657418    0.000129
      3          8           0        0.493566    0.700787    0.000349
      4          6           0        1.400758   -0.388269   -0.000305
      5          1           0       -1.412805    1.391685   -0.000809
      6          1           0        2.047093   -0.314267    0.906493
      7          1           0        0.890738   -1.378457    0.000108
      8          1           0        2.047900   -0.314380   -0.906147
 ---------------------------------------------------------------------
 Rotational constants (GHZ):     20.9074255      6.4288956      5.0806470
 Standard basis: 6-31+G(d,p) (6D, 7F)
 There are    96 symmetry adapted basis functions of A   symmetry.
 Integral buffers will be    131072 words long.
 Raffenetti 2 integral format.
 Two-electron integral symmetry is turned on.
    96 basis functions,   156 primitive gaussians,    96 cartesian basis functions
    16 alpha electrons       16 beta electrons
       nuclear repulsion energy       120.8482340585 Hartrees.
 NAtoms=    8 NActive=    8 NUniq=    8 SFac= 7.50D-01 NAtFMM=   80 NAOKFM=F Big=F
 One-electron integrals computed using PRISM.
 NBasis=    96 RedAO= T  NBF=    96
 NBsUse=    96 1.00D-06 NBFU=    96
 Harris functional with IExCor=  402 diagonalized for initial guess.
 ExpMin= 4.38D-02 ExpMax= 5.48D+03 ExpMxC= 8.25D+02 IAcc=2 IRadAn=         0 AccDes= 0.00D+00
 HarFok:  IExCor=  402 AccDes= 0.00D+00 IRadAn=         0 IDoV= 1
 ScaDFX=  1.000000  1.000000  1.000000  1.000000
 FoFCou: FMM=F IPFlag=           0 FMFlag=      100000 FMFlg1=           0
         NFxFlg=           0 DoJE=T BraDBF=F KetDBF=T FulRan=T
         Omega=  0.000000  0.000000  1.000000  0.000000  0.000000 ICntrl=     500 IOpCl=  0
         NMat0=    1 NMatS0=    1 NMatT0=    0 NMatD0=    1 NMtDS0=    0 NMtDT0=    0
         I1Cent=           4 NGrid=           0.
 Petite list used in FoFCou.
 Initial guess orbital symmetries:
       Occupied  (A) (A) (A) (A) (A) (A) (A) (A) (A) (A) (A) (A)
                 (A) (A) (A) (A)
       Virtual   (A) (A) (A) (A) (A) (A) (A) (A) (A) (A) (A) (A)
                 (A) (A) (A) (A) (A) (A) (A) (A) (A) (A) (A) (A)
                 (A) (A) (A) (A) (A) (A) (A) (A) (A) (A) (A) (A)
                 (A) (A) (A) (A) (A) (A) (A) (A) (A) (A) (A) (A)
                 (A) (A) (A) (A) (A) (A) (A) (A) (A) (A) (A) (A)
                 (A) (A) (A) (A) (A) (A) (A) (A) (A) (A) (A) (A)
                 (A) (A) (A) (A) (A) (A) (A) (A)
 The electronic state of the initial guess is 1-A.
 Requested convergence on RMS density matrix=1.00D-08 within 128 cycles.
 Requested convergence on MAX density matrix=1.00D-06.
 Requested convergence on             energy=1.00D-06.
 No special actions if energy rises.
 Keep R1 ints in memory in canonical form, NReq=11875179.
 SCF Done:  E(RB3LYP) =  -229.077521074     A.U. after   12 cycles
             Convg  =    0.1269D-08             -V/T =  2.0097

 **********************************************************************

            Population analysis using the SCF density.

 **********************************************************************

 Orbital symmetries:
       Occupied  (A) (A) (A) (A) (A) (A) (A) (A) (A) (A) (A) (A)
                 (A) (A) (A) (A)
       Virtual   (A) (A) (A) (A) (A) (A) (A) (A) (A) (A) (A) (A)
                 (A) (A) (A) (A) (A) (A) (A) (A) (A) (A) (A) (A)
                 (A) (A) (A) (A) (A) (A) (A) (A) (A) (A) (A) (A)
                 (A) (A) (A) (A) (A) (A) (A) (A) (A) (A) (A) (A)
                 (A) (A) (A) (A) (A) (A) (A) (A) (A) (A) (A) (A)
                 (A) (A) (A) (A) (A) (A) (A) (A) (A) (A) (A) (A)
                 (A) (A) (A) (A) (A) (A) (A) (A)
 The electronic state is 1-A.
 Alpha  occ. eigenvalues --  -19.22095 -19.16802 -10.33720 -10.25851  -1.12112
 Alpha  occ. eigenvalues --   -1.04271  -0.74839  -0.60575  -0.54264  -0.49214
 Alpha  occ. eigenvalues --   -0.48890  -0.43388  -0.41231  -0.36838  -0.31985
 Alpha  occ. eigenvalues --   -0.30259
 Alpha virt. eigenvalues --   -0.01894   0.00673   0.02274   0.03754   0.04736
 Alpha virt. eigenvalues --    0.04849   0.07618   0.08132   0.11924   0.14335
 Alpha virt. eigenvalues --    0.16607   0.17362   0.18903   0.22013   0.22026
 Alpha virt. eigenvalues --    0.23218   0.24746   0.25781   0.28360   0.30214
 Alpha virt. eigenvalues --    0.31315   0.32200   0.35138   0.47489   0.62958
 Alpha virt. eigenvalues --    0.63915   0.66459   0.68190   0.74077   0.79580
 Alpha virt. eigenvalues --    0.87549   0.87962   0.93384   1.01959   1.10079
 Alpha virt. eigenvalues --    1.13313   1.19673   1.20301   1.23067   1.25709
 Alpha virt. eigenvalues --    1.29436   1.30649   1.32530   1.40749   1.50798
 Alpha virt. eigenvalues --    1.51064   1.58035   1.64920   1.72810   1.78835
 Alpha virt. eigenvalues --    1.83059   1.90093   1.91048   1.97351   2.00874
 Alpha virt. eigenvalues --    2.04033   2.05904   2.10994   2.17137   2.20016
 Alpha virt. eigenvalues --    2.44937   2.45404   2.49343   2.56975   2.61359
 Alpha virt. eigenvalues --    2.64492   2.75045   2.79164   2.84937   2.90362
 Alpha virt. eigenvalues --    3.05547   3.10509   3.18058   3.35618   3.37940
 Alpha virt. eigenvalues --    3.46168   4.13987   4.19939   4.46641   4.50579
          Condensed to atoms (all electrons):
              1          2          3          4          5          6
     1  C    4.706585   0.460367   0.127417  -0.056307   0.441078   0.000273
     2  O    0.460367   8.167067  -0.123198  -0.015653  -0.055385   0.000925
     3  O    0.127417  -0.123198   8.438883   0.088732  -0.120966  -0.051222
     4  C   -0.056307  -0.015653   0.088732   5.002199   0.004326   0.405858
     5  H    0.441078  -0.055385  -0.120966   0.004326   0.601817  -0.000134
     6  H    0.000273   0.000925  -0.051222   0.405858  -0.000134   0.553000
     7  H   -0.013040   0.006110  -0.039331   0.408252   0.000135  -0.028735
     8  H    0.000261   0.000934  -0.051090   0.405826  -0.000132  -0.033861
              7          8
     1  C   -0.013040   0.000261
     2  O    0.006110   0.000934
     3  O   -0.039331  -0.051090
     4  C    0.408252   0.405826
     5  H    0.000135  -0.000132
     6  H   -0.028735  -0.033861
     7  H    0.512196  -0.028720
     8  H   -0.028720   0.552812
 Mulliken atomic charges:
              1
     1  C    0.333366
     2  O   -0.441168
     3  O   -0.269225
     4  C   -0.243233
     5  H    0.129261
     6  H    0.153895
     7  H    0.183133
     8  H    0.153972
 Sum of Mulliken atomic charges =   0.00000
 Mulliken charges with hydrogens summed into heavy atoms:
              1
     1  C    0.462626
     2  O   -0.441168
     3  O   -0.269225
     4  C    0.247766
 Sum of Mulliken charges with hydrogens summed into heavy atoms =   0.00000
 Electronic spatial extent (au):  <R**2>=            264.5447
 Charge=              0.0000 electrons
 Dipole moment (field-independent basis, Debye):
    X=              1.7437    Y=              0.8376    Z=             -0.0018  Tot=              1.9344
 Quadrupole moment (field-independent basis, Debye-Ang):
   XX=            -23.9157   YY=            -24.9033   ZZ=            -23.4288
   XY=             -4.9980   XZ=             -0.0009   YZ=             -0.0010
 Traceless Quadrupole moment (field-independent basis, Debye-Ang):
   XX=              0.1669   YY=             -0.8207   ZZ=              0.6538
   XY=             -4.9980   XZ=             -0.0009   YZ=             -0.0010
 Octapole moment (field-independent basis, Debye-Ang**2):
  XXX=              6.5186  YYY=              0.6216  ZZZ=              0.0013  XYY=             -1.8151
  XXY=              4.2303  XXZ=             -0.0059  XZZ=              0.2574  YZZ=              0.2764
  YYZ=             -0.0004  XYZ=              0.0012
 Hexadecapole moment (field-independent basis, Debye-Ang**3):
 XXXX=           -226.1964 YYYY=            -81.4397 ZZZZ=            -29.2265 XXXY=             -5.9521
 XXXZ=             -0.0157 YYYX=             -2.3548 YYYZ=             -0.0021 ZZZX=             -0.0015
 ZZZY=             -0.0001 XXYY=            -51.1209 XXZZ=            -39.6460 YYZZ=            -19.6163
 XXYZ=              0.0007 YYXZ=              0.0006 ZZXY=              0.6808
 N-N= 1.208482340585D+02 E-N=-7.778881743190D+02  KE= 2.268655924257D+02
 Calling FoFJK, ICntrl=      2127 FMM=F ISym2X=0 I1Cent= 0 IOpClX= 0 NMat=1 NMatS=1 NMatT=0.
 ***** Axes restored to original set *****
 -------------------------------------------------------------------
 Center     Atomic                   Forces (Hartrees/Bohr)
 Number     Number              X              Y              Z
 -------------------------------------------------------------------
      1        6          -0.004323031   -0.005506523    0.002828354
      2        8           0.002953102   -0.003202760    0.001930157
      3        8          -0.019712833    0.001434124   -0.001431614
      4        6           0.029124756    0.011103697   -0.005400726
      5        1           0.011182797    0.003763498   -0.001647303
      6        1          -0.008534670    0.007726076    0.007959221
      7        1          -0.002877563   -0.012411040    0.006838576
      8        1          -0.007812559   -0.002907071   -0.011076664
 -------------------------------------------------------------------
 Cartesian Forces:  Max     0.029124756 RMS     0.009600785

 GradGradGradGradGradGradGradGradGradGradGradGradGradGradGradGradGradGrad
 Berny optimization.
 Internal  Forces:  Max     0.013934716 RMS     0.006893926
 Search for a local minimum.
 Step number   1 out of a maximum of   32
 All quantities printed in internal units (Hartrees-Bohrs-Radians)
 Mixed Optimization -- RFO/linear search
 Second derivative matrix not updated -- first step.
     Eigenvalues ---    0.01462   0.02225   0.02225   0.10038   0.10524
     Eigenvalues ---    0.16000   0.16000   0.16000   0.16000   0.22000
     Eigenvalues ---    0.25000   0.31870   0.31970   0.32003   0.32199
     Eigenvalues ---    0.42853   0.53003   1.005471000.000001000.00000
     Eigenvalues --- 1000.000001000.00000
 RFO step:  Lambda=-3.18863292D-03 EMin= 1.46152188D-02
 Linear search not attempted -- first point.
 Iteration  1 RMS(Cart)=  0.02519476 RMS(Int)=  0.00028439
 Iteration  2 RMS(Cart)=  0.00029157 RMS(Int)=  0.00007270
 Iteration  3 RMS(Cart)=  0.00000013 RMS(Int)=  0.00007270
 Variable       Old X    -DE/DX   Delta X   Delta X   Delta X     New X
                                 (Linear)    (Quad)   (Total)
    R1        2.28420  -0.00385   0.00000  -0.00382  -0.00382   2.28038
    R2        2.56951  -0.01140   0.00000  -0.02138  -0.02138   2.54813
    R3        2.11083  -0.01146   0.00000  -0.03561  -0.03561   2.07521
    R4        2.67851   0.01059   0.00000   0.02454   0.02454   2.70305
    R5        2.10898  -0.01390   0.00000  -0.04305  -0.04305   2.06593
    R6        2.10481  -0.01393   0.00000  -0.04285  -0.04285   2.06196
    R7        2.10838  -0.01376   0.00000  -0.04256  -0.04256   2.06582
    A1        2.21517  -0.00199   0.00000  -0.00890  -0.00890   2.20627
    A2        2.15651   0.00441   0.00000   0.02541   0.02541   2.18192
    A3        1.91151  -0.00243   0.00000  -0.01651  -0.01651   1.89499
    A4        2.06711  -0.00154   0.00000  -0.00607  -0.00607   2.06104
    A5        1.89584  -0.00096   0.00000  -0.00537  -0.00547   1.89037
    A6        1.97141  -0.00512   0.00000  -0.03219  -0.03234   1.93907
    A7        1.89730  -0.00121   0.00000  -0.00719  -0.00731   1.88999
    A8        1.90058   0.00293   0.00000   0.01744   0.01730   1.91788
    A9        1.89587   0.00168   0.00000   0.01200   0.01195   1.90782
   A10        1.90157   0.00290   0.00000   0.01672   0.01655   1.91811
    D1        0.00153  -0.00005   0.00000  -0.00211  -0.00211  -0.00058
    D2       -3.14047   0.00000   0.00000  -0.00014  -0.00014  -3.14061
    D3       -2.11182   0.00035   0.00000   0.00300   0.00293  -2.10889
    D4       -0.00137   0.00007   0.00000   0.00050   0.00048  -0.00089
    D5        2.11135  -0.00044   0.00000  -0.00429  -0.00419   2.10716
         Item               Value     Threshold  Converged?
 Maximum Force            0.013935     0.000450     NO 
 RMS     Force            0.006894     0.000300     NO 
 Maximum Displacement     0.053425     0.001800     NO 
 RMS     Displacement     0.025135     0.001200     NO 
 Predicted change in Energy=-1.611359D-03
 GradGradGradGradGradGradGradGradGradGradGradGradGradGradGradGradGradGrad

                          Input orientation:                          
 ---------------------------------------------------------------------
 Center     Atomic      Atomic             Coordinates (Angstroms)
 Number     Number       Type             X           Y           Z
 ---------------------------------------------------------------------
      1          6           0       -0.935009   -0.073263    0.002964
      2          8           0       -0.963737    0.981526   -0.582513
      3          8           0        0.168242   -0.731606    0.412400
      4          6           0        1.443472   -0.144607    0.138100
      5          1           0       -1.818640   -0.657432    0.292598
      6          1           0        2.021182   -0.846507   -0.469158
      7          1           0        1.333979    0.802487   -0.392575
      8          1           0        1.957511    0.018903    1.088933
 ---------------------------------------------------------------------
                    Distance matrix (angstroms):
                    1          2          3          4          5
     1  C    0.000000
     2  O    1.206726   0.000000
     3  O    1.348412   2.281677   0.000000
     4  C    2.383385   2.753564   1.430392   0.000000
     5  H    1.098156   2.045205   1.991872   3.305789   0.000000
     6  H    3.091904   3.502042   2.055173   1.093240   3.919217
     7  H    2.464081   2.312494   2.088150   1.091143   3.541163
     8  H    3.091035   3.500580   2.054859   1.093186   3.918022
                    6          7          8
     6  H    0.000000
     7  H    1.788098   0.000000
     8  H    1.783434   1.788202   0.000000
 Stoichiometry    C2H4O2
 Framework group  C1[X(C2H4O2)]
 Deg. of freedom    18
 Full point group                 C1      NOp   1
 Largest Abelian subgroup         C1      NOp   1
 Largest concise Abelian subgroup C1      NOp   1
                         Standard orientation:                         
 ---------------------------------------------------------------------
 Center     Atomic      Atomic             Coordinates (Angstroms)
 Number     Number       Type             X           Y           Z
 ---------------------------------------------------------------------
      1          6           0        0.838050    0.433514   -0.000282
      2          8           0        1.342758   -0.662596    0.000075
      3          8           0       -0.482412    0.706638   -0.000014
      4          6           0       -1.397547   -0.392702    0.000037
      5          1           0        1.391461    1.382029    0.000739
      6          1           0       -2.026250   -0.316262   -0.891066
      7          1           0       -0.866482   -1.345887   -0.001063
      8          1           0       -2.024512   -0.317095    0.892367
 ---------------------------------------------------------------------
 Rotational constants (GHZ):     20.7962282      6.5492666      5.1431949
 Standard basis: 6-31+G(d,p) (6D, 7F)
 There are    96 symmetry adapted basis functions of A   symmetry.
 Integral buffers will be    131072 words long.
 Raffenetti 2 integral format.
 Two-electron integral symmetry is turned on.
    96 basis functions,   156 primitive gaussians,    96 cartesian basis functions
    16 alpha electrons       16 beta electrons
       nuclear repulsion energy       121.5174901233 Hartrees.
 NAtoms=    8 NActive=    8 NUniq=    8 SFac= 7.50D-01 NAtFMM=   80 NAOKFM=F Big=F
 One-electron integrals computed using PRISM.
 NBasis=    96 RedAO= T  NBF=    96
 NBsUse=    96 1.00D-06 NBFU=    96
 Initial guess read from the read-write file.
 B after Tr=     0.000000    0.000000    0.000000
         Rot=    1.000000    0.000000    0.000000    0.000000 Ang=   0.00 deg.
 Initial guess orbital symmetries:
       Occupied  (A) (A) (A) (A) (A) (A) (A) (A) (A) (A) (A) (A)
                 (A) (A) (A) (A)
       Virtual   (A) (A) (A) (A) (A) (A) (A) (A) (A) (A) (A) (A)
                 (A) (A) (A) (A) (A) (A) (A) (A) (A) (A) (A) (A)
                 (A) (A) (A) (A) (A) (A) (A) (A) (A) (A) (A) (A)
                 (A) (A) (A) (A) (A) (A) (A) (A) (A) (A) (A) (A)
                 (A) (A) (A) (A) (A) (A) (A) (A) (A) (A) (A) (A)
                 (A) (A) (A) (A) (A) (A) (A) (A) (A) (A) (A) (A)
                 (A) (A) (A) (A) (A) (A) (A) (A)
 Harris functional with IExCor=  402 diagonalized for initial guess.
 ExpMin= 4.38D-02 ExpMax= 5.48D+03 ExpMxC= 8.25D+02 IAcc=2 IRadAn=         0 AccDes= 0.00D+00
 HarFok:  IExCor=  402 AccDes= 0.00D+00 IRadAn=         0 IDoV= 1
 ScaDFX=  1.000000  1.000000  1.000000  1.000000
 FoFCou: FMM=F IPFlag=           0 FMFlag=      100000 FMFlg1=           0
         NFxFlg=           0 DoJE=T BraDBF=F KetDBF=T FulRan=T
         Omega=  0.000000  0.000000  1.000000  0.000000  0.000000 ICntrl=     500 IOpCl=  0
         NMat0=    1 NMatS0=    1 NMatT0=    0 NMatD0=    1 NMtDS0=    0 NMtDT0=    0
         I1Cent=           4 NGrid=           0.
 Petite list used in FoFCou.
 Requested convergence on RMS density matrix=1.00D-08 within 128 cycles.
 Requested convergence on MAX density matrix=1.00D-06.
 Requested convergence on             energy=1.00D-06.
 No special actions if energy rises.
 Keep R1 ints in memory in canonical form, NReq=11875179.
 SCF Done:  E(RB3LYP) =  -229.079282393     A.U. after   13 cycles
             Convg  =    0.1357D-08             -V/T =  2.0092
 Calling FoFJK, ICntrl=      2127 FMM=F ISym2X=0 I1Cent= 0 IOpClX= 0 NMat=1 NMatS=1 NMatT=0.
 ***** Axes restored to original set *****
 -------------------------------------------------------------------
 Center     Atomic                   Forces (Hartrees/Bohr)
 Number     Number              X              Y              Z
 -------------------------------------------------------------------
      1        6           0.002674990   -0.002509622    0.001718157
      2        8          -0.000821990    0.001800815   -0.001110864
      3        8          -0.007310209   -0.002189886    0.000835001
      4        6           0.009152979    0.004423236   -0.002104532
      5        1          -0.000544466    0.000026500   -0.000115712
      6        1          -0.001201613   -0.000591250    0.000424333
      7        1          -0.000807738   -0.000282004    0.000140375
      8        1          -0.001141953   -0.000677788    0.000213241
 -------------------------------------------------------------------
 Cartesian Forces:  Max     0.009152979 RMS     0.002836563

 GradGradGradGradGradGradGradGradGradGradGradGradGradGradGradGradGradGrad
 Berny optimization.
 Using GEDIIS/GDIIS optimizer.
 Internal  Forces:  Max     0.006789824 RMS     0.001719350
 Search for a local minimum.
 Step number   2 out of a maximum of   32
 All quantities printed in internal units (Hartrees-Bohrs-Radians)
 Mixed Optimization -- RFO/linear search
 Update second derivatives using D2CorX and points    1    2
 DE= -1.76D-03 DEPred=-1.61D-03 R= 1.09D+00
 SS=  1.41D+00  RLast= 1.04D-01 DXNew= 5.0454D-01 3.1110D-01
 Trust test= 1.09D+00 RLast= 1.04D-01 DXMaxT set to 3.11D-01
 Use linear search instead of GDIIS.
     Eigenvalues ---    0.01462   0.02224   0.02225   0.10283   0.10627
     Eigenvalues ---    0.14696   0.16000   0.16000   0.16421   0.22131
     Eigenvalues ---    0.25027   0.30736   0.31987   0.32086   0.32211
     Eigenvalues ---    0.42687   0.52777   1.014091000.000001000.00000
     Eigenvalues --- 1000.000001000.00000
 RFO step:  Lambda=-1.93775748D-04 EMin= 1.46152319D-02
 Quartic linear search produced a step of  0.09172.
 Iteration  1 RMS(Cart)=  0.00662496 RMS(Int)=  0.00006602
 Iteration  2 RMS(Cart)=  0.00005273 RMS(Int)=  0.00003166
 Iteration  3 RMS(Cart)=  0.00000000 RMS(Int)=  0.00003166
 Variable       Old X    -DE/DX   Delta X   Delta X   Delta X     New X
                                 (Linear)    (Quad)   (Total)
    R1        2.28038   0.00213  -0.00035   0.00243   0.00208   2.28247
    R2        2.54813  -0.00156  -0.00196  -0.00249  -0.00445   2.54368
    R3        2.07521   0.00040  -0.00327   0.00264  -0.00063   2.07459
    R4        2.70305   0.00679   0.00225   0.01644   0.01869   2.72174
    R5        2.06593  -0.00049  -0.00395  -0.00012  -0.00407   2.06185
    R6        2.06196  -0.00023  -0.00393   0.00077  -0.00316   2.05880
    R7        2.06582  -0.00045  -0.00390  -0.00001  -0.00391   2.06191
    A1        2.20627   0.00092  -0.00082   0.00490   0.00406   2.21033
    A2        2.18192  -0.00086   0.00233  -0.00602  -0.00371   2.17821
    A3        1.89499  -0.00006  -0.00151   0.00114  -0.00040   1.89459
    A4        2.06104   0.00083  -0.00056   0.00387   0.00331   2.06435
    A5        1.89037  -0.00155  -0.00050  -0.01056  -0.01112   1.87924
    A6        1.93907  -0.00052  -0.00297  -0.00174  -0.00476   1.93431
    A7        1.88999  -0.00147  -0.00067  -0.00992  -0.01065   1.87934
    A8        1.91788   0.00123   0.00159   0.00812   0.00966   1.92754
    A9        1.90782   0.00107   0.00110   0.00581   0.00684   1.91466
   A10        1.91811   0.00119   0.00152   0.00793   0.00940   1.92751
    D1       -0.00058   0.00013  -0.00019   0.00652   0.00632   0.00574
    D2       -3.14061  -0.00014  -0.00001  -0.00668  -0.00669   3.13588
    D3       -2.10889  -0.00020   0.00027  -0.00210  -0.00180  -2.11069
    D4       -0.00089   0.00000   0.00004   0.00004   0.00008  -0.00080
    D5        2.10716   0.00020  -0.00038   0.00235   0.00195   2.10911
         Item               Value     Threshold  Converged?
 Maximum Force            0.006790     0.000450     NO 
 RMS     Force            0.001719     0.000300     NO 
 Maximum Displacement     0.015601     0.001800     NO 
 RMS     Displacement     0.006617     0.001200     NO 
 Predicted change in Energy=-1.114877D-04
 GradGradGradGradGradGradGradGradGradGradGradGradGradGradGradGradGradGrad

                          Input orientation:                          
 ---------------------------------------------------------------------
 Center     Atomic      Atomic             Coordinates (Angstroms)
 Number     Number       Type             X           Y           Z
 ---------------------------------------------------------------------
      1          6           0       -0.936080   -0.071951    0.006127
      2          8           0       -0.971280    0.980838   -0.584844
      3          8           0        0.166414   -0.728621    0.412534
      4          6           0        1.451728   -0.140339    0.136301
      5          1           0       -1.818032   -0.660278    0.291175
      6          1           0        2.017912   -0.850393   -0.468451
      7          1           0        1.339254    0.805317   -0.392876
      8          1           0        1.957083    0.014925    1.090785
 ---------------------------------------------------------------------
                    Distance matrix (angstroms):
                    1          2          3          4          5
     1  C    0.000000
     2  O    1.207829   0.000000
     3  O    1.346060   2.282841   0.000000
     4  C    2.392332   2.765512   1.440282   0.000000
     5  H    1.097825   2.043932   1.989328   3.314461   0.000000
     6  H    3.091483   3.507453   2.054022   1.091085   3.915053
     7  H    2.471022   2.325130   2.092177   1.089469   3.547443
     8  H    3.091023   3.509420   2.054113   1.091114   3.917495
                    6          7          8
     6  H    0.000000
     7  H    1.790995   0.000000
     8  H    1.784290   1.791000   0.000000
 Stoichiometry    C2H4O2
 Framework group  C1[X(C2H4O2)]
 Deg. of freedom    18
 Full point group                 C1      NOp   1
 Largest Abelian subgroup         C1      NOp   1
 Largest concise Abelian subgroup C1      NOp   1
                         Standard orientation:                         
 ---------------------------------------------------------------------
 Center     Atomic      Atomic             Coordinates (Angstroms)
 Number     Number       Type             X           Y           Z
 ---------------------------------------------------------------------
      1          6           0       -0.838625    0.432755   -0.002174
      2          8           0       -1.346741   -0.662992    0.000600
      3          8           0        0.479154    0.707216    0.000472
      4          6           0        1.405794   -0.395394    0.000017
      5          1           0       -1.392799    1.380418    0.004557
      6          1           0        2.026549   -0.306745    0.892917
      7          1           0        0.875477   -1.347079   -0.001734
      8          1           0        2.028454   -0.304548   -0.891371
 ---------------------------------------------------------------------
 Rotational constants (GHZ):     20.7672289      6.5121884      5.1187090
 Standard basis: 6-31+G(d,p) (6D, 7F)
 There are    96 symmetry adapted basis functions of A   symmetry.
 Integral buffers will be    131072 words long.
 Raffenetti 2 integral format.
 Two-electron integral symmetry is turned on.
    96 basis functions,   156 primitive gaussians,    96 cartesian basis functions
    16 alpha electrons       16 beta electrons
       nuclear repulsion energy       121.3285113021 Hartrees.
 NAtoms=    8 NActive=    8 NUniq=    8 SFac= 7.50D-01 NAtFMM=   80 NAOKFM=F Big=F
 One-electron integrals computed using PRISM.
 NBasis=    96 RedAO= T  NBF=    96
 NBsUse=    96 1.00D-06 NBFU=    96
 Initial guess read from the read-write file.
 B after Tr=     0.000000    0.000000    0.000000
         Rot=    1.000000    0.000000    0.000000    0.000000 Ang=   0.00 deg.
 Initial guess orbital symmetries:
       Occupied  (A) (A) (A) (A) (A) (A) (A) (A) (A) (A) (A) (A)
                 (A) (A) (A) (A)
       Virtual   (A) (A) (A) (A) (A) (A) (A) (A) (A) (A) (A) (A)
                 (A) (A) (A) (A) (A) (A) (A) (A) (A) (A) (A) (A)
                 (A) (A) (A) (A) (A) (A) (A) (A) (A) (A) (A) (A)
                 (A) (A) (A) (A) (A) (A) (A) (A) (A) (A) (A) (A)
                 (A) (A) (A) (A) (A) (A) (A) (A) (A) (A) (A) (A)
                 (A) (A) (A) (A) (A) (A) (A) (A) (A) (A) (A) (A)
                 (A) (A) (A) (A) (A) (A) (A) (A)
 Requested convergence on RMS density matrix=1.00D-08 within 128 cycles.
 Requested convergence on MAX density matrix=1.00D-06.
 Requested convergence on             energy=1.00D-06.
 No special actions if energy rises.
 Keep R1 ints in memory in canonical form, NReq=11875179.
 SCF Done:  E(RB3LYP) =  -229.079416716     A.U. after   14 cycles
             Convg  =    0.2938D-08             -V/T =  2.0092
 Calling FoFJK, ICntrl=      2127 FMM=F ISym2X=0 I1Cent= 0 IOpClX= 0 NMat=1 NMatS=1 NMatT=0.
 ***** Axes restored to original set *****
 -------------------------------------------------------------------
 Center     Atomic                   Forces (Hartrees/Bohr)
 Number     Number              X              Y              Z
 -------------------------------------------------------------------
      1        6           0.001878681   -0.001765252   -0.000576363
      2        8          -0.000064042    0.001118766   -0.000026399
      3        8          -0.002911571   -0.000669472    0.000689054
      4        6           0.002435573    0.001439221   -0.000629661
      5        1          -0.000831446    0.000062685    0.000500289
      6        1          -0.000004729   -0.000627102   -0.000320006
      7        1          -0.000474065    0.000505384   -0.000315411
      8        1          -0.000028401   -0.000064230    0.000678497
 -------------------------------------------------------------------
 Cartesian Forces:  Max     0.002911571 RMS     0.001090114

 GradGradGradGradGradGradGradGradGradGradGradGradGradGradGradGradGradGrad
 Berny optimization.
 Using GEDIIS/GDIIS optimizer.
 Internal  Forces:  Max     0.002350201 RMS     0.000787112
 Search for a local minimum.
 Step number   3 out of a maximum of   32
 All quantities printed in internal units (Hartrees-Bohrs-Radians)
 Mixed Optimization -- En-DIIS/RFO-DIIS
 Update second derivatives using D2CorX and points    1    2    3
 DE= -1.34D-04 DEPred=-1.11D-04 R= 1.20D+00
 SS=  1.41D+00  RLast= 3.22D-02 DXNew= 5.2321D-01 9.6613D-02
 Trust test= 1.20D+00 RLast= 3.22D-02 DXMaxT set to 3.11D-01
 Use linear search instead of GDIIS.
     Eigenvalues ---    0.01462   0.02224   0.02369   0.10352   0.10767
     Eigenvalues ---    0.11745   0.16000   0.16139   0.16304   0.22381
     Eigenvalues ---    0.25882   0.31094   0.31987   0.32135   0.32616
     Eigenvalues ---    0.38638   0.52759   1.005151000.000001000.00000
     Eigenvalues --- 1000.000001000.00000
 RFO step:  Lambda=-1.72496601D-04 EMin= 1.46152650D-02
 Quartic linear search produced a step of  0.28495.
 Iteration  1 RMS(Cart)=  0.01774979 RMS(Int)=  0.00083866
 Iteration  2 RMS(Cart)=  0.00064900 RMS(Int)=  0.00057527
 Iteration  3 RMS(Cart)=  0.00000035 RMS(Int)=  0.00057527
 Variable       Old X    -DE/DX   Delta X   Delta X   Delta X     New X
                                 (Linear)    (Quad)   (Total)
    R1        2.28247   0.00099   0.00059   0.00198   0.00257   2.28504
    R2        2.54368  -0.00106  -0.00127  -0.00577  -0.00704   2.53665
    R3        2.07459   0.00077  -0.00018   0.00078   0.00060   2.07518
    R4        2.72174   0.00235   0.00533   0.01685   0.02218   2.74392
    R5        2.06185   0.00058  -0.00116  -0.00195  -0.00311   2.05874
    R6        2.05880   0.00064  -0.00090  -0.00130  -0.00220   2.05660
    R7        2.06191   0.00057  -0.00112  -0.00190  -0.00301   2.05889
    A1        2.21033  -0.00019   0.00116   0.00052   0.00013   2.21046
    A2        2.17821  -0.00024  -0.00106  -0.00203  -0.00465   2.17356
    A3        1.89459   0.00045  -0.00012   0.00262   0.00095   1.89554
    A4        2.06435  -0.00107   0.00094  -0.00421  -0.00327   2.06109
    A5        1.87924  -0.00042  -0.00317  -0.00880  -0.01205   1.86720
    A6        1.93431  -0.00045  -0.00136  -0.00754  -0.00896   1.92535
    A7        1.87934  -0.00037  -0.00304  -0.00821  -0.01132   1.86802
    A8        1.92754   0.00041   0.00275   0.00844   0.01112   1.93866
    A9        1.91466   0.00039   0.00195   0.00688   0.00873   1.92339
   A10        1.92751   0.00042   0.00268   0.00850   0.01111   1.93862
    D1        0.00574  -0.00096   0.00180  -0.05157  -0.04964  -0.04390
    D2        3.13588   0.00098  -0.00191   0.05244   0.05040  -3.09690
    D3       -2.11069   0.00002  -0.00051  -0.00056  -0.00105  -2.11174
    D4       -0.00080  -0.00002   0.00002  -0.00031  -0.00028  -0.00108
    D5        2.10911  -0.00001   0.00055   0.00040   0.00092   2.11003
         Item               Value     Threshold  Converged?
 Maximum Force            0.002350     0.000450     NO 
 RMS     Force            0.000787     0.000300     NO 
 Maximum Displacement     0.042038     0.001800     NO 
 RMS     Displacement     0.017804     0.001200     NO 
 Predicted change in Energy=-9.283159D-05
 GradGradGradGradGradGradGradGradGradGradGradGradGradGradGradGradGradGrad

                          Input orientation:                          
 ---------------------------------------------------------------------
 Center     Atomic      Atomic             Coordinates (Angstroms)
 Number     Number       Type             X           Y           Z
 ---------------------------------------------------------------------
      1          6           0       -0.933105   -0.086610   -0.016118
      2          8           0       -0.968566    0.987941   -0.569494
      3          8           0        0.164282   -0.736410    0.402649
      4          6           0        1.458770   -0.136407    0.133102
      5          1           0       -1.818601   -0.649978    0.307035
      6          1           0        2.023873   -0.852900   -0.462021
      7          1           0        1.335524    0.804322   -0.400045
      8          1           0        1.944823    0.019542    1.095642
 ---------------------------------------------------------------------
                    Distance matrix (angstroms):
                    1          2          3          4          5
     1  C    0.000000
     2  O    1.209190   0.000000
     3  O    1.342336   2.280744   0.000000
     4  C    2.397042   2.765819   1.452018   0.000000
     5  H    1.098141   2.042948   1.987067   3.321922   0.000000
     6  H    3.087029   3.514959   2.054094   1.089438   3.923930
     7  H    2.467354   2.317597   2.095227   1.088303   3.544495
     8  H    3.087030   3.492608   2.054757   1.089519   3.903014
                    6          7          8
     6  H    0.000000
     7  H    1.795564   0.000000
     8  H    1.787097   1.795607   0.000000
 Stoichiometry    C2H4O2
 Framework group  C1[X(C2H4O2)]
 Deg. of freedom    18
 Full point group                 C1      NOp   1
 Largest Abelian subgroup         C1      NOp   1
 Largest concise Abelian subgroup C1      NOp   1
                         Standard orientation:                         
 ---------------------------------------------------------------------
 Center     Atomic      Atomic             Coordinates (Angstroms)
 Number     Number       Type             X           Y           Z
 ---------------------------------------------------------------------
      1          6           0        0.838396    0.432627   -0.016700
      2          8           0        1.343333   -0.665884    0.004575
      3          8           0       -0.474486    0.711550    0.003563
      4          6           0       -1.409601   -0.399262    0.000138
      5          1           0        1.397888    1.376099    0.035660
      6          1           0       -2.036125   -0.285052   -0.883773
      7          1           0       -0.872257   -1.345431   -0.020606
      8          1           0       -2.013052   -0.311134    0.902985
 ---------------------------------------------------------------------
 Rotational constants (GHZ):     20.6107763      6.5207101      5.1154260
 Standard basis: 6-31+G(d,p) (6D, 7F)
 There are    96 symmetry adapted basis functions of A   symmetry.
 Integral buffers will be    131072 words long.
 Raffenetti 2 integral format.
 Two-electron integral symmetry is turned on.
    96 basis functions,   156 primitive gaussians,    96 cartesian basis functions
    16 alpha electrons       16 beta electrons
       nuclear repulsion energy       121.2323737503 Hartrees.
 NAtoms=    8 NActive=    8 NUniq=    8 SFac= 7.50D-01 NAtFMM=   80 NAOKFM=F Big=F
 One-electron integrals computed using PRISM.
 NBasis=    96 RedAO= T  NBF=    96
 NBsUse=    96 1.00D-06 NBFU=    96
 Initial guess read from the read-write file.
 B after Tr=     0.000000    0.000000    0.000000
         Rot=    1.000000    0.000000    0.000000    0.000000 Ang=   0.00 deg.
 Initial guess orbital symmetries:
       Occupied  (A) (A) (A) (A) (A) (A) (A) (A) (A) (A) (A) (A)
                 (A) (A) (A) (A)
       Virtual   (A) (A) (A) (A) (A) (A) (A) (A) (A) (A) (A) (A)
                 (A) (A) (A) (A) (A) (A) (A) (A) (A) (A) (A) (A)
                 (A) (A) (A) (A) (A) (A) (A) (A) (A) (A) (A) (A)
                 (A) (A) (A) (A) (A) (A) (A) (A) (A) (A) (A) (A)
                 (A) (A) (A) (A) (A) (A) (A) (A) (A) (A) (A) (A)
                 (A) (A) (A) (A) (A) (A) (A) (A) (A) (A) (A) (A)
                 (A) (A) (A) (A) (A) (A) (A) (A)
 Harris functional with IExCor=  402 diagonalized for initial guess.
 ExpMin= 4.38D-02 ExpMax= 5.48D+03 ExpMxC= 8.25D+02 IAcc=2 IRadAn=         0 AccDes= 0.00D+00
 HarFok:  IExCor=  402 AccDes= 0.00D+00 IRadAn=         0 IDoV= 1
 ScaDFX=  1.000000  1.000000  1.000000  1.000000
 FoFCou: FMM=F IPFlag=           0 FMFlag=      100000 FMFlg1=           0
         NFxFlg=           0 DoJE=T BraDBF=F KetDBF=T FulRan=T
         Omega=  0.000000  0.000000  1.000000  0.000000  0.000000 ICntrl=     500 IOpCl=  0
         NMat0=    1 NMatS0=    1 NMatT0=    0 NMatD0=    1 NMtDS0=    0 NMtDT0=    0
         I1Cent=           4 NGrid=           0.
 Petite list used in FoFCou.
 Requested convergence on RMS density matrix=1.00D-08 within 128 cycles.
 Requested convergence on MAX density matrix=1.00D-06.
 Requested convergence on             energy=1.00D-06.
 No special actions if energy rises.
 Keep R1 ints in memory in canonical form, NReq=11875179.
 SCF Done:  E(RB3LYP) =  -229.079082979     A.U. after   13 cycles
             Convg  =    0.1397D-08             -V/T =  2.0092
 Calling FoFJK, ICntrl=      2127 FMM=F ISym2X=0 I1Cent= 0 IOpClX= 0 NMat=1 NMatS=1 NMatT=0.
 ***** Axes restored to original set *****
 -------------------------------------------------------------------
 Center     Atomic                   Forces (Hartrees/Bohr)
 Number     Number              X              Y              Z
 -------------------------------------------------------------------
      1        6          -0.000227452    0.006064259    0.009301592
      2        8           0.000078593   -0.001797368   -0.003643959
      3        8           0.002878639   -0.001218289   -0.002496692
      4        6          -0.004326320   -0.002022925    0.000404556
      5        1          -0.000796877   -0.002121564   -0.003267391
      6        1           0.001218346   -0.000390404   -0.000743667
      7        1           0.000301870    0.001004155   -0.000412103
      8        1           0.000873201    0.000482135    0.000857664
 -------------------------------------------------------------------
 Cartesian Forces:  Max     0.009301592 RMS     0.002885600

 GradGradGradGradGradGradGradGradGradGradGradGradGradGradGradGradGradGrad
 Berny optimization.
 Using GEDIIS/GDIIS optimizer.
 Internal  Forces:  Max     0.007631600 RMS     0.002411023
 Search for a local minimum.
 Step number   4 out of a maximum of   32
 All quantities printed in internal units (Hartrees-Bohrs-Radians)
 Mixed Optimization -- RFO/linear search
 Update second derivatives using D2CorX and points    1    2    4    3
 DE=  3.34D-04 DEPred=-9.28D-05 R=-3.60D+00
 Trust test=-3.60D+00 RLast= 7.93D-02 DXMaxT set to 1.56D-01
 Use linear search instead of GDIIS.
 Quartic linear search produced a step of -0.82145.
 Iteration  1 RMS(Cart)=  0.01464553 RMS(Int)=  0.00042015
 Iteration  2 RMS(Cart)=  0.00043375 RMS(Int)=  0.00008362
 Iteration  3 RMS(Cart)=  0.00000015 RMS(Int)=  0.00008362
 Variable       Old X    -DE/DX   Delta X   Delta X   Delta X     New X
                                 (Linear)    (Quad)   (Total)
    R1        2.28504   0.00007  -0.00211   0.00000  -0.00211   2.28293
    R2        2.53665   0.00106   0.00578   0.00000   0.00578   2.54243
    R3        2.07518   0.00077  -0.00049   0.00000  -0.00049   2.07469
    R4        2.74392  -0.00212  -0.01822   0.00000  -0.01822   2.72570
    R5        2.05874   0.00129   0.00256   0.00000   0.00256   2.06130
    R6        2.05660   0.00104   0.00181   0.00000   0.00181   2.05840
    R7        2.05889   0.00122   0.00248   0.00000   0.00248   2.06137
    A1        2.21046   0.00043  -0.00011   0.00000   0.00012   2.21058
    A2        2.17356  -0.00003   0.00382   0.00000   0.00404   2.17760
    A3        1.89554   0.00083  -0.00078   0.00000  -0.00056   1.89499
    A4        2.06109  -0.00080   0.00268   0.00000   0.00268   2.06377
    A5        1.86720   0.00099   0.00990   0.00000   0.00991   1.87710
    A6        1.92535   0.00031   0.00736   0.00000   0.00737   1.93272
    A7        1.86802   0.00046   0.00930   0.00000   0.00931   1.87733
    A8        1.93866  -0.00054  -0.00913   0.00000  -0.00913   1.92954
    A9        1.92339  -0.00049  -0.00717   0.00000  -0.00716   1.91623
   A10        1.93862  -0.00064  -0.00913   0.00000  -0.00912   1.92950
    D1       -0.04390   0.00744   0.04078   0.00000   0.04078  -0.00312
    D2       -3.09690  -0.00763  -0.04141   0.00000  -0.04140  -3.13830
    D3       -2.11174   0.00002   0.00086   0.00000   0.00086  -2.11088
    D4       -0.00108   0.00015   0.00023   0.00000   0.00023  -0.00085
    D5        2.11003  -0.00016  -0.00076   0.00000  -0.00076   2.10928
         Item               Value     Threshold  Converged?
 Maximum Force            0.007632     0.000450     NO 
 RMS     Force            0.002411     0.000300     NO 
 Maximum Displacement     0.034550     0.001800     NO 
 RMS     Displacement     0.014632     0.001200     NO 
 Predicted change in Energy=-1.593525D-05
 GradGradGradGradGradGradGradGradGradGradGradGradGradGradGradGradGradGrad

                          Input orientation:                          
 ---------------------------------------------------------------------
 Center     Atomic      Atomic             Coordinates (Angstroms)
 Number     Number       Type             X           Y           Z
 ---------------------------------------------------------------------
      1          6           0       -0.935530   -0.074591    0.002165
      2          8           0       -0.970890    0.982177   -0.582154
      3          8           0        0.166072   -0.730026    0.410781
      4          6           0        1.453027   -0.139649    0.135729
      5          1           0       -1.818291   -0.658456    0.294015
      6          1           0        2.019035   -0.850848   -0.467309
      7          1           0        1.338620    0.805143   -0.394147
      8          1           0        1.954957    0.015751    1.091671
 ---------------------------------------------------------------------
                    Distance matrix (angstroms):
                    1          2          3          4          5
     1  C    0.000000
     2  O    1.208072   0.000000
     3  O    1.345395   2.282595   0.000000
     4  C    2.393173   2.765723   1.442377   0.000000
     5  H    1.097881   2.043878   1.989083   3.315982   0.000000
     6  H    3.090701   3.508964   2.054048   1.090791   3.916849
     7  H    2.470375   2.323904   2.092731   1.089261   3.547081
     8  H    3.090323   3.506601   2.054241   1.090829   3.915126
                    6          7          8
     6  H    0.000000
     7  H    1.791821   0.000000
     8  H    1.784803   1.791833   0.000000
 Stoichiometry    C2H4O2
 Framework group  C1[X(C2H4O2)]
 Deg. of freedom    18
 Full point group                 C1      NOp   1
 Largest Abelian subgroup         C1      NOp   1
 Largest concise Abelian subgroup C1      NOp   1
                         Standard orientation:                         
 ---------------------------------------------------------------------
 Center     Atomic      Atomic             Coordinates (Angstroms)
 Number     Number       Type             X           Y           Z
 ---------------------------------------------------------------------
      1          6           0        0.838551    0.432721   -0.001197
      2          8           0        1.346255   -0.663487    0.000325
      3          8           0       -0.478383    0.707985    0.000245
      4          6           0       -1.406513   -0.396111    0.000014
      5          1           0        1.393798    1.379837    0.002640
      6          1           0       -2.028320   -0.302908   -0.891329
      7          1           0       -0.874906   -1.346835   -0.002243
      8          1           0       -2.025771   -0.305743    0.893469
 ---------------------------------------------------------------------
 Rotational constants (GHZ):     20.7398776      6.5131493      5.1177284
 Standard basis: 6-31+G(d,p) (6D, 7F)
 There are    96 symmetry adapted basis functions of A   symmetry.
 Integral buffers will be    131072 words long.
 Raffenetti 2 integral format.
 Two-electron integral symmetry is turned on.
    96 basis functions,   156 primitive gaussians,    96 cartesian basis functions
    16 alpha electrons       16 beta electrons
       nuclear repulsion energy       121.3091376102 Hartrees.
 NAtoms=    8 NActive=    8 NUniq=    8 SFac= 7.50D-01 NAtFMM=   80 NAOKFM=F Big=F
 One-electron integrals computed using PRISM.
 NBasis=    96 RedAO= T  NBF=    96
 NBsUse=    96 1.00D-06 NBFU=    96
 Initial guess read from the read-write file.
 B after Tr=     0.000000    0.000000    0.000000
         Rot=    1.000000    0.000000    0.000000    0.000000 Ang=   0.00 deg.
 Initial guess orbital symmetries:
       Occupied  (A) (A) (A) (A) (A) (A) (A) (A) (A) (A) (A) (A)
                 (A) (A) (A) (A)
       Virtual   (A) (A) (A) (A) (A) (A) (A) (A) (A) (A) (A) (A)
                 (A) (A) (A) (A) (A) (A) (A) (A) (A) (A) (A) (A)
                 (A) (A) (A) (A) (A) (A) (A) (A) (A) (A) (A) (A)
                 (A) (A) (A) (A) (A) (A) (A) (A) (A) (A) (A) (A)
                 (A) (A) (A) (A) (A) (A) (A) (A) (A) (A) (A) (A)
                 (A) (A) (A) (A) (A) (A) (A) (A) (A) (A) (A) (A)
                 (A) (A) (A) (A) (A) (A) (A) (A)
 Harris functional with IExCor=  402 diagonalized for initial guess.
 ExpMin= 4.38D-02 ExpMax= 5.48D+03 ExpMxC= 8.25D+02 IAcc=2 IRadAn=         0 AccDes= 0.00D+00
 HarFok:  IExCor=  402 AccDes= 0.00D+00 IRadAn=         0 IDoV= 1
 ScaDFX=  1.000000  1.000000  1.000000  1.000000
 FoFCou: FMM=F IPFlag=           0 FMFlag=      100000 FMFlg1=           0
         NFxFlg=           0 DoJE=T BraDBF=F KetDBF=T FulRan=T
         Omega=  0.000000  0.000000  1.000000  0.000000  0.000000 ICntrl=     500 IOpCl=  0
         NMat0=    1 NMatS0=    1 NMatT0=    0 NMatD0=    1 NMtDS0=    0 NMtDT0=    0
         I1Cent=           4 NGrid=           0.
 Petite list used in FoFCou.
 Requested convergence on RMS density matrix=1.00D-08 within 128 cycles.
 Requested convergence on MAX density matrix=1.00D-06.
 Requested convergence on             energy=1.00D-06.
 No special actions if energy rises.
 Keep R1 ints in memory in canonical form, NReq=11875179.
 SCF Done:  E(RB3LYP) =  -229.079433362     A.U. after   10 cycles
             Convg  =    0.2257D-08             -V/T =  2.0092
 Calling FoFJK, ICntrl=      2127 FMM=F ISym2X=0 I1Cent= 0 IOpClX= 0 NMat=1 NMatS=1 NMatT=0.
 ***** Axes restored to original set *****
 -------------------------------------------------------------------
 Center     Atomic                   Forces (Hartrees/Bohr)
 Number     Number              X              Y              Z
 -------------------------------------------------------------------
      1        6           0.001481081   -0.000350665    0.001171240
      2        8          -0.000017056    0.000548059   -0.000638045
      3        8          -0.001888391   -0.000734475    0.000098137
      4        6           0.001200214    0.000813543   -0.000433960
      5        1          -0.000784286   -0.000318808   -0.000175628
      6        1           0.000212009   -0.000581903   -0.000395249
      7        1          -0.000335049    0.000591863   -0.000332442
      8        1           0.000131478    0.000032386    0.000705948
 -------------------------------------------------------------------
 Cartesian Forces:  Max     0.001888391 RMS     0.000741032

 GradGradGradGradGradGradGradGradGradGradGradGradGradGradGradGradGradGrad
 Berny optimization.
 Using GEDIIS/GDIIS optimizer.
 Internal  Forces:  Max     0.001520347 RMS     0.000594666
 Search for a local minimum.
 Step number   5 out of a maximum of   32
 All quantities printed in internal units (Hartrees-Bohrs-Radians)
 Mixed Optimization -- En-DIIS/RFO-DIIS
 Update second derivatives using D2CorX and points    1    2    4    3    5
 Use linear search instead of GDIIS.
     Eigenvalues ---    0.01462   0.02225   0.10358   0.10781   0.11042
     Eigenvalues ---    0.15837   0.15922   0.16309   0.16956   0.22467
     Eigenvalues ---    0.25137   0.30882   0.31977   0.32025   0.32234
     Eigenvalues ---    0.33294   0.53304   0.999551000.000001000.00000
     Eigenvalues --- 1000.000001000.00000
 RFO step:  Lambda=-4.05000622D-05 EMin= 1.46152075D-02
 Quartic linear search produced a step of  0.00069.
 Iteration  1 RMS(Cart)=  0.00553152 RMS(Int)=  0.00002098
 Iteration  2 RMS(Cart)=  0.00002449 RMS(Int)=  0.00000514
 Iteration  3 RMS(Cart)=  0.00000000 RMS(Int)=  0.00000514
 Variable       Old X    -DE/DX   Delta X   Delta X   Delta X     New X
                                 (Linear)    (Quad)   (Total)
    R1        2.28293   0.00079   0.00000   0.00138   0.00138   2.28430
    R2        2.54243  -0.00073   0.00000  -0.00305  -0.00305   2.53938
    R3        2.07469   0.00076   0.00000   0.00303   0.00303   2.07773
    R4        2.72570   0.00152   0.00000   0.00809   0.00810   2.73380
    R5        2.06130   0.00071   0.00000   0.00222   0.00222   2.06352
    R6        2.05840   0.00071   0.00000   0.00238   0.00238   2.06079
    R7        2.06137   0.00068   0.00000   0.00214   0.00214   2.06351
    A1        2.21058  -0.00020   0.00000  -0.00126  -0.00127   2.20931
    A2        2.17760  -0.00022   0.00000  -0.00229  -0.00230   2.17530
    A3        1.89499   0.00043   0.00000   0.00359   0.00358   1.89857
    A4        2.06377  -0.00103   0.00000  -0.00609  -0.00609   2.05768
    A5        1.87710  -0.00017   0.00000  -0.00332  -0.00333   1.87378
    A6        1.93272  -0.00032   0.00000  -0.00422  -0.00423   1.92848
    A7        1.87733  -0.00023   0.00000  -0.00350  -0.00351   1.87381
    A8        1.92954   0.00024   0.00000   0.00365   0.00365   1.93318
    A9        1.91623   0.00023   0.00000   0.00347   0.00347   1.91970
   A10        1.92950   0.00023   0.00000   0.00358   0.00358   1.93308
    D1       -0.00312   0.00054  -0.00001   0.00355   0.00354   0.00042
    D2       -3.13830  -0.00056   0.00001  -0.00394  -0.00394   3.14095
    D3       -2.11088   0.00002   0.00000   0.00005   0.00004  -2.11084
    D4       -0.00085   0.00001   0.00000  -0.00009  -0.00009  -0.00094
    D5        2.10928  -0.00004   0.00000  -0.00043  -0.00042   2.10885
         Item               Value     Threshold  Converged?
 Maximum Force            0.001520     0.000450     NO 
 RMS     Force            0.000595     0.000300     NO 
 Maximum Displacement     0.015008     0.001800     NO 
 RMS     Displacement     0.005541     0.001200     NO 
 Predicted change in Energy=-2.025394D-05
 GradGradGradGradGradGradGradGradGradGradGradGradGradGradGradGradGradGrad

                          Input orientation:                          
 ---------------------------------------------------------------------
 Center     Atomic      Atomic             Coordinates (Angstroms)
 Number     Number       Type             X           Y           Z
 ---------------------------------------------------------------------
      1          6           0       -0.932812   -0.075401    0.005047
      2          8           0       -0.962948    0.980732   -0.582211
      3          8           0        0.165206   -0.733502    0.413712
      4          6           0        1.453986   -0.138323    0.135073
      5          1           0       -1.821008   -0.656832    0.291260
      6          1           0        2.018094   -0.851154   -0.469940
      7          1           0        1.331484    0.806817   -0.394964
      8          1           0        1.954998    0.017163    1.092775
 ---------------------------------------------------------------------
                    Distance matrix (angstroms):
                    1          2          3          4          5
     1  C    0.000000
     2  O    1.208800   0.000000
     3  O    1.343781   2.281051   0.000000
     4  C    2.391165   2.758324   1.446662   0.000000
     5  H    1.099487   2.044709   1.991462   3.319462   0.000000
     6  H    3.087920   3.500718   2.056180   1.091965   3.918659
     7  H    2.462794   2.308620   2.094455   1.090521   3.542792
     8  H    3.087259   3.499779   2.056205   1.091962   3.918535
                    6          7          8
     6  H    0.000000
     7  H    1.796086   0.000000
     8  H    1.788864   1.796020   0.000000
 Stoichiometry    C2H4O2
 Framework group  C1[X(C2H4O2)]
 Deg. of freedom    18
 Full point group                 C1      NOp   1
 Largest Abelian subgroup         C1      NOp   1
 Largest concise Abelian subgroup C1      NOp   1
                         Standard orientation:                         
 ---------------------------------------------------------------------
 Center     Atomic      Atomic             Coordinates (Angstroms)
 Number     Number       Type             X           Y           Z
 ---------------------------------------------------------------------
      1          6           0        0.837683    0.433093    0.000186
      2          8           0        1.340932   -0.665970   -0.000047
      3          8           0       -0.476822    0.712058   -0.000011
      4          6           0       -1.404356   -0.398128   -0.000024
      5          1           0        1.400035    1.377884   -0.000505
      6          1           0       -2.024374   -0.304656   -0.894020
      7          1           0       -0.865240   -1.346066   -0.000826
      8          1           0       -2.023261   -0.305657    0.894844
 ---------------------------------------------------------------------
 Rotational constants (GHZ):     20.5990207      6.5431875      5.1283311
 Standard basis: 6-31+G(d,p) (6D, 7F)
 There are    96 symmetry adapted basis functions of A   symmetry.
 Integral buffers will be    131072 words long.
 Raffenetti 2 integral format.
 Two-electron integral symmetry is turned on.
    96 basis functions,   156 primitive gaussians,    96 cartesian basis functions
    16 alpha electrons       16 beta electrons
       nuclear repulsion energy       121.3055557829 Hartrees.
 NAtoms=    8 NActive=    8 NUniq=    8 SFac= 7.50D-01 NAtFMM=   80 NAOKFM=F Big=F
 One-electron integrals computed using PRISM.
 NBasis=    96 RedAO= T  NBF=    96
 NBsUse=    96 1.00D-06 NBFU=    96
 Initial guess read from the read-write file.
 B after Tr=     0.000000    0.000000    0.000000
         Rot=    1.000000    0.000000    0.000000    0.000000 Ang=   0.00 deg.
 Initial guess orbital symmetries:
       Occupied  (A) (A) (A) (A) (A) (A) (A) (A) (A) (A) (A) (A)
                 (A) (A) (A) (A)
       Virtual   (A) (A) (A) (A) (A) (A) (A) (A) (A) (A) (A) (A)
                 (A) (A) (A) (A) (A) (A) (A) (A) (A) (A) (A) (A)
                 (A) (A) (A) (A) (A) (A) (A) (A) (A) (A) (A) (A)
                 (A) (A) (A) (A) (A) (A) (A) (A) (A) (A) (A) (A)
                 (A) (A) (A) (A) (A) (A) (A) (A) (A) (A) (A) (A)
                 (A) (A) (A) (A) (A) (A) (A) (A) (A) (A) (A) (A)
                 (A) (A) (A) (A) (A) (A) (A) (A)
 Requested convergence on RMS density matrix=1.00D-08 within 128 cycles.
 Requested convergence on MAX density matrix=1.00D-06.
 Requested convergence on             energy=1.00D-06.
 No special actions if energy rises.
 Keep R1 ints in memory in canonical form, NReq=11875179.
 SCF Done:  E(RB3LYP) =  -229.079447945     A.U. after    9 cycles
             Convg  =    0.3594D-08             -V/T =  2.0092
 Calling FoFJK, ICntrl=      2127 FMM=F ISym2X=0 I1Cent= 0 IOpClX= 0 NMat=1 NMatS=1 NMatT=0.
 ***** Axes restored to original set *****
 -------------------------------------------------------------------
 Center     Atomic                   Forces (Hartrees/Bohr)
 Number     Number              X              Y              Z
 -------------------------------------------------------------------
      1        6          -0.000146339   -0.000140550   -0.000076941
      2        8          -0.000347053    0.000139433   -0.000036492
      3        8           0.000221681   -0.000046955    0.000063213
      4        6          -0.000037429   -0.000033238    0.000029869
      5        1           0.000178378    0.000200199   -0.000049693
      6        1          -0.000037053    0.000190279    0.000142223
      7        1           0.000177387   -0.000290595    0.000163177
      8        1          -0.000009573   -0.000018574   -0.000235355
 -------------------------------------------------------------------
 Cartesian Forces:  Max     0.000347053 RMS     0.000155133

 GradGradGradGradGradGradGradGradGradGradGradGradGradGradGradGradGradGrad
 Berny optimization.
 Using GEDIIS/GDIIS optimizer.
 Internal  Forces:  Max     0.000640678 RMS     0.000247358
 Search for a local minimum.
 Step number   6 out of a maximum of   32
 All quantities printed in internal units (Hartrees-Bohrs-Radians)
 Mixed Optimization -- En-DIIS/RFO-DIIS
 Swaping is turned off.
 Update second derivatives using D2CorX and points    1    2    4    3    5
                                                      6
 DE= -1.46D-05 DEPred=-2.03D-05 R= 7.20D-01
 SS=  1.41D+00  RLast= 1.63D-02 DXNew= 2.6161D-01 4.8891D-02
 Trust test= 7.20D-01 RLast= 1.63D-02 DXMaxT set to 1.56D-01
     Eigenvalues ---    0.01461   0.02225   0.10399   0.10736   0.11401
     Eigenvalues ---    0.15837   0.15973   0.16317   0.17257   0.22221
     Eigenvalues ---    0.28298   0.29775   0.31984   0.32059   0.32138
     Eigenvalues ---    0.34092   0.54510   0.994451000.000001000.00000
     Eigenvalues --- 1000.000001000.00000
 En-DIIS/RFO-DIIS IScMMF=        0 using points:     6    5
 RFO step:  Lambda=-2.35094895D-06.
 DIIS coeffs:      0.78153      0.21847
 Iteration  1 RMS(Cart)=  0.00225035 RMS(Int)=  0.00000231
 Iteration  2 RMS(Cart)=  0.00000220 RMS(Int)=  0.00000094
 Iteration  3 RMS(Cart)=  0.00000000 RMS(Int)=  0.00000094
 Variable       Old X    -DE/DX   Delta X   Delta X   Delta X     New X
                                  (DIIS)     (GDIIS)  (Total)
    R1        2.28430   0.00015  -0.00030   0.00036   0.00006   2.28436
    R2        2.53938   0.00040   0.00067  -0.00002   0.00064   2.54002
    R3        2.07773  -0.00026  -0.00066  -0.00009  -0.00075   2.07698
    R4        2.73380   0.00001  -0.00177   0.00146  -0.00031   2.73348
    R5        2.06352  -0.00022  -0.00048  -0.00011  -0.00060   2.06292
    R6        2.06079  -0.00035  -0.00052  -0.00041  -0.00093   2.05985
    R7        2.06351  -0.00021  -0.00047  -0.00011  -0.00058   2.06293
    A1        2.20931   0.00049   0.00028   0.00143   0.00171   2.21102
    A2        2.17530  -0.00030   0.00050  -0.00153  -0.00103   2.17428
    A3        1.89857  -0.00019  -0.00078   0.00010  -0.00068   1.89789
    A4        2.05768   0.00064   0.00133   0.00065   0.00198   2.05966
    A5        1.87378   0.00008   0.00073  -0.00013   0.00059   1.87437
    A6        1.92848   0.00018   0.00092   0.00004   0.00096   1.92945
    A7        1.87381   0.00010   0.00077  -0.00010   0.00066   1.87448
    A8        1.93318  -0.00011  -0.00080   0.00013  -0.00066   1.93252
    A9        1.91970  -0.00013  -0.00076  -0.00010  -0.00085   1.91884
   A10        1.93308  -0.00011  -0.00078   0.00015  -0.00063   1.93245
    D1        0.00042  -0.00009  -0.00077   0.00026  -0.00052  -0.00010
    D2        3.14095   0.00009   0.00086  -0.00023   0.00063   3.14158
    D3       -2.11084  -0.00003  -0.00001  -0.00023  -0.00024  -2.11108
    D4       -0.00094  -0.00001   0.00002  -0.00013  -0.00011  -0.00105
    D5        2.10885   0.00003   0.00009   0.00001   0.00010   2.10895
         Item               Value     Threshold  Converged?
 Maximum Force            0.000641     0.000450     NO 
 RMS     Force            0.000247     0.000300     YES
 Maximum Displacement     0.007661     0.001800     NO 
 RMS     Displacement     0.002250     0.001200     NO 
 Predicted change in Energy=-2.113960D-06
 GradGradGradGradGradGradGradGradGradGradGradGradGradGradGradGradGradGrad

                          Input orientation:                          
 ---------------------------------------------------------------------
 Center     Atomic      Atomic             Coordinates (Angstroms)
 Number     Number       Type             X           Y           Z
 ---------------------------------------------------------------------
      1          6           0       -0.933770   -0.075076    0.004477
      2          8           0       -0.967002    0.981220   -0.582389
      3          8           0        0.165170   -0.732469    0.412922
      4          6           0        1.454544   -0.138547    0.135210
      5          1           0       -1.820679   -0.657203    0.291734
      6          1           0        2.018816   -0.851351   -0.469111
      7          1           0        1.334381    0.806379   -0.394728
      8          1           0        1.955541    0.016547    1.092634
 ---------------------------------------------------------------------
                    Distance matrix (angstroms):
                    1          2          3          4          5
     1  C    0.000000
     2  O    1.208833   0.000000
     3  O    1.344121   2.282364   0.000000
     4  C    2.392731   2.762736   1.446497   0.000000
     5  H    1.099089   2.043841   1.990967   3.319728   0.000000
     6  H    3.089442   3.505176   2.056239   1.091649   3.918967
     7  H    2.465935   2.315632   2.094613   1.090027   3.545096
     8  H    3.088786   3.503934   2.056323   1.091656   3.918574
                    6          7          8
     6  H    0.000000
     7  H    1.795008   0.000000
     8  H    1.787820   1.794970   0.000000
 Stoichiometry    C2H4O2
 Framework group  C1[X(C2H4O2)]
 Deg. of freedom    18
 Full point group                 C1      NOp   1
 Largest Abelian subgroup         C1      NOp   1
 Largest concise Abelian subgroup C1      NOp   1
                         Standard orientation:                         
 ---------------------------------------------------------------------
 Center     Atomic      Atomic             Coordinates (Angstroms)
 Number     Number       Type             X           Y           Z
 ---------------------------------------------------------------------
      1          6           0        0.837827    0.432817   -0.000023
      2          8           0        1.343667   -0.665093    0.000008
      3          8           0       -0.477188    0.711016    0.000022
      4          6           0       -1.406109   -0.397794   -0.000013
      5          1           0        1.398731    1.378006    0.000000
      6          1           0       -2.026442   -0.303786   -0.893347
      7          1           0       -0.869424   -1.346545   -0.001148
      8          1           0       -2.025007   -0.305193    0.894471
 ---------------------------------------------------------------------
 Rotational constants (GHZ):     20.6396340      6.5262872      5.1202516
 Standard basis: 6-31+G(d,p) (6D, 7F)
 There are    96 symmetry adapted basis functions of A   symmetry.
 Integral buffers will be    131072 words long.
 Raffenetti 2 integral format.
 Two-electron integral symmetry is turned on.
    96 basis functions,   156 primitive gaussians,    96 cartesian basis functions
    16 alpha electrons       16 beta electrons
       nuclear repulsion energy       121.2679945228 Hartrees.
 NAtoms=    8 NActive=    8 NUniq=    8 SFac= 7.50D-01 NAtFMM=   80 NAOKFM=F Big=F
 One-electron integrals computed using PRISM.
 NBasis=    96 RedAO= T  NBF=    96
 NBsUse=    96 1.00D-06 NBFU=    96
 Initial guess read from the read-write file.
 B after Tr=     0.000000    0.000000    0.000000
         Rot=    1.000000    0.000000    0.000000    0.000000 Ang=   0.00 deg.
 Initial guess orbital symmetries:
       Occupied  (A) (A) (A) (A) (A) (A) (A) (A) (A) (A) (A) (A)
                 (A) (A) (A) (A)
       Virtual   (A) (A) (A) (A) (A) (A) (A) (A) (A) (A) (A) (A)
                 (A) (A) (A) (A) (A) (A) (A) (A) (A) (A) (A) (A)
                 (A) (A) (A) (A) (A) (A) (A) (A) (A) (A) (A) (A)
                 (A) (A) (A) (A) (A) (A) (A) (A) (A) (A) (A) (A)
                 (A) (A) (A) (A) (A) (A) (A) (A) (A) (A) (A) (A)
                 (A) (A) (A) (A) (A) (A) (A) (A) (A) (A) (A) (A)
                 (A) (A) (A) (A) (A) (A) (A) (A)
 Requested convergence on RMS density matrix=1.00D-08 within 128 cycles.
 Requested convergence on MAX density matrix=1.00D-06.
 Requested convergence on             energy=1.00D-06.
 No special actions if energy rises.
 Keep R1 ints in memory in canonical form, NReq=11875179.
 SCF Done:  E(RB3LYP) =  -229.079449838     A.U. after    8 cycles
             Convg  =    0.4655D-08             -V/T =  2.0092
 Calling FoFJK, ICntrl=      2127 FMM=F ISym2X=0 I1Cent= 0 IOpClX= 0 NMat=1 NMatS=1 NMatT=0.
 ***** Axes restored to original set *****
 -------------------------------------------------------------------
 Center     Atomic                   Forces (Hartrees/Bohr)
 Number     Number              X              Y              Z
 -------------------------------------------------------------------
      1        6          -0.000019102   -0.000010334    0.000021105
      2        8           0.000066076   -0.000021610    0.000009546
      3        8           0.000083460    0.000062136   -0.000040264
      4        6          -0.000124060   -0.000050328    0.000025581
      5        1          -0.000006691   -0.000002938   -0.000003166
      6        1          -0.000003164   -0.000004892   -0.000001547
      7        1           0.000005708    0.000027089   -0.000016137
      8        1          -0.000002230    0.000000878    0.000004882
 -------------------------------------------------------------------
 Cartesian Forces:  Max     0.000124060 RMS     0.000039803

 GradGradGradGradGradGradGradGradGradGradGradGradGradGradGradGradGradGrad
 Berny optimization.
 Using GEDIIS/GDIIS optimizer.
 Internal  Forces:  Max     0.000119560 RMS     0.000043570
 Search for a local minimum.
 Step number   7 out of a maximum of   32
 All quantities printed in internal units (Hartrees-Bohrs-Radians)
 Mixed Optimization -- En-DIIS/RFO-DIIS
 Swaping is turned off.
 Update second derivatives using D2CorX and points    1    2    4    3    5
                                                      6    7
 DE= -1.89D-06 DEPred=-2.11D-06 R= 8.95D-01
 SS=  1.41D+00  RLast= 3.88D-03 DXNew= 2.6161D-01 1.1637D-02
 Trust test= 8.95D-01 RLast= 3.88D-03 DXMaxT set to 1.56D-01
     Eigenvalues ---    0.01461   0.02225   0.10390   0.10783   0.11826
     Eigenvalues ---    0.15588   0.15913   0.16289   0.17339   0.22714
     Eigenvalues ---    0.28361   0.31658   0.31853   0.31991   0.32808
     Eigenvalues ---    0.34659   0.56703   0.993371000.000001000.00000
     Eigenvalues --- 1000.000001000.00000
 En-DIIS/RFO-DIIS IScMMF=        0 using points:     7    6    5
 RFO step:  Lambda=-6.85131643D-08.
 DIIS coeffs:      0.79178      0.16288      0.04534
 Iteration  1 RMS(Cart)=  0.00026577 RMS(Int)=  0.00000019
 Iteration  2 RMS(Cart)=  0.00000003 RMS(Int)=  0.00000018
 Variable       Old X    -DE/DX   Delta X   Delta X   Delta X     New X
                                  (DIIS)     (GDIIS)  (Total)
    R1        2.28436  -0.00003  -0.00008   0.00003  -0.00004   2.28432
    R2        2.54002  -0.00006   0.00000  -0.00002  -0.00002   2.54000
    R3        2.07698   0.00001   0.00002  -0.00001   0.00001   2.07699
    R4        2.73348  -0.00012  -0.00030  -0.00009  -0.00039   2.73309
    R5        2.06292   0.00000   0.00002   0.00000   0.00002   2.06294
    R6        2.05985   0.00003   0.00009   0.00001   0.00009   2.05995
    R7        2.06293   0.00000   0.00002   0.00000   0.00002   2.06295
    A1        2.21102  -0.00009  -0.00030  -0.00002  -0.00032   2.21070
    A2        2.17428   0.00005   0.00032  -0.00013   0.00019   2.17447
    A3        1.89789   0.00005  -0.00002   0.00014   0.00012   1.89801
    A4        2.05966  -0.00009  -0.00014  -0.00003  -0.00017   2.05949
    A5        1.87437  -0.00001   0.00003   0.00000   0.00003   1.87440
    A6        1.92945   0.00001  -0.00001   0.00017   0.00017   1.92961
    A7        1.87448   0.00000   0.00002   0.00004   0.00006   1.87453
    A8        1.93252   0.00000  -0.00003  -0.00007  -0.00010   1.93242
    A9        1.91884   0.00000   0.00002  -0.00007  -0.00005   1.91879
   A10        1.93245   0.00000  -0.00003  -0.00006  -0.00010   1.93235
    D1       -0.00010   0.00001  -0.00005   0.00011   0.00005  -0.00005
    D2        3.14158  -0.00001   0.00005  -0.00008  -0.00003   3.14155
    D3       -2.11108   0.00000   0.00005  -0.00014  -0.00009  -2.11117
    D4       -0.00105   0.00000   0.00003  -0.00012  -0.00010  -0.00115
    D5        2.10895   0.00000   0.00000  -0.00008  -0.00008   2.10887
         Item               Value     Threshold  Converged?
 Maximum Force            0.000120     0.000450     YES
 RMS     Force            0.000044     0.000300     YES
 Maximum Displacement     0.000944     0.001800     YES
 RMS     Displacement     0.000266     0.001200     YES
 Predicted change in Energy=-5.911289D-08
 Optimization completed.
    -- Stationary point found.
                           ----------------------------
                           !   Optimized Parameters   !
                           ! (Angstroms and Degrees)  !
 --------------------------                            --------------------------
 ! Name  Definition              Value          Derivative Info.                !
 --------------------------------------------------------------------------------
 ! R1    R(1,2)                  1.2088         -DE/DX =    0.0                 !
 ! R2    R(1,3)                  1.3441         -DE/DX =   -0.0001              !
 ! R3    R(1,5)                  1.0991         -DE/DX =    0.0                 !
 ! R4    R(3,4)                  1.4465         -DE/DX =   -0.0001              !
 ! R5    R(4,6)                  1.0916         -DE/DX =    0.0                 !
 ! R6    R(4,7)                  1.09           -DE/DX =    0.0                 !
 ! R7    R(4,8)                  1.0917         -DE/DX =    0.0                 !
 ! A1    A(2,1,3)              126.682          -DE/DX =   -0.0001              !
 ! A2    A(2,1,5)              124.5769         -DE/DX =    0.0                 !
 ! A3    A(3,1,5)              108.741          -DE/DX =    0.0                 !
 ! A4    A(1,3,4)              118.0099         -DE/DX =   -0.0001              !
 ! A5    A(3,4,6)              107.3935         -DE/DX =    0.0                 !
 ! A6    A(3,4,7)              110.5492         -DE/DX =    0.0                 !
 ! A7    A(3,4,8)              107.3997         -DE/DX =    0.0                 !
 ! A8    A(6,4,7)              110.7252         -DE/DX =    0.0                 !
 ! A9    A(6,4,8)              109.9416         -DE/DX =    0.0                 !
 ! A10   A(7,4,8)              110.7212         -DE/DX =    0.0                 !
 ! D1    D(2,1,3,4)             -0.0058         -DE/DX =    0.0                 !
 ! D2    D(5,1,3,4)            179.9993         -DE/DX =    0.0                 !
 ! D3    D(1,3,4,6)           -120.9557         -DE/DX =    0.0                 !
 ! D4    D(1,3,4,7)             -0.0603         -DE/DX =    0.0                 !
 ! D5    D(1,3,4,8)            120.834          -DE/DX =    0.0                 !
 --------------------------------------------------------------------------------
 GradGradGradGradGradGradGradGradGradGradGradGradGradGradGradGradGradGrad

                          Input orientation:                          
 ---------------------------------------------------------------------
 Center     Atomic      Atomic             Coordinates (Angstroms)
 Number     Number       Type             X           Y           Z
 ---------------------------------------------------------------------
      1          6           0       -0.933770   -0.075076    0.004477
      2          8           0       -0.967002    0.981220   -0.582389
      3          8           0        0.165170   -0.732469    0.412922
      4          6           0        1.454544   -0.138547    0.135210
      5          1           0       -1.820679   -0.657203    0.291734
      6          1           0        2.018816   -0.851351   -0.469111
      7          1           0        1.334381    0.806379   -0.394728
      8          1           0        1.955541    0.016547    1.092634
 ---------------------------------------------------------------------
                    Distance matrix (angstroms):
                    1          2          3          4          5
     1  C    0.000000
     2  O    1.208833   0.000000
     3  O    1.344121   2.282364   0.000000
     4  C    2.392731   2.762736   1.446497   0.000000
     5  H    1.099089   2.043841   1.990967   3.319728   0.000000
     6  H    3.089442   3.505176   2.056239   1.091649   3.918967
     7  H    2.465935   2.315632   2.094613   1.090027   3.545096
     8  H    3.088786   3.503934   2.056323   1.091656   3.918574
                    6          7          8
     6  H    0.000000
     7  H    1.795008   0.000000
     8  H    1.787820   1.794970   0.000000
 Stoichiometry    C2H4O2
 Framework group  C1[X(C2H4O2)]
 Deg. of freedom    18
 Full point group                 C1      NOp   1
 Largest Abelian subgroup         C1      NOp   1
 Largest concise Abelian subgroup C1      NOp   1
                         Standard orientation:                         
 ---------------------------------------------------------------------
 Center     Atomic      Atomic             Coordinates (Angstroms)
 Number     Number       Type             X           Y           Z
 ---------------------------------------------------------------------
      1          6           0        0.837827    0.432817   -0.000023
      2          8           0        1.343667   -0.665093    0.000008
      3          8           0       -0.477188    0.711016    0.000022
      4          6           0       -1.406109   -0.397794   -0.000013
      5          1           0        1.398731    1.378006    0.000000
      6          1           0       -2.026442   -0.303786   -0.893347
      7          1           0       -0.869424   -1.346545   -0.001148
      8          1           0       -2.025007   -0.305193    0.894471
 ---------------------------------------------------------------------
 Rotational constants (GHZ):     20.6396340      6.5262872      5.1202516

 **********************************************************************

            Population analysis using the SCF density.

 **********************************************************************

 Orbital symmetries:
       Occupied  (A) (A) (A) (A) (A) (A) (A) (A) (A) (A) (A) (A)
                 (A) (A) (A) (A)
       Virtual   (A) (A) (A) (A) (A) (A) (A) (A) (A) (A) (A) (A)
                 (A) (A) (A) (A) (A) (A) (A) (A) (A) (A) (A) (A)
                 (A) (A) (A) (A) (A) (A) (A) (A) (A) (A) (A) (A)
                 (A) (A) (A) (A) (A) (A) (A) (A) (A) (A) (A) (A)
                 (A) (A) (A) (A) (A) (A) (A) (A) (A) (A) (A) (A)
                 (A) (A) (A) (A) (A) (A) (A) (A) (A) (A) (A) (A)
                 (A) (A) (A) (A) (A) (A) (A) (A)
 The electronic state is 1-A.
 Alpha  occ. eigenvalues --  -19.21889 -19.16369 -10.33228 -10.25424  -1.11993
 Alpha  occ. eigenvalues --   -1.03788  -0.75204  -0.60814  -0.54261  -0.49341
 Alpha  occ. eigenvalues --   -0.48590  -0.43604  -0.41527  -0.37087  -0.32068
 Alpha  occ. eigenvalues --   -0.29996
 Alpha virt. eigenvalues --   -0.01461   0.00730   0.02318   0.03716   0.04819
 Alpha virt. eigenvalues --    0.04823   0.07642   0.08247   0.12036   0.14796
 Alpha virt. eigenvalues --    0.16280   0.16867   0.19157   0.22230   0.22395
 Alpha virt. eigenvalues --    0.23605   0.24989   0.25865   0.28990   0.30265
 Alpha virt. eigenvalues --    0.32082   0.32320   0.35823   0.47577   0.62222
 Alpha virt. eigenvalues --    0.63521   0.66517   0.67487   0.74117   0.79657
 Alpha virt. eigenvalues --    0.88693   0.88697   0.94109   1.03211   1.10111
 Alpha virt. eigenvalues --    1.13218   1.19701   1.20277   1.22466   1.26061
 Alpha virt. eigenvalues --    1.29808   1.30751   1.33064   1.40710   1.50983
 Alpha virt. eigenvalues --    1.51337   1.59003   1.65300   1.73615   1.79321
 Alpha virt. eigenvalues --    1.84937   1.90827   1.91480   1.95274   2.00655
 Alpha virt. eigenvalues --    2.05270   2.08168   2.11353   2.18427   2.20195
 Alpha virt. eigenvalues --    2.46962   2.47677   2.51199   2.56519   2.62719
 Alpha virt. eigenvalues --    2.66844   2.75733   2.82379   2.87369   2.92179
 Alpha virt. eigenvalues --    3.07507   3.12208   3.24371   3.39087   3.41232
 Alpha virt. eigenvalues --    3.48798   4.14035   4.20009   4.47357   4.50465
          Condensed to atoms (all electrons):
              1          2          3          4          5          6
     1  C    4.690792   0.458346   0.132836  -0.055671   0.445468   0.000202
     2  O    0.458346   8.186316  -0.125148  -0.018783  -0.055385   0.001184
     3  O    0.132836  -0.125148   8.442697   0.093585  -0.126417  -0.049121
     4  C   -0.055671  -0.018783   0.093585   4.984390   0.004084   0.408593
     5  H    0.445468  -0.055385  -0.126417   0.004084   0.606376  -0.000140
     6  H    0.000202   0.001184  -0.049121   0.408593  -0.000140   0.542115
     7  H   -0.011669   0.005944  -0.039856   0.411832   0.000150  -0.027912
     8  H    0.000182   0.001189  -0.049096   0.408584  -0.000140  -0.033165
              7          8
     1  C   -0.011669   0.000182
     2  O    0.005944   0.001189
     3  O   -0.039856  -0.049096
     4  C    0.411832   0.408584
     5  H    0.000150  -0.000140
     6  H   -0.027912  -0.033165
     7  H    0.501679  -0.027921
     8  H   -0.027921   0.542123
 Mulliken atomic charges:
              1
     1  C    0.339514
     2  O   -0.453663
     3  O   -0.279479
     4  C   -0.236616
     5  H    0.126004
     6  H    0.158244
     7  H    0.187752
     8  H    0.158244
 Sum of Mulliken atomic charges =   0.00000
 Mulliken charges with hydrogens summed into heavy atoms:
              1
     1  C    0.465518
     2  O   -0.453663
     3  O   -0.279479
     4  C    0.267625
 Sum of Mulliken charges with hydrogens summed into heavy atoms =   0.00000
 Electronic spatial extent (au):  <R**2>=            262.0768
 Charge=              0.0000 electrons
 Dipole moment (field-independent basis, Debye):
    X=             -1.8935    Y=              0.8196    Z=             -0.0001  Tot=              2.0633
 Quadrupole moment (field-independent basis, Debye-Ang):
   XX=            -23.7037   YY=            -24.9360   ZZ=            -23.3005
   XY=              5.0178   XZ=              0.0001   YZ=              0.0001
 Traceless Quadrupole moment (field-independent basis, Debye-Ang):
   XX=              0.2764   YY=             -0.9559   ZZ=              0.6795
   XY=              5.0178   XZ=              0.0001   YZ=              0.0001
 Octapole moment (field-independent basis, Debye-Ang**2):
  XXX=             -7.3232  YYY=              0.5398  ZZZ=              0.0021  XYY=              1.6254
  XXY=              4.2244  XXZ=             -0.0013  XZZ=             -0.4648  YZZ=              0.2540
  YYZ=             -0.0011  XYZ=              0.0012
 Hexadecapole moment (field-independent basis, Debye-Ang**3):
 XXXX=           -221.2625 YYYY=            -81.7742 ZZZZ=            -28.5384 XXXY=              6.0265
 XXXZ=              0.0068 YYYX=              2.5046 YYYZ=              0.0026 ZZZX=             -0.0034
 ZZZY=             -0.0015 XXYY=            -50.6616 XXZZ=            -38.7348 YYZZ=            -19.4889
 XXYZ=             -0.0031 YYXZ=              0.0003 ZZXY=             -0.5494
 N-N= 1.212679945228D+02 E-N=-7.788542928995D+02  KE= 2.269826344572D+02
 1\1\GINC-ROCK\FOpt\RB3LYP\6-31+G(d,p)\C2H4O2\STYLIANAKIS\27-Mar-2016\0
 \\# opt b3lyp/6-31+g(d,p)\\methylformate O-CH3 ecl\\0,1\C,-0.933769947
 3,-0.0750764266,0.0044769699\O,-0.9670020678,0.9812198644,-0.582388942
 2\O,0.1651696054,-0.7324688281,0.4129218928\C,1.4545440804,-0.13854707
 27,0.1352103859\H,-1.8206794906,-0.6572026113,0.291734189\H,2.01881574
 97,-0.851351358,-0.4691108609\H,1.3343808382,0.8063791287,-0.394727617
 2\H,1.955541232,0.0165473036,1.0926339828\\Version=EM64L-G09RevA.01\St
 ate=1-A\HF=-229.0794498\RMSD=4.655e-09\RMSF=3.980e-05\Dipole=0.5577707
 ,-0.5061181,0.3028197\Quadrupole=2.7590849,-2.3130718,-0.4460131,2.000
 5423,-1.0189937,1.642382\PG=C01 [X(C2H4O2)]\\@


 HE THAT WALD REACHE THE SWEITE ROSE
 SULD NOW AND THEN BE SCRATCHED WT THE SCHARPE BREERES.
 -- PROVERBS AND REASONS OF THE YEAR 1585
           AS REPRINTED IN PAISLEY MAGAZINE 1828.
 Job cpu time:  0 days  0 hours  7 minutes 16.2 seconds.
 File lengths (MBytes):  RWF=      9 Int=      0 D2E=      0 Chk=      2 Scr=      1
 Normal termination of Gaussian 09 at Sun Mar 27 12:18:27 2016.
