 Entering Gaussian System, Link 0=g09
 Input=N-methylpiperidine-ch-ax.gjf
 Output=N-methylpiperidine-ch-ax.out
 Initial command:
 /usr/local/g09/l1.exe /home/scratch/stylianakis/Gau-27155.inp -scrdir=/home/scratch/stylianakis/
 Entering Link 1 = /usr/local/g09/l1.exe PID=     27156.
  
 Copyright (c) 1988,1990,1992,1993,1995,1998,2003,2009, Gaussian, Inc.
                  All Rights Reserved.
  
 This is part of the Gaussian(R) 09 program.  It is based on
 the Gaussian(R) 03 system (copyright 2003, Gaussian, Inc.),
 the Gaussian(R) 98 system (copyright 1998, Gaussian, Inc.),
 the Gaussian(R) 94 system (copyright 1995, Gaussian, Inc.),
 the Gaussian 92(TM) system (copyright 1992, Gaussian, Inc.),
 the Gaussian 90(TM) system (copyright 1990, Gaussian, Inc.),
 the Gaussian 88(TM) system (copyright 1988, Gaussian, Inc.),
 the Gaussian 86(TM) system (copyright 1986, Carnegie Mellon
 University), and the Gaussian 82(TM) system (copyright 1983,
 Carnegie Mellon University). Gaussian is a federally registered
 trademark of Gaussian, Inc.
  
 This software contains proprietary and confidential information,
 including trade secrets, belonging to Gaussian, Inc.
  
 This software is provided under written license and may be
 used, copied, transmitted, or stored only in accord with that
 written license.
  
 The following legend is applicable only to US Government
 contracts under FAR:
  
                    RESTRICTED RIGHTS LEGEND
  
 Use, reproduction and disclosure by the US Government is
 subject to restrictions as set forth in subparagraphs (a)
 and (c) of the Commercial Computer Software - Restricted
 Rights clause in FAR 52.227-19.
  
 Gaussian, Inc.
 340 Quinnipiac St., Bldg. 40, Wallingford CT 06492
  
  
 ---------------------------------------------------------------
 Warning -- This program may not be used in any manner that
 competes with the business of Gaussian, Inc. or will provide
 assistance to any competitor of Gaussian, Inc.  The licensee
 of this program is prohibited from giving any competitor of
 Gaussian, Inc. access to this program.  By using this program,
 the user acknowledges that Gaussian, Inc. is engaged in the
 business of creating and licensing software in the field of
 computational chemistry and represents and warrants to the
 licensee that it is not a competitor of Gaussian, Inc. and that
 it will not use this program in any manner prohibited above.
 ---------------------------------------------------------------
  

 Cite this work as:
 Gaussian 09, Revision A.01,
 M. J. Frisch, G. W. Trucks, H. B. Schlegel, G. E. Scuseria, 
 M. A. Robb, J. R. Cheeseman, G. Scalmani, V. Barone, B. Mennucci, 
 G. A. Petersson, H. Nakatsuji, M. Caricato, X. Li, H. P. Hratchian, 
 A. F. Izmaylov, J. Bloino, G. Zheng, J. L. Sonnenberg, M. Hada, 
 M. Ehara, K. Toyota, R. Fukuda, J. Hasegawa, M. Ishida, T. Nakajima, 
 Y. Honda, O. Kitao, H. Nakai, T. Vreven, J. A. Montgomery, Jr., 
 J. E. Peralta, F. Ogliaro, M. Bearpark, J. J. Heyd, E. Brothers, 
 K. N. Kudin, V. N. Staroverov, R. Kobayashi, J. Normand, 
 K. Raghavachari, A. Rendell, J. C. Burant, S. S. Iyengar, J. Tomasi, 
 M. Cossi, N. Rega, J. M. Millam, M. Klene, J. E. Knox, J. B. Cross, 
 V. Bakken, C. Adamo, J. Jaramillo, R. Gomperts, R. E. Stratmann, 
 O. Yazyev, A. J. Austin, R. Cammi, C. Pomelli, J. W. Ochterski, 
 R. L. Martin, K. Morokuma, V. G. Zakrzewski, G. A. Voth, 
 P. Salvador, J. J. Dannenberg, S. Dapprich, A. D. Daniels, 
 O. Farkas, J. B. Foresman, J. V. Ortiz, J. Cioslowski, 
 and D. J. Fox, Gaussian, Inc., Wallingford CT, 2009.
 
 ******************************************
 Gaussian 09:  EM64L-G09RevA.01  8-May-2009
                27-Mar-2016 
 ******************************************
 %mem=16000Mb
 %nproc=8
 Will use up to    8 processors via shared memory.
 -----------------------
 # opt b3lyp/6-31+g(d,p)
 -----------------------
 1/14=-1,18=20,19=15,26=3,38=1/1,3;
 2/9=110,12=2,17=6,18=5,40=1/2;
 3/5=1,6=6,7=111,11=2,16=1,25=1,30=1,71=1,74=-5/1,2,3;
 4//1;
 5/5=2,38=5/2;
 6/7=2,8=2,9=2,10=2,28=1/1;
 7//1,2,3,16;
 1/14=-1,18=20,19=15/3(2);
 2/9=110/2;
 99//99;
 2/9=110/2;
 3/5=1,6=6,7=111,11=2,16=1,25=1,30=1,71=1,74=-5/1,2,3;
 4/5=5,16=3/1;
 5/5=2,38=5/2;
 7//1,2,3,16;
 1/14=-1,18=20,19=15/3(-5);
 2/9=110/2;
 6/7=2,8=2,9=2,10=2,19=2,28=1/1;
 99/9=1/99;
 ------------------------
 N-methylpiperidine-ch-ax
 ------------------------
 Symbolic Z-matrix:
 Charge =  0 Multiplicity = 1
 C                    -1.12534  -0.98561  -0.96777 
 C                    -1.12634   0.54839  -0.96777 
 C                    -0.38734  -1.51061   0.27023 
 C                     0.30566   1.08339  -0.81277 
 C                     1.01066  -0.87961   0.36723 
 N                     1.00766   0.57839   0.36123 
 C                     0.48166   1.13439   1.59823 
 H                    -0.61134  -1.35461  -1.88777 
 H                    -2.17034  -1.37661  -0.99477 
 H                    -1.77834   0.92739  -0.14577 
 H                    -1.57134   0.92439  -1.91977 
 H                    -0.29834  -2.62261   0.21223 
 H                    -0.98234  -1.29161   1.18723 
 H                     0.29766   2.20039  -0.79777 
 H                     0.88966   0.80139  -1.72177 
 H                     1.62066  -1.23461  -0.49777 
 H                     1.53666  -1.25361   1.27823 
 H                    -0.58134   0.86139   1.78023 
 H                     1.08366   0.78139   2.46723 
 H                     0.55766   2.24639   1.58723 
 

 GradGradGradGradGradGradGradGradGradGradGradGradGradGradGradGradGradGrad
 Berny optimization.
 Initialization pass.
                           ----------------------------
                           !    Initial Parameters    !
                           ! (Angstroms and Degrees)  !
 --------------------------                            --------------------------
 ! Name  Definition              Value          Derivative Info.                !
 --------------------------------------------------------------------------------
 ! R1    R(1,2)                  1.534          estimate D2E/DX2                !
 ! R2    R(1,3)                  1.5339         estimate D2E/DX2                !
 ! R3    R(1,8)                  1.1166         estimate D2E/DX2                !
 ! R4    R(1,9)                  1.1161         estimate D2E/DX2                !
 ! R5    R(2,4)                  1.5365         estimate D2E/DX2                !
 ! R6    R(2,10)                 1.1155         estimate D2E/DX2                !
 ! R7    R(2,11)                 1.1161         estimate D2E/DX2                !
 ! R8    R(3,5)                  1.5369         estimate D2E/DX2                !
 ! R9    R(3,12)                 1.1171         estimate D2E/DX2                !
 ! R10   R(3,13)                 1.1148         estimate D2E/DX2                !
 ! R11   R(4,6)                  1.4581         estimate D2E/DX2                !
 ! R12   R(4,14)                 1.1171         estimate D2E/DX2                !
 ! R13   R(4,15)                 1.1166         estimate D2E/DX2                !
 ! R14   R(5,6)                  1.458          estimate D2E/DX2                !
 ! R15   R(5,16)                 1.1164         estimate D2E/DX2                !
 ! R16   R(5,17)                 1.1165         estimate D2E/DX2                !
 ! R17   R(6,7)                  1.4546         estimate D2E/DX2                !
 ! R18   R(7,18)                 1.1125         estimate D2E/DX2                !
 ! R19   R(7,19)                 1.1145         estimate D2E/DX2                !
 ! R20   R(7,20)                 1.1146         estimate D2E/DX2                !
 ! A1    A(2,1,3)              110.0338         estimate D2E/DX2                !
 ! A2    A(2,1,8)              109.3157         estimate D2E/DX2                !
 ! A3    A(2,1,9)              110.4704         estimate D2E/DX2                !
 ! A4    A(3,1,8)              109.2934         estimate D2E/DX2                !
 ! A5    A(3,1,9)              110.4933         estimate D2E/DX2                !
 ! A6    A(8,1,9)              107.176          estimate D2E/DX2                !
 ! A7    A(1,2,4)              110.3396         estimate D2E/DX2                !
 ! A8    A(1,2,10)             109.8846         estimate D2E/DX2                !
 ! A9    A(1,2,11)             109.7029         estimate D2E/DX2                !
 ! A10   A(4,2,10)             110.6149         estimate D2E/DX2                !
 ! A11   A(4,2,11)             109.897          estimate D2E/DX2                !
 ! A12   A(10,2,11)            106.3216         estimate D2E/DX2                !
 ! A13   A(1,3,5)              110.3688         estimate D2E/DX2                !
 ! A14   A(1,3,12)             109.7025         estimate D2E/DX2                !
 ! A15   A(1,3,13)             109.8674         estimate D2E/DX2                !
 ! A16   A(5,3,12)             109.8474         estimate D2E/DX2                !
 ! A17   A(5,3,13)             110.6656         estimate D2E/DX2                !
 ! A18   A(12,3,13)            106.3068         estimate D2E/DX2                !
 ! A19   A(2,4,6)              114.1625         estimate D2E/DX2                !
 ! A20   A(2,4,14)             110.0494         estimate D2E/DX2                !
 ! A21   A(2,4,15)             108.5042         estimate D2E/DX2                !
 ! A22   A(6,4,14)             109.8119         estimate D2E/DX2                !
 ! A23   A(6,4,15)             108.4317         estimate D2E/DX2                !
 ! A24   A(14,4,15)            105.4973         estimate D2E/DX2                !
 ! A25   A(3,5,6)              114.1068         estimate D2E/DX2                !
 ! A26   A(3,5,16)             108.5158         estimate D2E/DX2                !
 ! A27   A(3,5,17)             110.0308         estimate D2E/DX2                !
 ! A28   A(6,5,16)             108.4163         estimate D2E/DX2                !
 ! A29   A(6,5,17)             109.835          estimate D2E/DX2                !
 ! A30   A(16,5,17)            105.5618         estimate D2E/DX2                !
 ! A31   A(4,6,5)              110.5263         estimate D2E/DX2                !
 ! A32   A(4,6,7)              112.2231         estimate D2E/DX2                !
 ! A33   A(5,6,7)              112.3006         estimate D2E/DX2                !
 ! A34   A(6,7,18)             113.0068         estimate D2E/DX2                !
 ! A35   A(6,7,19)             110.2837         estimate D2E/DX2                !
 ! A36   A(6,7,20)             110.3815         estimate D2E/DX2                !
 ! A37   A(18,7,19)            108.1094         estimate D2E/DX2                !
 ! A38   A(18,7,20)            108.1544         estimate D2E/DX2                !
 ! A39   A(19,7,20)            106.6688         estimate D2E/DX2                !
 ! D1    D(3,1,2,4)             53.0354         estimate D2E/DX2                !
 ! D2    D(3,1,2,10)           -69.1989         estimate D2E/DX2                !
 ! D3    D(3,1,2,11)           174.2526         estimate D2E/DX2                !
 ! D4    D(8,1,2,4)            -66.9957         estimate D2E/DX2                !
 ! D5    D(8,1,2,10)           170.7701         estimate D2E/DX2                !
 ! D6    D(8,1,2,11)            54.2215         estimate D2E/DX2                !
 ! D7    D(9,1,2,4)            175.3035         estimate D2E/DX2                !
 ! D8    D(9,1,2,10)            53.0693         estimate D2E/DX2                !
 ! D9    D(9,1,2,11)           -63.4793         estimate D2E/DX2                !
 ! D10   D(2,1,3,5)            -53.0674         estimate D2E/DX2                !
 ! D11   D(2,1,3,12)          -174.2413         estimate D2E/DX2                !
 ! D12   D(2,1,3,13)            69.2384         estimate D2E/DX2                !
 ! D13   D(8,1,3,5)             66.9771         estimate D2E/DX2                !
 ! D14   D(8,1,3,12)           -54.1968         estimate D2E/DX2                !
 ! D15   D(8,1,3,13)          -170.717          estimate D2E/DX2                !
 ! D16   D(9,1,3,5)           -175.3219         estimate D2E/DX2                !
 ! D17   D(9,1,3,12)            63.5041         estimate D2E/DX2                !
 ! D18   D(9,1,3,13)           -53.0161         estimate D2E/DX2                !
 ! D19   D(1,2,4,6)            -55.1445         estimate D2E/DX2                !
 ! D20   D(1,2,4,14)          -179.1431         estimate D2E/DX2                !
 ! D21   D(1,2,4,15)            65.8913         estimate D2E/DX2                !
 ! D22   D(10,2,4,6)            66.6589         estimate D2E/DX2                !
 ! D23   D(10,2,4,14)          -57.3396         estimate D2E/DX2                !
 ! D24   D(10,2,4,15)         -172.3053         estimate D2E/DX2                !
 ! D25   D(11,2,4,6)          -176.2462         estimate D2E/DX2                !
 ! D26   D(11,2,4,14)           59.7553         estimate D2E/DX2                !
 ! D27   D(11,2,4,15)          -55.2104         estimate D2E/DX2                !
 ! D28   D(1,3,5,6)             55.1703         estimate D2E/DX2                !
 ! D29   D(1,3,5,16)           -65.8174         estimate D2E/DX2                !
 ! D30   D(1,3,5,17)           179.1434         estimate D2E/DX2                !
 ! D31   D(12,3,5,6)           176.258          estimate D2E/DX2                !
 ! D32   D(12,3,5,16)           55.2702         estimate D2E/DX2                !
 ! D33   D(12,3,5,17)          -59.769          estimate D2E/DX2                !
 ! D34   D(13,3,5,6)           -66.6651         estimate D2E/DX2                !
 ! D35   D(13,3,5,16)          172.3472         estimate D2E/DX2                !
 ! D36   D(13,3,5,17)           57.308          estimate D2E/DX2                !
 ! D37   D(2,4,6,5)             55.0589         estimate D2E/DX2                !
 ! D38   D(2,4,6,7)            -71.1458         estimate D2E/DX2                !
 ! D39   D(14,4,6,5)           179.1848         estimate D2E/DX2                !
 ! D40   D(14,4,6,7)            52.9801         estimate D2E/DX2                !
 ! D41   D(15,4,6,5)           -66.017          estimate D2E/DX2                !
 ! D42   D(15,4,6,7)           167.7782         estimate D2E/DX2                !
 ! D43   D(3,5,6,4)            -55.0441         estimate D2E/DX2                !
 ! D44   D(3,5,6,7)             71.1173         estimate D2E/DX2                !
 ! D45   D(16,5,6,4)            65.9989         estimate D2E/DX2                !
 ! D46   D(16,5,6,7)          -167.8396         estimate D2E/DX2                !
 ! D47   D(17,5,6,4)          -179.1223         estimate D2E/DX2                !
 ! D48   D(17,5,6,7)           -52.9609         estimate D2E/DX2                !
 ! D49   D(4,6,7,18)            62.675          estimate D2E/DX2                !
 ! D50   D(4,6,7,19)          -176.1971         estimate D2E/DX2                !
 ! D51   D(4,6,7,20)           -58.5813         estimate D2E/DX2                !
 ! D52   D(5,6,7,18)           -62.5622         estimate D2E/DX2                !
 ! D53   D(5,6,7,19)            58.5658         estimate D2E/DX2                !
 ! D54   D(5,6,7,20)           176.1815         estimate D2E/DX2                !
 --------------------------------------------------------------------------------
 Trust Radius=3.00D-01 FncErr=1.00D-07 GrdErr=1.00D-06
 Number of steps in this run= 120 maximum allowed number of steps= 120.
 GradGradGradGradGradGradGradGradGradGradGradGradGradGradGradGradGradGrad

                          Input orientation:                          
 ---------------------------------------------------------------------
 Center     Atomic      Atomic             Coordinates (Angstroms)
 Number     Number       Type             X           Y           Z
 ---------------------------------------------------------------------
      1          6           0       -1.125339   -0.985607   -0.967768
      2          6           0       -1.126339    0.548393   -0.967768
      3          6           0       -0.387339   -1.510607    0.270232
      4          6           0        0.305661    1.083393   -0.812768
      5          6           0        1.010661   -0.879607    0.367232
      6          7           0        1.007661    0.578393    0.361232
      7          6           0        0.481661    1.134393    1.598232
      8          1           0       -0.611339   -1.354607   -1.887768
      9          1           0       -2.170339   -1.376607   -0.994768
     10          1           0       -1.778339    0.927393   -0.145768
     11          1           0       -1.571339    0.924393   -1.919768
     12          1           0       -0.298339   -2.622607    0.212232
     13          1           0       -0.982339   -1.291607    1.187232
     14          1           0        0.297661    2.200393   -0.797768
     15          1           0        0.889661    0.801393   -1.721768
     16          1           0        1.620661   -1.234607   -0.497768
     17          1           0        1.536661   -1.253607    1.278232
     18          1           0       -0.581339    0.861393    1.780232
     19          1           0        1.083661    0.781393    2.467232
     20          1           0        0.557661    2.246393    1.587232
 ---------------------------------------------------------------------
                    Distance matrix (angstroms):
                    1          2          3          4          5
     1  C    0.000000
     2  C    1.534000   0.000000
     3  C    1.533921   2.513612   0.000000
     4  C    2.520426   1.536514   2.895164   0.000000
     5  C    2.521102   2.896235   1.536871   2.396413   0.000000
     6  N    2.960072   2.514179   2.513608   1.458117   1.458015
     7  C    3.696107   3.084383   3.084602   2.417953   2.418966
     8  H    1.116583   2.175554   2.175196   2.817864   2.818073
     9  H    1.116080   2.190043   2.190267   3.495039   3.495828
    10  H    2.182123   1.115540   2.837566   2.193691   3.362579
    11  H    2.180211   1.116112   3.482410   2.184916   3.892494
    12  H    2.180848   3.483278   1.117063   3.892284   2.185304
    13  H    2.181309   2.837316   1.114843   3.361483   2.194127
    14  H    3.493483   2.187643   3.921909   1.117129   3.369272
    15  H    2.796804   2.167206   3.308192   1.116629   2.684087
    16  H    2.797037   3.308474   2.167502   2.683575   1.116400
    17  H    3.493220   3.922154   2.187210   3.368859   1.116456
    18  H    3.355421   2.818953   2.818532   2.749491   2.749930
    19  H    4.449853   4.091163   3.499130   3.384507   2.678479
    20  H    4.450431   3.499584   4.091768   2.678819   3.386072
                    6          7          8          9         10
     6  N    0.000000
     7  C    1.454641   0.000000
     8  H    3.378706   4.420630   0.000000
     9  H    3.969943   4.479048   1.796779   0.000000
    10  H    2.853182   2.862164   3.099028   2.486540   0.000000
    11  H    3.460335   4.078631   2.473149   2.551279   1.786039
    12  H    3.460381   4.079760   2.473013   2.552205   3.862779
    13  H    2.852942   2.863161   3.097940   2.485899   2.708222
    14  H    2.116191   2.628883   3.827846   4.350260   2.520994
    15  H    2.098224   3.361511   2.632279   3.825678   3.101270
    16  H    2.097765   3.361949   2.632171   3.826076   4.043680
    17  H    2.115881   2.630203   3.827226   4.350116   4.215894
    18  H    2.149086   1.112485   4.285531   3.903100   2.268621
    19  H    2.117126   1.114529   5.138243   5.218326   3.878161
    20  H    2.118443   1.114648   5.139006   5.218701   3.193735
                   11         12         13         14         15
    11  H    0.000000
    12  H    4.329799   0.000000
    13  H    3.861480   1.786069   0.000000
    14  H    2.525910   4.963532   4.215767   0.000000
    15  H    2.472014   4.107977   4.043181   1.778044   0.000000
    16  H    4.107582   2.472490   3.101303   3.693177   2.485525
    17  H    4.962918   2.525419   2.520930   4.216042   3.693458
    18  H    3.830675   3.831053   2.268889   3.035069   3.798874
    19  H    5.129838   4.310704   3.194383   3.645762   4.193538
    20  H    4.310380   5.131328   3.879310   2.399571   3.625980
                   16         17         18         19         20
    16  H    0.000000
    17  H    1.778087   0.000000
    18  H    3.798856   3.034988   0.000000
    19  H    3.625445   2.400032   1.802940   0.000000
    20  H    4.194586   3.647454   1.803551   1.788100   0.000000
 Stoichiometry    C6H13N
 Framework group  C1[X(C6H13N)]
 Deg. of freedom    54
 Full point group                 C1      NOp   1
 Largest Abelian subgroup         C1      NOp   1
 Largest concise Abelian subgroup C1      NOp   1
                         Standard orientation:                         
 ---------------------------------------------------------------------
 Center     Atomic      Atomic             Coordinates (Angstroms)
 Number     Number       Type             X           Y           Z
 ---------------------------------------------------------------------
      1          6           0       -1.773842   -0.000327   -0.166940
      2          6           0       -0.907598   -1.257179   -0.318931
      3          6           0       -0.907771    1.256433   -0.319873
      4          6           0        0.292575   -1.197630    0.638626
      5          6           0        0.292496    1.198783    0.638255
      6          7           0        1.111046    0.000643    0.495967
      7          6           0        1.877513   -0.000608   -0.740362
      8          1           0       -2.249776    0.000280    0.843131
      9          1           0       -2.597948   -0.000910   -0.919591
     10          1           0       -0.562745   -1.354843   -1.375324
     11          1           0       -1.520454   -2.164845   -0.103859
     12          1           0       -1.521198    2.164955   -0.105103
     13          1           0       -0.563898    1.353379   -1.375916
     14          1           0        0.928323   -2.107577    0.512933
     15          1           0       -0.088240   -1.242269    1.687362
     16          1           0       -0.088372    1.243255    1.686735
     17          1           0        0.927189    2.108465    0.511303
     18          1           0        1.236302   -0.000250   -1.649466
     19          1           0        2.541365    0.893564   -0.784307
     20          1           0        2.541893   -0.894536   -0.784319
 ---------------------------------------------------------------------
 Rotational constants (GHZ):      3.6803321      2.6475731      2.0059034
 Standard basis: 6-31+G(d,p) (6D, 7F)
 There are   198 symmetry adapted basis functions of A   symmetry.
 Integral buffers will be    131072 words long.
 Raffenetti 2 integral format.
 Two-electron integral symmetry is turned on.
   198 basis functions,   315 primitive gaussians,   198 cartesian basis functions
    28 alpha electrons       28 beta electrons
       nuclear repulsion energy       337.8751087866 Hartrees.
 NAtoms=   20 NActive=   20 NUniq=   20 SFac= 7.50D-01 NAtFMM=   80 NAOKFM=F Big=F
 One-electron integrals computed using PRISM.
 NBasis=   198 RedAO= T  NBF=   198
 NBsUse=   198 1.00D-06 NBFU=   198
 Harris functional with IExCor=  402 diagonalized for initial guess.
 ExpMin= 4.38D-02 ExpMax= 4.17D+03 ExpMxC= 6.27D+02 IAcc=2 IRadAn=         0 AccDes= 0.00D+00
 HarFok:  IExCor=  402 AccDes= 0.00D+00 IRadAn=         0 IDoV= 1
 ScaDFX=  1.000000  1.000000  1.000000  1.000000
 FoFCou: FMM=F IPFlag=           0 FMFlag=      100000 FMFlg1=           0
         NFxFlg=           0 DoJE=T BraDBF=F KetDBF=T FulRan=T
         Omega=  0.000000  0.000000  1.000000  0.000000  0.000000 ICntrl=     500 IOpCl=  0
         NMat0=    1 NMatS0=    1 NMatT0=    0 NMatD0=    1 NMtDS0=    0 NMtDT0=    0
         I1Cent=           4 NGrid=           0.
 Petite list used in FoFCou.
 Initial guess orbital symmetries:
       Occupied  (A) (A) (A) (A) (A) (A) (A) (A) (A) (A) (A) (A)
                 (A) (A) (A) (A) (A) (A) (A) (A) (A) (A) (A) (A)
                 (A) (A) (A) (A)
       Virtual   (A) (A) (A) (A) (A) (A) (A) (A) (A) (A) (A) (A)
                 (A) (A) (A) (A) (A) (A) (A) (A) (A) (A) (A) (A)
                 (A) (A) (A) (A) (A) (A) (A) (A) (A) (A) (A) (A)
                 (A) (A) (A) (A) (A) (A) (A) (A) (A) (A) (A) (A)
                 (A) (A) (A) (A) (A) (A) (A) (A) (A) (A) (A) (A)
                 (A) (A) (A) (A) (A) (A) (A) (A) (A) (A) (A) (A)
                 (A) (A) (A) (A) (A) (A) (A) (A) (A) (A) (A) (A)
                 (A) (A) (A) (A) (A) (A) (A) (A) (A) (A) (A) (A)
                 (A) (A) (A) (A) (A) (A) (A) (A) (A) (A) (A) (A)
                 (A) (A) (A) (A) (A) (A) (A) (A) (A) (A) (A) (A)
                 (A) (A) (A) (A) (A) (A) (A) (A) (A) (A) (A) (A)
                 (A) (A) (A) (A) (A) (A) (A) (A) (A) (A) (A) (A)
                 (A) (A) (A) (A) (A) (A) (A) (A) (A) (A) (A) (A)
                 (A) (A) (A) (A) (A) (A) (A) (A) (A) (A) (A) (A)
                 (A) (A)
 The electronic state of the initial guess is 1-A.
 Requested convergence on RMS density matrix=1.00D-08 within 128 cycles.
 Requested convergence on MAX density matrix=1.00D-06.
 Requested convergence on             energy=1.00D-06.
 No special actions if energy rises.
 Keep R1 ints in memory in canonical form, NReq=198325362.
 SCF Done:  E(RB3LYP) =  -291.232318978     A.U. after   12 cycles
             Convg  =    0.3972D-08             -V/T =  2.0108

 **********************************************************************

            Population analysis using the SCF density.

 **********************************************************************

 Orbital symmetries:
       Occupied  (A) (A) (A) (A) (A) (A) (A) (A) (A) (A) (A) (A)
                 (A) (A) (A) (A) (A) (A) (A) (A) (A) (A) (A) (A)
                 (A) (A) (A) (A)
       Virtual   (A) (A) (A) (A) (A) (A) (A) (A) (A) (A) (A) (A)
                 (A) (A) (A) (A) (A) (A) (A) (A) (A) (A) (A) (A)
                 (A) (A) (A) (A) (A) (A) (A) (A) (A) (A) (A) (A)
                 (A) (A) (A) (A) (A) (A) (A) (A) (A) (A) (A) (A)
                 (A) (A) (A) (A) (A) (A) (A) (A) (A) (A) (A) (A)
                 (A) (A) (A) (A) (A) (A) (A) (A) (A) (A) (A) (A)
                 (A) (A) (A) (A) (A) (A) (A) (A) (A) (A) (A) (A)
                 (A) (A) (A) (A) (A) (A) (A) (A) (A) (A) (A) (A)
                 (A) (A) (A) (A) (A) (A) (A) (A) (A) (A) (A) (A)
                 (A) (A) (A) (A) (A) (A) (A) (A) (A) (A) (A) (A)
                 (A) (A) (A) (A) (A) (A) (A) (A) (A) (A) (A) (A)
                 (A) (A) (A) (A) (A) (A) (A) (A) (A) (A) (A) (A)
                 (A) (A) (A) (A) (A) (A) (A) (A) (A) (A) (A) (A)
                 (A) (A) (A) (A) (A) (A) (A) (A) (A) (A) (A) (A)
                 (A) (A)
 The electronic state is 1-A.
 Alpha  occ. eigenvalues --  -14.32615 -10.20923 -10.20922 -10.20604 -10.18737
 Alpha  occ. eigenvalues --  -10.18471 -10.18468  -0.92788  -0.78994  -0.74845
 Alpha  occ. eigenvalues --   -0.69406  -0.62041  -0.61120  -0.54607  -0.48600
 Alpha  occ. eigenvalues --   -0.46681  -0.44800  -0.43911  -0.41250  -0.40868
 Alpha  occ. eigenvalues --   -0.38129  -0.36936  -0.36215  -0.34261  -0.34050
 Alpha  occ. eigenvalues --   -0.31886  -0.31273  -0.20718
 Alpha virt. eigenvalues --    0.00263   0.01834   0.02067   0.02281   0.04191
 Alpha virt. eigenvalues --    0.04506   0.05184   0.05777   0.06310   0.08261
 Alpha virt. eigenvalues --    0.08660   0.08741   0.09399   0.09458   0.10337
 Alpha virt. eigenvalues --    0.10899   0.12213   0.13230   0.13618   0.15169
 Alpha virt. eigenvalues --    0.16401   0.16881   0.17767   0.17995   0.19789
 Alpha virt. eigenvalues --    0.20260   0.20631   0.21956   0.22861   0.23470
 Alpha virt. eigenvalues --    0.23857   0.24297   0.25101   0.26499   0.28485
 Alpha virt. eigenvalues --    0.28733   0.29544   0.29584   0.31029   0.31930
 Alpha virt. eigenvalues --    0.32442   0.32527   0.35854   0.37169   0.37876
 Alpha virt. eigenvalues --    0.39644   0.39978   0.47781   0.62049   0.62172
 Alpha virt. eigenvalues --    0.64474   0.65628   0.65743   0.66132   0.68515
 Alpha virt. eigenvalues --    0.72837   0.73107   0.74287   0.75287   0.75728
 Alpha virt. eigenvalues --    0.78722   0.78782   0.82183   0.88564   0.90278
 Alpha virt. eigenvalues --    0.93831   0.94763   0.95703   0.97502   0.98777
 Alpha virt. eigenvalues --    1.00163   1.02425   1.02578   1.05920   1.08168
 Alpha virt. eigenvalues --    1.09171   1.10122   1.12028   1.13222   1.14820
 Alpha virt. eigenvalues --    1.14957   1.19799   1.25794   1.28640   1.32496
 Alpha virt. eigenvalues --    1.33175   1.38493   1.40072   1.48438   1.55614
 Alpha virt. eigenvalues --    1.56113   1.60947   1.62433   1.66279   1.70109
 Alpha virt. eigenvalues --    1.72821   1.81616   1.84125   1.85391   1.88417
 Alpha virt. eigenvalues --    1.91589   1.92403   1.95753   1.97284   1.98341
 Alpha virt. eigenvalues --    2.01213   2.01242   2.02784   2.05005   2.09029
 Alpha virt. eigenvalues --    2.11752   2.12098   2.12336   2.14248   2.15282
 Alpha virt. eigenvalues --    2.16132   2.18830   2.20576   2.28083   2.33021
 Alpha virt. eigenvalues --    2.33816   2.37248   2.37863   2.39614   2.43233
 Alpha virt. eigenvalues --    2.45464   2.46669   2.46797   2.49784   2.55364
 Alpha virt. eigenvalues --    2.55413   2.57299   2.63097   2.64182   2.67196
 Alpha virt. eigenvalues --    2.68106   2.72900   2.73648   2.76357   2.76443
 Alpha virt. eigenvalues --    2.79906   2.82631   2.83940   2.86625   2.87963
 Alpha virt. eigenvalues --    2.89931   2.93059   2.94031   2.98049   3.02603
 Alpha virt. eigenvalues --    3.20948   3.26900   3.29199   3.30142   3.30926
 Alpha virt. eigenvalues --    3.31882   3.42613   3.44027   3.48143   3.48805
 Alpha virt. eigenvalues --    3.49905   3.53507   3.57912   4.25866   4.42117
 Alpha virt. eigenvalues --    4.45864   4.58959   4.67254   4.77050   4.80027
          Condensed to atoms (all electrons):
              1          2          3          4          5          6
     1  C    5.376690   0.179361   0.178832  -0.105164  -0.104551  -0.005499
     2  C    0.179361   5.558330  -0.084955   0.131020   0.073060  -0.139279
     3  C    0.178832  -0.084955   5.559214   0.073510   0.131253  -0.139338
     4  C   -0.105164   0.131020   0.073510   5.578777  -0.301647   0.219263
     5  C   -0.104551   0.073060   0.131253  -0.301647   5.576779   0.219280
     6  N   -0.005499  -0.139279  -0.139338   0.219263   0.219280   7.140438
     7  C    0.037003  -0.018406  -0.018543  -0.111583  -0.111278   0.226225
     8  H    0.454004  -0.071000  -0.071191  -0.003799  -0.003707   0.001378
     9  H    0.386493  -0.033811  -0.033673   0.005252   0.005170  -0.000251
    10  H   -0.016090   0.383669  -0.006488  -0.052244  -0.010289   0.003683
    11  H   -0.038101   0.364454   0.013071  -0.030841   0.004429   0.010962
    12  H   -0.038101   0.013075   0.364417   0.004397  -0.030921   0.011002
    13  H   -0.016016  -0.006378   0.383332  -0.010370  -0.051953   0.003682
    14  H    0.015550  -0.081246  -0.004114   0.425789   0.013902  -0.050256
    15  H    0.009746  -0.082311  -0.020465   0.426466   0.001090  -0.044297
    16  H    0.009744  -0.020406  -0.082450   0.001087   0.426757  -0.044380
    17  H    0.015546  -0.004074  -0.081310   0.013823   0.425913  -0.050244
    18  H    0.016808   0.015361   0.015444  -0.028628  -0.028694  -0.088620
    19  H   -0.000586  -0.002892  -0.013957   0.001064   0.013640  -0.056235
    20  H   -0.000579  -0.013934  -0.002912   0.013558   0.001070  -0.056006
              7          8          9         10         11         12
     1  C    0.037003   0.454004   0.386493  -0.016090  -0.038101  -0.038101
     2  C   -0.018406  -0.071000  -0.033811   0.383669   0.364454   0.013075
     3  C   -0.018543  -0.071191  -0.033673  -0.006488   0.013071   0.364417
     4  C   -0.111583  -0.003799   0.005252  -0.052244  -0.030841   0.004397
     5  C   -0.111278  -0.003707   0.005170  -0.010289   0.004429  -0.030921
     6  N    0.226225   0.001378  -0.000251   0.003683   0.010962   0.011002
     7  C    5.116656   0.002574  -0.000030   0.007561  -0.000519  -0.000510
     8  H    0.002574   0.579826  -0.030628   0.004752  -0.004840  -0.004845
     9  H   -0.000030  -0.030628   0.583654  -0.005037  -0.002753  -0.002754
    10  H    0.007561   0.004752  -0.005037   0.582683  -0.029133  -0.000039
    11  H   -0.000519  -0.004840  -0.002753  -0.029133   0.585472  -0.000115
    12  H   -0.000510  -0.004845  -0.002754  -0.000039  -0.000115   0.585723
    13  H    0.007526   0.004762  -0.005043   0.002278  -0.000040  -0.029134
    14  H   -0.008550   0.000033  -0.000143  -0.004078  -0.000839   0.000016
    15  H    0.008324   0.003053  -0.000068   0.004563  -0.002506   0.000017
    16  H    0.008289   0.003054  -0.000068   0.000069   0.000017  -0.002495
    17  H   -0.008503   0.000033  -0.000143   0.000009   0.000016  -0.000842
    18  H    0.433971  -0.000049   0.000046  -0.001284  -0.000200  -0.000201
    19  H    0.407364   0.000002  -0.000002   0.000001   0.000006   0.000017
    20  H    0.407330   0.000002  -0.000002   0.000274   0.000017   0.000006
             13         14         15         16         17         18
     1  C   -0.016016   0.015550   0.009746   0.009744   0.015546   0.016808
     2  C   -0.006378  -0.081246  -0.082311  -0.020406  -0.004074   0.015361
     3  C    0.383332  -0.004114  -0.020465  -0.082450  -0.081310   0.015444
     4  C   -0.010370   0.425789   0.426466   0.001087   0.013823  -0.028628
     5  C   -0.051953   0.013902   0.001090   0.426757   0.425913  -0.028694
     6  N    0.003682  -0.050256  -0.044297  -0.044380  -0.050244  -0.088620
     7  C    0.007526  -0.008550   0.008324   0.008289  -0.008503   0.433971
     8  H    0.004762   0.000033   0.003053   0.003054   0.000033  -0.000049
     9  H   -0.005043  -0.000143  -0.000068  -0.000068  -0.000143   0.000046
    10  H    0.002278  -0.004078   0.004563   0.000069   0.000009  -0.001284
    11  H   -0.000040  -0.000839  -0.002506   0.000017   0.000016  -0.000200
    12  H   -0.029134   0.000016   0.000017  -0.002495  -0.000842  -0.000201
    13  H    0.582544   0.000009   0.000069   0.004557  -0.004067  -0.001279
    14  H    0.000009   0.588685  -0.025727   0.000180  -0.000148  -0.001168
    15  H    0.000069  -0.025727   0.585146   0.004165   0.000180  -0.000443
    16  H    0.004557   0.000180   0.004165   0.584937  -0.025715  -0.000443
    17  H   -0.004067  -0.000148   0.000180  -0.025715   0.588480  -0.001165
    18  H   -0.001279  -0.001168  -0.000443  -0.000443  -0.001165   0.627931
    19  H    0.000273   0.000343  -0.000118   0.000335   0.004492  -0.041887
    20  H    0.000001   0.004485   0.000336  -0.000117   0.000340  -0.041870
             19         20
     1  C   -0.000586  -0.000579
     2  C   -0.002892  -0.013934
     3  C   -0.013957  -0.002912
     4  C    0.001064   0.013558
     5  C    0.013640   0.001070
     6  N   -0.056235  -0.056006
     7  C    0.407364   0.407330
     8  H    0.000002   0.000002
     9  H   -0.000002  -0.000002
    10  H    0.000001   0.000274
    11  H    0.000006   0.000017
    12  H    0.000017   0.000006
    13  H    0.000273   0.000001
    14  H    0.000343   0.004485
    15  H   -0.000118   0.000336
    16  H    0.000335  -0.000117
    17  H    0.004492   0.000340
    18  H   -0.041887  -0.041870
    19  H    0.571601  -0.018246
    20  H   -0.018246   0.571385
 Mulliken atomic charges:
              1
     1  C   -0.355089
     2  C   -0.159636
     3  C   -0.159675
     4  C   -0.249731
     5  C   -0.249303
     6  N   -0.161506
     7  C   -0.384900
     8  H    0.136584
     9  H    0.133794
    10  H    0.135139
    11  H    0.131444
    12  H    0.131288
    13  H    0.135246
    14  H    0.127278
    15  H    0.132781
    16  H    0.132885
    17  H    0.127379
    18  H    0.126372
    19  H    0.134786
    20  H    0.134863
 Sum of Mulliken atomic charges =   0.00000
 Mulliken charges with hydrogens summed into heavy atoms:
              1
     1  C   -0.084711
     2  C    0.106947
     3  C    0.106859
     4  C    0.010329
     5  C    0.010960
     6  N   -0.161506
     7  C    0.011121
 Sum of Mulliken charges with hydrogens summed into heavy atoms =   0.00000
 Electronic spatial extent (au):  <R**2>=            756.5325
 Charge=              0.0000 electrons
 Dipole moment (field-independent basis, Debye):
    X=             -0.6564    Y=             -0.0002    Z=             -0.7149  Tot=              0.9705
 Quadrupole moment (field-independent basis, Debye-Ang):
   XX=            -48.0311   YY=            -45.4869   ZZ=            -47.6330
   XY=              0.0011   XZ=             -2.4349   YZ=              0.0013
 Traceless Quadrupole moment (field-independent basis, Debye-Ang):
   XX=             -0.9808   YY=              1.5634   ZZ=             -0.5827
   XY=              0.0011   XZ=             -2.4349   YZ=              0.0013
 Octapole moment (field-independent basis, Debye-Ang**2):
  XXX=              2.0594  YYY=              0.0041  ZZZ=              0.5554  XYY=              2.8786
  XXY=             -0.0168  XXZ=             -4.1884  XZZ=             -2.9745  YZZ=              0.0039
  YYZ=              1.7889  XYZ=              0.0001
 Hexadecapole moment (field-independent basis, Debye-Ang**3):
 XXXX=           -522.8911 YYYY=           -366.4141 ZZZZ=           -187.8701 XXXY=             -0.0036
 XXXZ=             -7.1856 YYYX=              0.0379 YYYZ=              0.0046 ZZZX=             -1.6197
 ZZZY=              0.0068 XXYY=           -142.5365 XXZZ=           -123.3209 YYZZ=            -94.9183
 XXYZ=              0.0099 YYXZ=             -1.3229 ZZXY=             -0.0023
 N-N= 3.378751087866D+02 E-N=-1.349086155165D+03  KE= 2.881260138728D+02
 Calling FoFJK, ICntrl=      2127 FMM=F ISym2X=0 I1Cent= 0 IOpClX= 0 NMat=1 NMatS=1 NMatT=0.
 ***** Axes restored to original set *****
 -------------------------------------------------------------------
 Center     Atomic                   Forces (Hartrees/Bohr)
 Number     Number              X              Y              Z
 -------------------------------------------------------------------
      1        6          -0.008432103   -0.005798141   -0.004634905
      2        6          -0.012888813    0.005833243   -0.006827847
      3        6          -0.005538692   -0.014450474    0.004603079
      4        6           0.001688615    0.013885960   -0.015956569
      5        6           0.012034359   -0.016552661    0.002391702
      6        7           0.004084969    0.003951373    0.003550613
      7        6           0.000737285    0.008061917    0.013510102
      8        1          -0.004970254    0.003074079    0.007999462
      9        1           0.011050284    0.003269140   -0.001094334
     10        1           0.006357453   -0.003534613   -0.007935692
     11        1           0.004750398   -0.001883431    0.009762812
     12        1           0.000100054    0.011302326    0.002135893
     13        1           0.005746238   -0.002018444   -0.008419644
     14        1           0.001415193   -0.012091167    0.002540734
     15        1          -0.004130781    0.001074777    0.008940641
     16        1          -0.005415469    0.004774950    0.006635867
     17        1          -0.005160526    0.006755579   -0.008593968
     18        1           0.005871672    0.004038689    0.003093351
     19        1          -0.006113294    0.002061223   -0.009894149
     20        1          -0.001186589   -0.011754325   -0.001807147
 -------------------------------------------------------------------
 Cartesian Forces:  Max     0.016552661 RMS     0.007471047

 GradGradGradGradGradGradGradGradGradGradGradGradGradGradGradGradGradGrad
 Berny optimization.
 Internal  Forces:  Max     0.012063791 RMS     0.004072604
 Search for a local minimum.
 Step number   1 out of a maximum of  120
 All quantities printed in internal units (Hartrees-Bohrs-Radians)
 Mixed Optimization -- RFO/linear search
 Second derivative matrix not updated -- first step.
     Eigenvalues ---    0.00542   0.00543   0.00969   0.00982   0.02184
     Eigenvalues ---    0.02212   0.03567   0.04014   0.04124   0.04491
     Eigenvalues ---    0.04875   0.04943   0.05595   0.05817   0.06230
     Eigenvalues ---    0.06754   0.07102   0.07503   0.07874   0.07892
     Eigenvalues ---    0.07947   0.07957   0.09173   0.09733   0.09750
     Eigenvalues ---    0.11968   0.12544   0.14975   0.15244   0.16000
     Eigenvalues ---    0.16000   0.16000   0.17720   0.21205   0.27514
     Eigenvalues ---    0.28126   0.28296   0.28815   0.31857   0.31864
     Eigenvalues ---    0.31908   0.31913   0.31926   0.31932   0.31961
     Eigenvalues ---    0.31965   0.32020   0.32093   0.32113   0.32125
     Eigenvalues ---    0.32338   0.35838   0.36204   0.376431000.00000
     Eigenvalues --- 1000.000001000.000001000.000001000.000001000.00000
     Eigenvalues --- 1000.000001000.000001000.000001000.000001000.00000
     Eigenvalues --- 1000.000001000.000001000.000001000.000001000.00000
     Eigenvalues --- 1000.000001000.000001000.000001000.000001000.00000
     Eigenvalues --- 1000.000001000.000001000.000001000.000001000.00000
     Eigenvalues --- 1000.000001000.000001000.000001000.000001000.00000
     Eigenvalues --- 1000.000001000.000001000.000001000.000001000.00000
     Eigenvalues --- 1000.000001000.000001000.000001000.000001000.00000
     Eigenvalues --- 1000.000001000.000001000.000001000.000001000.00000
     Eigenvalues --- 1000.000001000.000001000.000001000.000001000.00000
     Eigenvalues --- 1000.000001000.000001000.000001000.000001000.00000
     Eigenvalues --- 1000.000001000.000001000.00000
 RFO step:  Lambda=-7.52641080D-03 EMin= 5.41851326D-03
 Linear search not attempted -- first point.
 Iteration  1 RMS(Cart)=  0.05263699 RMS(Int)=  0.00155386
 Iteration  2 RMS(Cart)=  0.00181584 RMS(Int)=  0.00023730
 Iteration  3 RMS(Cart)=  0.00000202 RMS(Int)=  0.00023729
 Iteration  4 RMS(Cart)=  0.00000000 RMS(Int)=  0.00023729
 Variable       Old X    -DE/DX   Delta X   Delta X   Delta X     New X
                                 (Linear)    (Quad)   (Total)
    R1        2.89884   0.00302   0.00000   0.01034   0.01014   2.90898
    R2        2.89869   0.00302   0.00000   0.01037   0.01017   2.90886
    R3        2.11004  -0.00989   0.00000  -0.03027  -0.03027   2.07977
    R4        2.10909  -0.01147   0.00000  -0.03506  -0.03506   2.07403
    R5        2.90359   0.00278   0.00000   0.00941   0.00942   2.91301
    R6        2.10806  -0.01077   0.00000  -0.03286  -0.03286   2.07521
    R7        2.10915  -0.01085   0.00000  -0.03318  -0.03318   2.07597
    R8        2.90427   0.00263   0.00000   0.00887   0.00888   2.91315
    R9        2.11094  -0.01135   0.00000  -0.03481  -0.03481   2.07614
   R10        2.10675  -0.01039   0.00000  -0.03164  -0.03164   2.07511
   R11        2.75544   0.00658   0.00000   0.01715   0.01734   2.77279
   R12        2.11107  -0.01206   0.00000  -0.03699  -0.03699   2.07407
   R13        2.11012  -0.00971   0.00000  -0.02974  -0.02974   2.08039
   R14        2.75525   0.00662   0.00000   0.01725   0.01745   2.77270
   R15        2.10969  -0.00962   0.00000  -0.02944  -0.02944   2.08025
   R16        2.10980  -0.01170   0.00000  -0.03582  -0.03582   2.07398
   R17        2.74887   0.00536   0.00000   0.01397   0.01397   2.76284
   R18        2.10229  -0.00609   0.00000  -0.01839  -0.01839   2.08390
   R19        2.10615  -0.01167   0.00000  -0.03550  -0.03550   2.07066
   R20        2.10638  -0.01179   0.00000  -0.03588  -0.03588   2.07050
    A1        1.92045   0.00270   0.00000   0.01596   0.01585   1.93630
    A2        1.90792  -0.00125   0.00000  -0.00945  -0.00944   1.89848
    A3        1.92807  -0.00010   0.00000   0.00668   0.00654   1.93461
    A4        1.90753  -0.00119   0.00000  -0.00894  -0.00893   1.89860
    A5        1.92847  -0.00015   0.00000   0.00629   0.00614   1.93461
    A6        1.87057  -0.00014   0.00000  -0.01168  -0.01165   1.85892
    A7        1.92579  -0.00106   0.00000   0.00187   0.00172   1.92751
    A8        1.91785   0.00026   0.00000  -0.00427  -0.00412   1.91373
    A9        1.91468   0.00158   0.00000   0.01786   0.01780   1.93248
   A10        1.93059   0.00003   0.00000  -0.00592  -0.00596   1.92464
   A11        1.91806  -0.00039   0.00000  -0.00576  -0.00574   1.91233
   A12        1.85566  -0.00038   0.00000  -0.00376  -0.00381   1.85185
   A13        1.92630  -0.00116   0.00000   0.00131   0.00116   1.92746
   A14        1.91467   0.00158   0.00000   0.01785   0.01779   1.93246
   A15        1.91755   0.00035   0.00000  -0.00374  -0.00359   1.91395
   A16        1.91720  -0.00030   0.00000  -0.00503  -0.00500   1.91220
   A17        1.93148  -0.00003   0.00000  -0.00673  -0.00677   1.92471
   A18        1.85540  -0.00039   0.00000  -0.00358  -0.00364   1.85177
   A19        1.99251   0.00191   0.00000   0.01148   0.01177   2.00428
   A20        1.92073   0.00202   0.00000   0.01951   0.01948   1.94020
   A21        1.89375  -0.00088   0.00000  -0.00501  -0.00505   1.88871
   A22        1.91658  -0.00290   0.00000  -0.01900  -0.01936   1.89722
   A23        1.89249  -0.00122   0.00000  -0.01925  -0.01927   1.87322
   A24        1.84127   0.00097   0.00000   0.01192   0.01175   1.85302
   A25        1.99154   0.00208   0.00000   0.01247   0.01276   2.00430
   A26        1.89396  -0.00093   0.00000  -0.00534  -0.00536   1.88859
   A27        1.92040   0.00200   0.00000   0.01960   0.01956   1.93996
   A28        1.89222  -0.00125   0.00000  -0.01920  -0.01921   1.87301
   A29        1.91698  -0.00297   0.00000  -0.01930  -0.01967   1.89731
   A30        1.84240   0.00096   0.00000   0.01130   0.01113   1.85353
   A31        1.92905  -0.00315   0.00000  -0.00115  -0.00193   1.92712
   A32        1.95866   0.00268   0.00000   0.03288   0.03194   1.99060
   A33        1.96001   0.00240   0.00000   0.03140   0.03043   1.99045
   A34        1.97234   0.00796   0.00000   0.04982   0.04996   2.02230
   A35        1.92481  -0.00307   0.00000  -0.01928  -0.01936   1.90545
   A36        1.92652  -0.00335   0.00000  -0.02129  -0.02135   1.90517
   A37        1.88686  -0.00203   0.00000  -0.00960  -0.00950   1.87737
   A38        1.88765  -0.00201   0.00000  -0.01015  -0.01000   1.87765
   A39        1.86172   0.00225   0.00000   0.00871   0.00839   1.87011
    D1        0.92564  -0.00109   0.00000  -0.02182  -0.02200   0.90364
    D2       -1.20775  -0.00060   0.00000  -0.01279  -0.01294  -1.22069
    D3        3.04128  -0.00122   0.00000  -0.01617  -0.01631   3.02497
    D4       -1.16930  -0.00050   0.00000  -0.01476  -0.01478  -1.18408
    D5        2.98050  -0.00002   0.00000  -0.00573  -0.00572   2.97478
    D6        0.94634  -0.00063   0.00000  -0.00911  -0.00909   0.93725
    D7        3.05962   0.00048   0.00000   0.00126   0.00127   3.06089
    D8        0.92623   0.00096   0.00000   0.01029   0.01033   0.93656
    D9       -1.10792   0.00035   0.00000   0.00692   0.00696  -1.10096
   D10       -0.92620   0.00115   0.00000   0.02240   0.02258  -0.90363
   D11       -3.04109   0.00124   0.00000   0.01621   0.01635  -3.02474
   D12        1.20844   0.00058   0.00000   0.01232   0.01247   1.22091
   D13        1.16897   0.00053   0.00000   0.01503   0.01505   1.18402
   D14       -0.94591   0.00062   0.00000   0.00883   0.00882  -0.93709
   D15       -2.97957  -0.00004   0.00000   0.00495   0.00494  -2.97463
   D16       -3.05995  -0.00045   0.00000  -0.00092  -0.00093  -3.06088
   D17        1.10836  -0.00036   0.00000  -0.00712  -0.00716   1.10120
   D18       -0.92531  -0.00101   0.00000  -0.01100  -0.01104  -0.93634
   D19       -0.96245   0.00034   0.00000   0.02012   0.01993  -0.94252
   D20       -3.12664   0.00117   0.00000   0.02139   0.02121  -3.10542
   D21        1.15002  -0.00059   0.00000  -0.00056  -0.00066   1.14936
   D22        1.16342  -0.00002   0.00000   0.01204   0.01193   1.17535
   D23       -1.00077   0.00081   0.00000   0.01331   0.01322  -0.98755
   D24       -3.00730  -0.00096   0.00000  -0.00864  -0.00866  -3.01596
   D25       -3.07608  -0.00070   0.00000   0.00039   0.00034  -3.07574
   D26        1.04293   0.00013   0.00000   0.00166   0.00162   1.04455
   D27       -0.96360  -0.00163   0.00000  -0.02029  -0.02026  -0.98386
   D28        0.96290  -0.00033   0.00000  -0.02051  -0.02033   0.94258
   D29       -1.14873   0.00056   0.00000  -0.00033  -0.00023  -1.14896
   D30        3.12664  -0.00115   0.00000  -0.02142  -0.02123   3.10541
   D31        3.07628   0.00069   0.00000  -0.00069  -0.00064   3.07564
   D32        0.96465   0.00159   0.00000   0.01949   0.01946   0.98411
   D33       -1.04317  -0.00012   0.00000  -0.00159  -0.00155  -1.04471
   D34       -1.16353   0.00002   0.00000  -0.01216  -0.01206  -1.17559
   D35        3.00803   0.00091   0.00000   0.00802   0.00804   3.01606
   D36        1.00021  -0.00079   0.00000  -0.01306  -0.01297   0.98725
   D37        0.96096  -0.00039   0.00000  -0.01748  -0.01751   0.94345
   D38       -1.24173  -0.00315   0.00000  -0.08320  -0.08301  -1.32474
   D39        3.12737   0.00142   0.00000   0.00187   0.00160   3.12897
   D40        0.92468  -0.00134   0.00000  -0.06385  -0.06390   0.86078
   D41       -1.15221   0.00035   0.00000  -0.00470  -0.00478  -1.15699
   D42        2.92828  -0.00241   0.00000  -0.07042  -0.07028   2.85801
   D43       -0.96070   0.00030   0.00000   0.01718   0.01723  -0.94347
   D44        1.24123   0.00322   0.00000   0.08377   0.08357   1.32480
   D45        1.15190  -0.00042   0.00000   0.00470   0.00478   1.15668
   D46       -2.92935   0.00250   0.00000   0.07128   0.07112  -2.85824
   D47       -3.12627  -0.00155   0.00000  -0.00277  -0.00248  -3.12876
   D48       -0.92434   0.00137   0.00000   0.06382   0.06385  -0.86049
   D49        1.09389  -0.00016   0.00000   0.02382   0.02441   1.11829
   D50       -3.07522   0.00051   0.00000   0.03190   0.03233  -3.04289
   D51       -1.02244  -0.00066   0.00000   0.01778   0.01857  -1.00387
   D52       -1.09192   0.00004   0.00000  -0.02544  -0.02606  -1.11798
   D53        1.02217   0.00071   0.00000  -0.01737  -0.01814   1.00403
   D54        3.07495  -0.00046   0.00000  -0.03149  -0.03190   3.04305
         Item               Value     Threshold  Converged?
 Maximum Force            0.012064     0.000450     NO 
 RMS     Force            0.004073     0.000300     NO 
 Maximum Displacement     0.262425     0.001800     NO 
 RMS     Displacement     0.052022     0.001200     NO 
 Predicted change in Energy=-4.027635D-03
 GradGradGradGradGradGradGradGradGradGradGradGradGradGradGradGradGradGrad

                          Input orientation:                          
 ---------------------------------------------------------------------
 Center     Atomic      Atomic             Coordinates (Angstroms)
 Number     Number       Type             X           Y           Z
 ---------------------------------------------------------------------
      1          6           0       -1.134867   -1.006275   -0.996321
      2          6           0       -1.149802    0.533008   -1.002187
      3          6           0       -0.404252   -1.544650    0.246982
      4          6           0        0.275570    1.085899   -0.805122
      5          6           0        0.984038   -0.888203    0.381792
      6          7           0        0.974704    0.579018    0.381150
      7          6           0        0.522240    1.172396    1.638415
      8          1           0       -0.609149   -1.358845   -1.896631
      9          1           0       -2.155018   -1.406958   -1.053869
     10          1           0       -1.813149    0.898877   -0.207171
     11          1           0       -1.565195    0.914130   -1.945063
     12          1           0       -0.291086   -2.635922    0.189216
     13          1           0       -1.006866   -1.348062    1.143659
     14          1           0        0.273859    2.182910   -0.770689
     15          1           0        0.877169    0.807682   -1.684120
     16          1           0        1.601925   -1.212293   -0.469673
     17          1           0        1.500769   -1.236542    1.285207
     18          1           0       -0.523920    0.965455    1.919101
     19          1           0        1.160346    0.815978    2.454774
     20          1           0        0.641900    2.260253    1.586191
 ---------------------------------------------------------------------
                    Distance matrix (angstroms):
                    1          2          3          4          5
     1  C    0.000000
     2  C    1.539366   0.000000
     3  C    1.539301   2.536322   0.000000
     4  C    2.530432   1.541496   2.913566   0.000000
     5  C    2.530395   2.913506   1.541573   2.409932   0.000000
     6  N    2.976721   2.535599   2.535643   1.467295   1.467251
     7  C    3.799268   3.190191   3.190112   2.457478   2.457321
     8  H    1.100565   2.161352   2.161384   2.819733   2.819745
     9  H    1.097528   2.185543   2.185487   3.490555   3.490546
    10  H    2.170812   1.098153   2.856933   2.180658   3.371171
    11  H    2.184777   1.098554   3.492627   2.171955   3.893745
    12  H    2.184768   3.492700   1.098644   3.893810   2.171992
    13  H    2.170879   2.857186   1.098099   3.371432   2.180737
    14  H    3.493755   2.191479   3.923034   1.097553   3.356234
    15  H    2.794960   2.156176   3.302221   1.100893   2.674966
    16  H    2.794607   3.301765   2.156107   2.674590   1.100823
    17  H    3.493562   3.922883   2.191335   3.356237   1.097502
    18  H    3.572207   3.018719   3.018432   2.841669   2.841356
    19  H    4.527545   4.167425   3.590944   3.388599   2.689343
    20  H    4.527303   3.590720   4.167157   2.689179   3.388275
                    6          7          8          9         10
     6  N    0.000000
     7  C    1.462032   0.000000
     8  H    3.384108   4.492635   0.000000
     9  H    3.974738   4.590117   1.761327   0.000000
    10  H    2.867151   2.989154   3.066137   2.480050   0.000000
    11  H    3.460441   4.155165   2.466330   2.555302   1.755557
    12  H    3.460477   4.155112   2.466343   2.555358   3.868928
    13  H    2.867347   2.989256   3.066212   2.480092   2.742912
    14  H    2.095325   2.624236   3.819879   4.343592   2.514339
    15  H    2.080178   3.361284   2.635933   3.807363   3.070425
    16  H    2.079928   3.361026   2.635628   3.807072   4.023515
    17  H    2.095311   2.623978   3.819792   4.343398   4.215361
    18  H    2.181858   1.102751   4.468718   4.138524   2.487484
    19  H    2.095359   1.095744   5.176455   5.314477   3.991803
    20  H    2.095097   1.095663   5.176199   5.314236   3.331180
                   11         12         13         14         15
    11  H    0.000000
    12  H    4.333748   0.000000
    13  H    3.869037   1.755531   0.000000
    14  H    2.524099   4.945879   4.215774   0.000000
    15  H    2.458570   4.090552   4.024073   1.757723   0.000000
    16  H    4.090122   2.458524   3.070352   3.658111   2.465858
    17  H    4.945723   2.523926   2.514102   4.174288   3.658502
    18  H    4.002331   4.002078   2.487349   3.058369   3.869257
    19  H    5.176559   4.376645   3.331501   3.613582   4.148578
    20  H    4.376422   5.176343   3.991766   2.386697   3.586119
                   16         17         18         19         20
    16  H    0.000000
    17  H    1.757960   0.000000
    18  H    3.868856   3.057774   0.000000
    19  H    3.586260   2.386758   1.773708   0.000000
    20  H    4.148108   3.613285   1.773828   1.763279   0.000000
 Stoichiometry    C6H13N
 Framework group  C1[X(C6H13N)]
 Deg. of freedom    54
 Full point group                 C1      NOp   1
 Largest Abelian subgroup         C1      NOp   1
 Largest concise Abelian subgroup C1      NOp   1
                         Standard orientation:                         
 ---------------------------------------------------------------------
 Center     Atomic      Atomic             Coordinates (Angstroms)
 Number     Number       Type             X           Y           Z
 ---------------------------------------------------------------------
      1          6           0       -1.799002   -0.000094    0.169557
      2          6           0       -0.939414    1.268118    0.319207
      3          6           0       -0.939352   -1.268204    0.319048
      4          6           0        0.281121    1.205071   -0.620223
      5          6           0        0.281228   -1.204861   -0.620431
      6          7           0        1.106309    0.000102   -0.478549
      7          6           0        1.962082   -0.000095    0.706858
      8          1           0       -2.259496    0.000024   -0.830037
      9          1           0       -2.624255   -0.000169    0.893106
     10          1           0       -0.611827    1.371202    1.362279
     11          1           0       -1.530159    2.166800    0.095128
     12          1           0       -1.530032   -2.166947    0.094605
     13          1           0       -0.611837   -1.371710    1.362045
     14          1           0        0.922297    2.087253   -0.496654
     15          1           0       -0.082344    1.233300   -1.659002
     16          1           0       -0.082360   -1.232558   -1.659106
     17          1           0        0.922321   -2.087035   -0.496820
     18          1           0        1.439203   -0.000411    1.677764
     19          1           0        2.612317   -0.881679    0.681163
     20          1           0        2.612034    0.881600    0.681273
 ---------------------------------------------------------------------
 Rotational constants (GHZ):      3.7073871      2.5700324      1.9396770
 Standard basis: 6-31+G(d,p) (6D, 7F)
 There are   198 symmetry adapted basis functions of A   symmetry.
 Integral buffers will be    131072 words long.
 Raffenetti 2 integral format.
 Two-electron integral symmetry is turned on.
   198 basis functions,   315 primitive gaussians,   198 cartesian basis functions
    28 alpha electrons       28 beta electrons
       nuclear repulsion energy       336.3352840921 Hartrees.
 NAtoms=   20 NActive=   20 NUniq=   20 SFac= 7.50D-01 NAtFMM=   80 NAOKFM=F Big=F
 One-electron integrals computed using PRISM.
 NBasis=   198 RedAO= T  NBF=   198
 NBsUse=   198 1.00D-06 NBFU=   198
 Initial guess read from the read-write file.
 B after Tr=     0.000000    0.000000    0.000000
         Rot=    1.000000    0.000000    0.000000    0.000000 Ang=   0.00 deg.
 Initial guess orbital symmetries:
       Occupied  (A) (A) (A) (A) (A) (A) (A) (A) (A) (A) (A) (A)
                 (A) (A) (A) (A) (A) (A) (A) (A) (A) (A) (A) (A)
                 (A) (A) (A) (A)
       Virtual   (A) (A) (A) (A) (A) (A) (A) (A) (A) (A) (A) (A)
                 (A) (A) (A) (A) (A) (A) (A) (A) (A) (A) (A) (A)
                 (A) (A) (A) (A) (A) (A) (A) (A) (A) (A) (A) (A)
                 (A) (A) (A) (A) (A) (A) (A) (A) (A) (A) (A) (A)
                 (A) (A) (A) (A) (A) (A) (A) (A) (A) (A) (A) (A)
                 (A) (A) (A) (A) (A) (A) (A) (A) (A) (A) (A) (A)
                 (A) (A) (A) (A) (A) (A) (A) (A) (A) (A) (A) (A)
                 (A) (A) (A) (A) (A) (A) (A) (A) (A) (A) (A) (A)
                 (A) (A) (A) (A) (A) (A) (A) (A) (A) (A) (A) (A)
                 (A) (A) (A) (A) (A) (A) (A) (A) (A) (A) (A) (A)
                 (A) (A) (A) (A) (A) (A) (A) (A) (A) (A) (A) (A)
                 (A) (A) (A) (A) (A) (A) (A) (A) (A) (A) (A) (A)
                 (A) (A) (A) (A) (A) (A) (A) (A) (A) (A) (A) (A)
                 (A) (A) (A) (A) (A) (A) (A) (A) (A) (A) (A) (A)
                 (A) (A)
 Harris functional with IExCor=  402 diagonalized for initial guess.
 ExpMin= 4.38D-02 ExpMax= 4.17D+03 ExpMxC= 6.27D+02 IAcc=2 IRadAn=         0 AccDes= 0.00D+00
 HarFok:  IExCor=  402 AccDes= 0.00D+00 IRadAn=         0 IDoV= 1
 ScaDFX=  1.000000  1.000000  1.000000  1.000000
 FoFCou: FMM=F IPFlag=           0 FMFlag=      100000 FMFlg1=           0
         NFxFlg=           0 DoJE=T BraDBF=F KetDBF=T FulRan=T
         Omega=  0.000000  0.000000  1.000000  0.000000  0.000000 ICntrl=     500 IOpCl=  0
         NMat0=    1 NMatS0=    1 NMatT0=    0 NMatD0=    1 NMtDS0=    0 NMtDT0=    0
         I1Cent=           4 NGrid=           0.
 Petite list used in FoFCou.
 Requested convergence on RMS density matrix=1.00D-08 within 128 cycles.
 Requested convergence on MAX density matrix=1.00D-06.
 Requested convergence on             energy=1.00D-06.
 No special actions if energy rises.
 Keep R1 ints in memory in canonical form, NReq=198325800.
 SCF Done:  E(RB3LYP) =  -291.235940240     A.U. after   13 cycles
             Convg  =    0.3601D-08             -V/T =  2.0102
 Calling FoFJK, ICntrl=      2127 FMM=F ISym2X=0 I1Cent= 0 IOpClX= 0 NMat=1 NMatS=1 NMatT=0.
 ***** Axes restored to original set *****
 -------------------------------------------------------------------
 Center     Atomic                   Forces (Hartrees/Bohr)
 Number     Number              X              Y              Z
 -------------------------------------------------------------------
      1        6           0.000472132   -0.000240869   -0.000733441
      2        6          -0.001062197   -0.000049606    0.000910348
      3        6          -0.001091523    0.000168223    0.000707435
      4        6           0.000774650    0.001963481   -0.002841869
      5        6           0.002321845   -0.002593125   -0.000126928
      6        7          -0.002602547   -0.000333775    0.001029443
      7        6           0.002614099    0.000880710   -0.000067414
      8        1          -0.000146141   -0.000097110   -0.000057572
      9        1           0.000477709    0.000285834    0.000183126
     10        1           0.000409067    0.000082501    0.000838727
     11        1           0.000696809   -0.000491765    0.000160900
     12        1           0.000285327    0.000684673   -0.000513622
     13        1           0.000111792    0.000865816    0.000396758
     14        1          -0.000762789   -0.000773339    0.001053056
     15        1           0.000293939   -0.000286402    0.000619735
     16        1          -0.000031805    0.000694264    0.000001235
     17        1          -0.001260757    0.000740392    0.000140302
     18        1          -0.001193577   -0.000824173   -0.000686085
     19        1          -0.000049063   -0.000625203   -0.000363839
     20        1          -0.000256970   -0.000050526   -0.000650295
 -------------------------------------------------------------------
 Cartesian Forces:  Max     0.002841869 RMS     0.000979243

 GradGradGradGradGradGradGradGradGradGradGradGradGradGradGradGradGradGrad
 Berny optimization.
 Using GEDIIS/GDIIS optimizer.
 Internal  Forces:  Max     0.002083733 RMS     0.000522193
 Search for a local minimum.
 Step number   2 out of a maximum of  120
 All quantities printed in internal units (Hartrees-Bohrs-Radians)
 Mixed Optimization -- En-DIIS/RFO-DIIS
 Update second derivatives using D2CorX and points    1    2
 DE= -3.62D-03 DEPred=-4.03D-03 R= 8.99D-01
 SS=  1.41D+00  RLast= 2.60D-01 DXNew= 5.0454D-01 7.8064D-01
 Trust test= 8.99D-01 RLast= 2.60D-01 DXMaxT set to 5.05D-01
 Use linear search instead of GDIIS.
     Eigenvalues ---    0.00533   0.00536   0.00969   0.00991   0.02163
     Eigenvalues ---    0.02195   0.03480   0.03918   0.04042   0.04364
     Eigenvalues ---    0.04851   0.04956   0.05553   0.05788   0.06094
     Eigenvalues ---    0.06830   0.06845   0.07695   0.07951   0.07967
     Eigenvalues ---    0.07995   0.08050   0.09328   0.09866   0.09876
     Eigenvalues ---    0.12046   0.12648   0.15211   0.15601   0.15882
     Eigenvalues ---    0.16000   0.16464   0.18044   0.21759   0.27557
     Eigenvalues ---    0.28172   0.28335   0.28855   0.30049   0.31860
     Eigenvalues ---    0.31888   0.31911   0.31922   0.31934   0.31948
     Eigenvalues ---    0.31963   0.32043   0.32100   0.32120   0.32153
     Eigenvalues ---    0.32680   0.35842   0.36222   0.381421000.00000
     Eigenvalues --- 1000.000001000.000001000.000001000.000001000.00000
     Eigenvalues --- 1000.000001000.000001000.000001000.000001000.00000
     Eigenvalues --- 1000.000001000.000001000.000001000.000001000.00000
     Eigenvalues --- 1000.000001000.000001000.000001000.000001000.00000
     Eigenvalues --- 1000.000001000.000001000.000001000.000001000.00000
     Eigenvalues --- 1000.000001000.000001000.000001000.000001000.00000
     Eigenvalues --- 1000.000001000.000001000.000001000.000001000.00000
     Eigenvalues --- 1000.000001000.000001000.000001000.000001000.00000
     Eigenvalues --- 1000.000001000.000001000.000001000.000001000.00000
     Eigenvalues --- 1000.000001000.000001000.000001000.000001000.00000
     Eigenvalues --- 1000.000001000.000001000.000001000.000001000.00000
     Eigenvalues --- 1000.000001000.000001000.00000
 RFO step:  Lambda=-2.60795536D-04 EMin= 5.32577394D-03
 Quartic linear search produced a step of -0.02599.
 Iteration  1 RMS(Cart)=  0.00952357 RMS(Int)=  0.00006009
 Iteration  2 RMS(Cart)=  0.00005677 RMS(Int)=  0.00002334
 Iteration  3 RMS(Cart)=  0.00000000 RMS(Int)=  0.00002334
 Variable       Old X    -DE/DX   Delta X   Delta X   Delta X     New X
                                 (Linear)    (Quad)   (Total)
    R1        2.90898  -0.00045  -0.00026  -0.00148  -0.00175   2.90723
    R2        2.90886  -0.00043  -0.00026  -0.00140  -0.00168   2.90718
    R3        2.07977   0.00002   0.00079  -0.00174  -0.00095   2.07882
    R4        2.07403  -0.00056   0.00091  -0.00380  -0.00289   2.07114
    R5        2.91301  -0.00045  -0.00024  -0.00092  -0.00117   2.91184
    R6        2.07521   0.00038   0.00085  -0.00079   0.00007   2.07527
    R7        2.07597  -0.00057   0.00086  -0.00370  -0.00284   2.07312
    R8        2.91315  -0.00046  -0.00023  -0.00101  -0.00124   2.91191
    R9        2.07614  -0.00062   0.00090  -0.00396  -0.00306   2.07308
   R10        2.07511   0.00041   0.00082  -0.00063   0.00019   2.07530
   R11        2.77279  -0.00009  -0.00045   0.00123   0.00079   2.77357
   R12        2.07407  -0.00074   0.00096  -0.00444  -0.00348   2.07059
   R13        2.08039  -0.00027   0.00077  -0.00257  -0.00180   2.07859
   R14        2.77270  -0.00005  -0.00045   0.00134   0.00090   2.77360
   R15        2.08025  -0.00023   0.00077  -0.00244  -0.00167   2.07858
   R16        2.07398  -0.00071   0.00093  -0.00429  -0.00336   2.07062
   R17        2.76284  -0.00208  -0.00036  -0.00456  -0.00492   2.75792
   R18        2.08390   0.00113   0.00048   0.00230   0.00277   2.08667
   R19        2.07066  -0.00010   0.00092  -0.00240  -0.00148   2.06917
   R20        2.07050  -0.00005   0.00093  -0.00228  -0.00135   2.06916
    A1        1.93630  -0.00065  -0.00041  -0.00389  -0.00435   1.93195
    A2        1.89848   0.00042   0.00025   0.00398   0.00425   1.90273
    A3        1.93461  -0.00001  -0.00017  -0.00190  -0.00207   1.93254
    A4        1.89860   0.00040   0.00023   0.00389   0.00414   1.90274
    A5        1.93461   0.00000  -0.00016  -0.00187  -0.00203   1.93259
    A6        1.85892  -0.00011   0.00030   0.00022   0.00052   1.85944
    A7        1.92751   0.00072  -0.00004  -0.00089  -0.00094   1.92657
    A8        1.91373  -0.00018   0.00011   0.00057   0.00066   1.91439
    A9        1.93248  -0.00023  -0.00046  -0.00017  -0.00063   1.93185
   A10        1.92464  -0.00045   0.00015  -0.00419  -0.00403   1.92060
   A11        1.91233  -0.00038   0.00015  -0.00204  -0.00188   1.91044
   A12        1.85185   0.00050   0.00010   0.00694   0.00704   1.85889
   A13        1.92746   0.00073  -0.00003  -0.00086  -0.00090   1.92655
   A14        1.93246  -0.00022  -0.00046  -0.00012  -0.00058   1.93188
   A15        1.91395  -0.00020   0.00009   0.00040   0.00048   1.91444
   A16        1.91220  -0.00039   0.00013  -0.00192  -0.00178   1.91041
   A17        1.92471  -0.00044   0.00018  -0.00430  -0.00412   1.92059
   A18        1.85177   0.00051   0.00009   0.00702   0.00711   1.85888
   A19        2.00428  -0.00124  -0.00031  -0.00834  -0.00867   1.99561
   A20        1.94020  -0.00019  -0.00051  -0.00382  -0.00443   1.93578
   A21        1.88871   0.00096   0.00013   0.00946   0.00960   1.89830
   A22        1.89722   0.00035   0.00050  -0.00624  -0.00582   1.89140
   A23        1.87322  -0.00008   0.00050   0.00008   0.00061   1.87383
   A24        1.85302   0.00032  -0.00031   0.01074   0.01045   1.86347
   A25        2.00430  -0.00126  -0.00033  -0.00831  -0.00867   1.99563
   A26        1.88859   0.00097   0.00014   0.00947   0.00962   1.89821
   A27        1.93996  -0.00017  -0.00051  -0.00364  -0.00425   1.93571
   A28        1.87301  -0.00005   0.00050   0.00037   0.00089   1.87390
   A29        1.89731   0.00035   0.00051  -0.00635  -0.00592   1.89139
   A30        1.85353   0.00029  -0.00029   0.01031   0.01003   1.86356
   A31        1.92712   0.00112   0.00005   0.00778   0.00788   1.93500
   A32        1.99060  -0.00056  -0.00083  -0.00185  -0.00266   1.98793
   A33        1.99045  -0.00052  -0.00079  -0.00173  -0.00250   1.98795
   A34        2.02230  -0.00164  -0.00130  -0.00861  -0.00994   2.01236
   A35        1.90545  -0.00026   0.00050  -0.00199  -0.00150   1.90395
   A36        1.90517  -0.00021   0.00055  -0.00177  -0.00122   1.90395
   A37        1.87737   0.00074   0.00025   0.00244   0.00266   1.88003
   A38        1.87765   0.00071   0.00026   0.00220   0.00244   1.88009
   A39        1.87011   0.00086  -0.00022   0.00926   0.00905   1.87917
    D1        0.90364   0.00038   0.00057   0.01455   0.01513   0.91877
    D2       -1.22069   0.00059   0.00034   0.02000   0.02034  -1.20035
    D3        3.02497   0.00022   0.00042   0.01128   0.01170   3.03667
    D4       -1.18408   0.00001   0.00038   0.00960   0.00999  -1.17409
    D5        2.97478   0.00022   0.00015   0.01505   0.01520   2.98998
    D6        0.93725  -0.00015   0.00024   0.00633   0.00656   0.94381
    D7        3.06089  -0.00010  -0.00003   0.00804   0.00800   3.06890
    D8        0.93656   0.00011  -0.00027   0.01348   0.01322   0.94978
    D9       -1.10096  -0.00025  -0.00018   0.00476   0.00458  -1.09638
   D10       -0.90363  -0.00039  -0.00059  -0.01451  -0.01510  -0.91872
   D11       -3.02474  -0.00023  -0.00042  -0.01144  -0.01186  -3.03660
   D12        1.22091  -0.00060  -0.00032  -0.02018  -0.02051   1.20040
   D13        1.18402  -0.00001  -0.00039  -0.00951  -0.00990   1.17412
   D14       -0.93709   0.00014  -0.00023  -0.00643  -0.00666  -0.94375
   D15       -2.97463  -0.00022  -0.00013  -0.01518  -0.01531  -2.98994
   D16       -3.06088   0.00010   0.00002  -0.00798  -0.00796  -3.06883
   D17        1.10120   0.00025   0.00019  -0.00490  -0.00472   1.09648
   D18       -0.93634  -0.00012   0.00029  -0.01365  -0.01337  -0.94971
   D19       -0.94252  -0.00007  -0.00052  -0.00478  -0.00527  -0.94779
   D20       -3.10542   0.00057  -0.00055   0.01325   0.01269  -3.09273
   D21        1.14936  -0.00027   0.00002  -0.00322  -0.00321   1.14615
   D22        1.17535  -0.00012  -0.00031  -0.00743  -0.00771   1.16764
   D23       -0.98755   0.00052  -0.00034   0.01060   0.01025  -0.97730
   D24       -3.01596  -0.00032   0.00023  -0.00587  -0.00565  -3.02161
   D25       -3.07574   0.00000  -0.00001  -0.00263  -0.00262  -3.07835
   D26        1.04455   0.00064  -0.00004   0.01540   0.01534   1.05989
   D27       -0.98386  -0.00020   0.00053  -0.00107  -0.00056  -0.98442
   D28        0.94258   0.00007   0.00053   0.00466   0.00515   0.94773
   D29       -1.14896   0.00025   0.00001   0.00271   0.00272  -1.14624
   D30        3.10541  -0.00058   0.00055  -0.01335  -0.01279   3.09262
   D31        3.07564   0.00000   0.00002   0.00267   0.00266   3.07830
   D32        0.98411   0.00019  -0.00051   0.00072   0.00022   0.98433
   D33       -1.04471  -0.00064   0.00004  -0.01533  -0.01528  -1.05999
   D34       -1.17559   0.00013   0.00031   0.00757   0.00785  -1.16774
   D35        3.01606   0.00031  -0.00021   0.00562   0.00542   3.02148
   D36        0.98725  -0.00051   0.00034  -0.01044  -0.01009   0.97715
   D37        0.94345   0.00034   0.00046   0.00187   0.00231   0.94576
   D38       -1.32474   0.00056   0.00216  -0.00109   0.00104  -1.32370
   D39        3.12897  -0.00055  -0.00004  -0.01441  -0.01441   3.11456
   D40        0.86078  -0.00034   0.00166  -0.01737  -0.01568   0.84510
   D41       -1.15699  -0.00004   0.00012  -0.00493  -0.00481  -1.16180
   D42        2.85801   0.00017   0.00183  -0.00790  -0.00608   2.85193
   D43       -0.94347  -0.00033  -0.00045  -0.00182  -0.00226  -0.94573
   D44        1.32480  -0.00057  -0.00217   0.00107  -0.00108   1.32372
   D45        1.15668   0.00006  -0.00012   0.00522   0.00509   1.16177
   D46       -2.85824  -0.00017  -0.00185   0.00811   0.00627  -2.85196
   D47       -3.12876   0.00054   0.00006   0.01428   0.01431  -3.11445
   D48       -0.86049   0.00031  -0.00166   0.01718   0.01549  -0.84500
   D49        1.11829   0.00030  -0.00063   0.00386   0.00322   1.12151
   D50       -3.04289  -0.00008  -0.00084  -0.00057  -0.00140  -3.04429
   D51       -1.00387   0.00069  -0.00048   0.00843   0.00793  -0.99595
   D52       -1.11798  -0.00030   0.00068  -0.00397  -0.00329  -1.12126
   D53        1.00403  -0.00069   0.00047  -0.00840  -0.00791   0.99612
   D54        3.04305   0.00008   0.00083   0.00059   0.00142   3.04446
         Item               Value     Threshold  Converged?
 Maximum Force            0.002084     0.000450     NO 
 RMS     Force            0.000522     0.000300     NO 
 Maximum Displacement     0.036739     0.001800     NO 
 RMS     Displacement     0.009536     0.001200     NO 
 Predicted change in Energy=-1.333679D-04
 GradGradGradGradGradGradGradGradGradGradGradGradGradGradGradGradGradGrad

                          Input orientation:                          
 ---------------------------------------------------------------------
 Center     Atomic      Atomic             Coordinates (Angstroms)
 Number     Number       Type             X           Y           Z
 ---------------------------------------------------------------------
      1          6           0       -1.130107   -1.005183   -0.997410
      2          6           0       -1.149301    0.533137   -0.996851
      3          6           0       -0.405232   -1.540239    0.249578
      4          6           0        0.276170    1.087602   -0.810007
      5          6           0        0.986807   -0.892530    0.380427
      6          7           0        0.974056    0.575132    0.375113
      7          6           0        0.521342    1.167065    1.629940
      8          1           0       -0.603247   -1.356787   -1.896815
      9          1           0       -2.148597   -1.405782   -1.055837
     10          1           0       -1.802349    0.894677   -0.191348
     11          1           0       -1.570275    0.915803   -1.934863
     12          1           0       -0.297452   -2.630699    0.197172
     13          1           0       -1.004494   -1.328620    1.145207
     14          1           0        0.266485    2.182067   -0.758677
     15          1           0        0.879328    0.816453   -1.688954
     16          1           0        1.609579   -1.218510   -0.465597
     17          1           0        1.490993   -1.230158    1.292796
     18          1           0       -0.527547    0.953504    1.901096
     19          1           0        1.156472    0.806375    2.445690
     20          1           0        0.636582    2.254547    1.574983
 ---------------------------------------------------------------------
                    Distance matrix (angstroms):
                    1          2          3          4          5
     1  C    0.000000
     2  C    1.538440   0.000000
     3  C    1.538411   2.531030   0.000000
     4  C    2.528336   1.540879   2.914203   0.000000
     5  C    2.528330   2.914168   1.540916   2.417242   0.000000
     6  N    2.967949   2.528378   2.528437   1.467712   1.467727
     7  C    3.787995   3.176938   3.177017   2.453520   2.453542
     8  H    1.100062   2.163313   2.163300   2.815948   2.815961
     9  H    1.096000   2.182082   2.182088   3.486674   3.486695
    10  H    2.170509   1.098188   2.841684   2.177200   3.361610
    11  H    2.182373   1.097050   3.487298   2.168911   3.894779
    12  H    2.182349   3.487291   1.097025   3.894768   2.168902
    13  H    2.170529   2.841746   1.098202   3.361709   2.177232
    14  H    3.487983   2.186354   3.914505   1.095711   3.357018
    15  H    2.799003   2.162084   3.310891   1.099941   2.685984
    16  H    2.798966   3.310878   2.162047   2.686028   1.099938
    17  H    3.487954   3.914440   2.186349   3.357020   1.095725
    18  H    3.549770   2.993556   2.993531   2.830904   2.830819
    19  H    4.512774   4.152389   3.573294   3.384314   2.679622
    20  H    4.512675   3.573088   4.152407   2.679521   3.384333
                    6          7          8          9         10
     6  N    0.000000
     7  C    1.459426   0.000000
     8  H    3.373700   4.480237   0.000000
     9  H    3.965174   4.578375   1.760043   0.000000
    10  H    2.851563   2.964932   3.068476   2.481802   0.000000
    11  H    3.453356   4.140749   2.470072   2.548902   1.759019
    12  H    3.453368   4.140804   2.470050   2.548959   3.852783
    13  H    2.851662   2.965061   3.068499   2.481838   2.714038
    14  H    2.090067   2.607810   3.817758   4.335157   2.501861
    15  H    2.080284   3.356507   2.638978   3.808871   3.072512
    16  H    2.080344   3.356561   2.638959   3.808850   4.022688
    17  H    2.090080   2.607790   3.817786   4.335151   4.190907
    18  H    2.174074   1.104219   4.446043   4.115518   2.450898
    19  H    2.091420   1.094960   5.160739   5.298851   3.964391
    20  H    2.091414   1.094951   5.160648   5.298722   3.304173
                   11         12         13         14         15
    11  H    0.000000
    12  H    4.329357   0.000000
    13  H    3.852839   1.759001   0.000000
    14  H    2.522007   4.939068   4.191072   0.000000
    15  H    2.463919   4.101846   4.022759   1.762355   0.000000
    16  H    4.101890   2.463799   3.072488   3.667932   2.484138
    17  H    4.939057   2.521991   2.501786   4.165482   3.667912
    18  H    3.975334   3.975274   2.450905   3.035498   3.858307
    19  H    5.161043   4.356972   3.304427   3.598969   4.143934
    20  H    4.356773   5.161047   3.964458   2.363937   3.574958
                   16         17         18         19         20
    16  H    0.000000
    17  H    1.762425   0.000000
    18  H    3.858261   3.035278   0.000000
    19  H    3.575060   2.364008   1.775993   0.000000
    20  H    4.144009   3.599002   1.776023   1.767942   0.000000
 Stoichiometry    C6H13N
 Framework group  C1[X(C6H13N)]
 Deg. of freedom    54
 Full point group                 C1      NOp   1
 Largest Abelian subgroup         C1      NOp   1
 Largest concise Abelian subgroup C1      NOp   1
                         Standard orientation:                         
 ---------------------------------------------------------------------
 Center     Atomic      Atomic             Coordinates (Angstroms)
 Number     Number       Type             X           Y           Z
 ---------------------------------------------------------------------
      1          6           0        1.795796    0.000058   -0.163757
[...]
     12          1           0       -0.299943   -2.632845    0.195707
     13          1           0       -1.005986   -1.327286    1.142596
     14          1           0        0.260929    2.183368   -0.754854
     15          1           0        0.878972    0.820600   -1.689093
     16          1           0        1.611364   -1.220142   -0.462220
     17          1           0        1.486006   -1.230214    1.297351
     18          1           0       -0.523438    0.957989    1.905993
     19          1           0        1.162030    0.807774    2.445920
     20          1           0        0.641888    2.256889    1.574706
 ---------------------------------------------------------------------
                    Distance matrix (angstroms):
                    1          2          3          4          5
     1  C    0.000000
     2  C    1.538285   0.000000
     3  C    1.538283   2.530690   0.000000
     4  C    2.529669   1.541446   2.915479   0.000000
     5  C    2.529668   2.915476   1.541449   2.419874   0.000000
     6  N    2.968545   2.528983   2.528986   1.468320   1.468319
     7  C    3.794218   3.182697   3.182698   2.454903   2.454900
     8  H    1.100530   2.163388   2.163388   2.817213   2.817215
     9  H    1.096779   2.182678   2.182678   3.488613   3.488615
    10  H    2.169959   1.098487   2.839201   2.175950   3.359910
    11  H    2.182436   1.097657   3.487490   2.170966   3.897565
    12  H    2.182438   3.487494   1.097657   3.897567   2.170967
    13  H    2.169956   2.839200   1.098486   3.359912   2.175951
    14  H    3.488694   2.186207   3.914742   1.096169   3.359388
    15  H    2.801727   2.162826   3.313964   1.100044   2.690457
    16  H    2.801728   3.313965   2.162828   2.690460   1.100044
    17  H    3.488691   3.914739   2.186207   3.359390   1.096168
    18  H    3.559816   3.002011   3.001979   2.833751   2.833714
    19  H    4.518799   4.157922   3.579323   3.386314   2.680738
    20  H    4.518757   3.579264   4.157901   2.680708   3.386314
                    6          7          8          9         10
     6  N    0.000000
     7  C    1.459318   0.000000
     8  H    3.373722   4.484802   0.000000
     9  H    3.966764   4.586633   1.761132   0.000000
    10  H    2.849746   2.969264   3.068681   2.482787   0.000000
    11  H    3.455350   4.146806   2.470960   2.548379   1.760561
    12  H    3.455350   4.146805   2.470965   2.548388   3.850620
    13  H    2.849748   2.969264   3.068680   2.482788   2.708506
    14  H    2.090804   2.605761   3.819675   4.335972   2.498682
    15  H    2.080960   3.356725   2.641748   3.811995   3.072041
    16  H    2.080961   3.356723   2.641752   3.811999   4.023054
    17  H    2.090805   2.605758   3.819676   4.335972   4.186892
    18  H    2.174530   1.105055   4.454900   4.127840   2.457300
    19  H    2.092439   1.095397   5.164921   5.307047   3.968470
    20  H    2.092440   1.095397   5.164887   5.306995   3.310129
                   11         12         13         14         15
    11  H    0.000000
    12  H    4.329946   0.000000
    13  H    3.850616   1.760562   0.000000
    14  H    2.524012   4.941057   4.186895   0.000000
    15  H    2.466111   4.107139   4.023052   1.764062   0.000000
    16  H    4.107141   2.466108   3.072041   3.673308   2.491234
    17  H    4.941054   2.524006   2.498679   4.167122   3.673306
    18  H    3.983649   3.983605   2.457256   3.032638   3.861382
    19  H    5.167044   4.363334   3.310201   3.598499   4.144709
    20  H    4.363275   5.167028   3.968441   2.361649   3.573725
                   16         17         18         19         20
    16  H    0.000000
    17  H    1.764060   0.000000
    18  H    3.861355   3.032580   0.000000
    19  H    3.573741   2.361687   1.776200   0.000000
    20  H    4.144719   3.598520   1.776198   1.769037   0.000000
 Stoichiometry    C6H13N
 Framework group  C1[X(C6H13N)]
 Deg. of freedom    54
 Full point group                 C1      NOp   1
 Largest Abelian subgroup         C1      NOp   1
 Largest concise Abelian subgroup C1      NOp   1
                         Standard orientation:                         
 ---------------------------------------------------------------------
 Center     Atomic      Atomic             Coordinates (Angstroms)
 Number     Number       Type             X           Y           Z
 ---------------------------------------------------------------------
      1          6           0        1.797607   -0.000001   -0.162704
      2          6           0        0.937407    1.265345   -0.321697
      3          6           0        0.937410   -1.265345   -0.321696
      4          6           0       -0.281303    1.209938    0.620497
      5          6           0       -0.281305   -1.209936    0.620497
      6          7           0       -1.100922    0.000001    0.478224
      7          6           0       -1.957956   -0.000002   -0.702921
      8          1           0        2.253457    0.000002    0.838978
      9          1           0        2.625161    0.000002   -0.882481
     10          1           0        0.600594    1.354252   -1.363487
     11          1           0        1.528039    2.164971   -0.105649
     12          1           0        1.528037   -2.164975   -0.105644
     13          1           0        0.600596   -1.354254   -1.363485
     14          1           0       -0.927073    2.083561    0.474379
     15          1           0        0.073680    1.245616    1.661079
     16          1           0        0.073678   -1.245617    1.661079
     17          1           0       -0.927071   -2.083560    0.474378
     18          1           0       -1.426511   -0.000042   -1.671793
     19          1           0       -2.603677   -0.884499   -0.678362
     20          1           0       -2.603620    0.884538   -0.678409
 ---------------------------------------------------------------------
 Rotational constants (GHZ):      3.7089097      2.5803581      1.9443964

 **********************************************************************

            Population analysis using the SCF density.

 **********************************************************************

 Orbital symmetries:
       Occupied  (A) (A) (A) (A) (A) (A) (A) (A) (A) (A) (A) (A)
                 (A) (A) (A) (A) (A) (A) (A) (A) (A) (A) (A) (A)
                 (A) (A) (A) (A)
       Virtual   (A) (A) (A) (A) (A) (A) (A) (A) (A) (A) (A) (A)
                 (A) (A) (A) (A) (A) (A) (A) (A) (A) (A) (A) (A)
                 (A) (A) (A) (A) (A) (A) (A) (A) (A) (A) (A) (A)
                 (A) (A) (A) (A) (A) (A) (A) (A) (A) (A) (A) (A)
                 (A) (A) (A) (A) (A) (A) (A) (A) (A) (A) (A) (A)
                 (A) (A) (A) (A) (A) (A) (A) (A) (A) (A) (A) (A)
                 (A) (A) (A) (A) (A) (A) (A) (A) (A) (A) (A) (A)
                 (A) (A) (A) (A) (A) (A) (A) (A) (A) (A) (A) (A)
                 (A) (A) (A) (A) (A) (A) (A) (A) (A) (A) (A) (A)
                 (A) (A) (A) (A) (A) (A) (A) (A) (A) (A) (A) (A)
                 (A) (A) (A) (A) (A) (A) (A) (A) (A) (A) (A) (A)
                 (A) (A) (A) (A) (A) (A) (A) (A) (A) (A) (A) (A)
                 (A) (A) (A) (A) (A) (A) (A) (A) (A) (A) (A) (A)
                 (A) (A) (A) (A) (A) (A) (A) (A) (A) (A) (A) (A)
                 (A) (A)
 The electronic state is 1-A.
 Alpha  occ. eigenvalues --  -14.32319 -10.20506 -10.20505 -10.20154 -10.18356
 Alpha  occ. eigenvalues --  -10.18094 -10.18092  -0.91940  -0.78932  -0.74853
 Alpha  occ. eigenvalues --   -0.69573  -0.62287  -0.61225  -0.54891  -0.48542
 Alpha  occ. eigenvalues --   -0.46583  -0.44830  -0.43908  -0.41366  -0.41006
 Alpha  occ. eigenvalues --   -0.38267  -0.36966  -0.36296  -0.34229  -0.34183
 Alpha  occ. eigenvalues --   -0.32051  -0.31469  -0.20294
 Alpha virt. eigenvalues --    0.00382   0.02058   0.02155   0.02345   0.04230
 Alpha virt. eigenvalues --    0.04536   0.05283   0.05939   0.06370   0.08211
 Alpha virt. eigenvalues --    0.08820   0.08835   0.09518   0.09558   0.10318
 Alpha virt. eigenvalues --    0.10991   0.12302   0.13390   0.13618   0.15197
 Alpha virt. eigenvalues --    0.16710   0.17130   0.17926   0.18017   0.19968
 Alpha virt. eigenvalues --    0.20675   0.20880   0.22075   0.23147   0.23719
 Alpha virt. eigenvalues --    0.23914   0.24807   0.25137   0.26276   0.28968
 Alpha virt. eigenvalues --    0.28974   0.29711   0.30222   0.31406   0.32205
 Alpha virt. eigenvalues --    0.32442   0.32727   0.36476   0.37308   0.38227
 Alpha virt. eigenvalues --    0.39813   0.40061   0.46175   0.62117   0.62144
 Alpha virt. eigenvalues --    0.64452   0.65648   0.65780   0.66114   0.67876
 Alpha virt. eigenvalues --    0.72877   0.73478   0.74449   0.75357   0.77132
 Alpha virt. eigenvalues --    0.78655   0.78717   0.81383   0.88929   0.89059
 Alpha virt. eigenvalues --    0.94612   0.94952   0.95540   0.97876   0.99156
 Alpha virt. eigenvalues --    1.01011   1.02729   1.03118   1.06498   1.08834
 Alpha virt. eigenvalues --    1.10314   1.10805   1.12798   1.13085   1.14914
 Alpha virt. eigenvalues --    1.15088   1.18999   1.21456   1.28715   1.32451
 Alpha virt. eigenvalues --    1.34562   1.39434   1.40130   1.48246   1.56088
 Alpha virt. eigenvalues --    1.56197   1.59429   1.62058   1.67689   1.72597
 Alpha virt. eigenvalues --    1.73604   1.81304   1.82880   1.86105   1.87998
 Alpha virt. eigenvalues --    1.92172   1.94632   1.96593   1.97224   1.97946
 Alpha virt. eigenvalues --    2.01111   2.02026   2.04361   2.04545   2.11492
 Alpha virt. eigenvalues --    2.13061   2.13689   2.14614   2.16304   2.17740
 Alpha virt. eigenvalues --    2.18395   2.19354   2.21506   2.28265   2.34115
 Alpha virt. eigenvalues --    2.34885   2.38000   2.38083   2.39759   2.43707
 Alpha virt. eigenvalues --    2.45810   2.45929   2.45938   2.50777   2.55187
 Alpha virt. eigenvalues --    2.56477   2.58115   2.64875   2.65889   2.67682
 Alpha virt. eigenvalues --    2.69992   2.74142   2.74985   2.77682   2.78695
 Alpha virt. eigenvalues --    2.81573   2.84203   2.86280   2.88967   2.90188
 Alpha virt. eigenvalues --    2.92861   2.95142   2.95740   3.00236   3.05537
 Alpha virt. eigenvalues --    3.24467   3.30788   3.32825   3.33455   3.34387
 Alpha virt. eigenvalues --    3.35583   3.45228   3.47060   3.51225   3.52197
 Alpha virt. eigenvalues --    3.52600   3.55974   3.60881   4.24166   4.41047
 Alpha virt. eigenvalues --    4.45981   4.59661   4.66931   4.76949   4.80045
          Condensed to atoms (all electrons):
              1          2          3          4          5          6
     1  C    5.325220   0.213325   0.213322  -0.110649  -0.110651  -0.008581
     2  C    0.213325   5.525582  -0.079264   0.141765   0.062673  -0.143444
     3  C    0.213322  -0.079264   5.525576   0.062679   0.141761  -0.143437
     4  C   -0.110649   0.141765   0.062679   5.541896  -0.285754   0.222050
     5  C   -0.110651   0.062673   0.141761  -0.285754   5.541914   0.222045
     6  N   -0.008581  -0.143444  -0.143437   0.222050   0.222045   7.170149
     7  C    0.029487  -0.014164  -0.014168  -0.104771  -0.104775   0.227755
     8  H    0.449062  -0.068804  -0.068803  -0.004990  -0.004991   0.002743
     9  H    0.390657  -0.034309  -0.034309   0.004873   0.004872   0.000087
    10  H   -0.021981   0.389605  -0.005390  -0.054471  -0.011316   0.005595
    11  H   -0.035714   0.365560   0.011851  -0.033562   0.006364   0.011020
    12  H   -0.035714   0.011850   0.365561   0.006364  -0.033562   0.011020
    13  H   -0.021982  -0.005390   0.389607  -0.011316  -0.054471   0.005595
    14  H    0.013864  -0.076980  -0.002893   0.430680   0.012767  -0.054902
    15  H    0.007645  -0.085484  -0.019363   0.431570  -0.001292  -0.044996
    16  H    0.007644  -0.019364  -0.085483  -0.001292   0.431570  -0.044996
    17  H    0.013864  -0.002893  -0.076982   0.012766   0.430682  -0.054902
    18  H    0.013403   0.016481   0.016480  -0.023109  -0.023111  -0.090619
    19  H   -0.000509  -0.003295  -0.014472   0.000511   0.013108  -0.058522
    20  H   -0.000509  -0.014471  -0.003294   0.013107   0.000512  -0.058522
              7          8          9         10         11         12
     1  C    0.029487   0.449062   0.390657  -0.021981  -0.035714  -0.035714
     2  C   -0.014164  -0.068804  -0.034309   0.389605   0.365560   0.011850
     3  C   -0.014168  -0.068803  -0.034309  -0.005390   0.011851   0.365561
     4  C   -0.104771  -0.004990   0.004873  -0.054471  -0.033562   0.006364
     5  C   -0.104775  -0.004991   0.004872  -0.011316   0.006364  -0.033562
     6  N    0.227755   0.002743   0.000087   0.005595   0.011020   0.011020
     7  C    5.086276   0.002887  -0.000293   0.009592  -0.000919  -0.000919
     8  H    0.002887   0.581561  -0.032445   0.005043  -0.004767  -0.004767
     9  H   -0.000293  -0.032445   0.581790  -0.005035  -0.002634  -0.002633
    10  H    0.009592   0.005043  -0.005035   0.580278  -0.030519  -0.000034
    11  H   -0.000919  -0.004767  -0.002634  -0.030519   0.584874  -0.000113
    12  H   -0.000919  -0.004767  -0.002633  -0.000034  -0.000113   0.584873
    13  H    0.009591   0.005043  -0.005035   0.002497  -0.000034  -0.030519
    14  H   -0.009065   0.000026  -0.000145  -0.004294  -0.000646   0.000016
    15  H    0.009702   0.003167  -0.000071   0.004773  -0.002486   0.000022
    16  H    0.009702   0.003167  -0.000071   0.000082   0.000022  -0.002486
    17  H   -0.009064   0.000026  -0.000145   0.000007   0.000016  -0.000646
    18  H    0.427259  -0.000032   0.000024  -0.000848  -0.000157  -0.000158
    19  H    0.412680   0.000002  -0.000002  -0.000026   0.000007   0.000018
    20  H    0.412680   0.000002  -0.000002   0.000166   0.000018   0.000007
             13         14         15         16         17         18
     1  C   -0.021982   0.013864   0.007645   0.007644   0.013864   0.013403
     2  C   -0.005390  -0.076980  -0.085484  -0.019364  -0.002893   0.016481
     3  C    0.389607  -0.002893  -0.019363  -0.085483  -0.076982   0.016480
     4  C   -0.011316   0.430680   0.431570  -0.001292   0.012766  -0.023109
     5  C   -0.054471   0.012767  -0.001292   0.431570   0.430682  -0.023111
     6  N    0.005595  -0.054902  -0.044996  -0.044996  -0.054902  -0.090619
     7  C    0.009591  -0.009065   0.009702   0.009702  -0.009064   0.427259
     8  H    0.005043   0.000026   0.003167   0.003167   0.000026  -0.000032
     9  H   -0.005035  -0.000145  -0.000071  -0.000071  -0.000145   0.000024
    10  H    0.002497  -0.004294   0.004773   0.000082   0.000007  -0.000848
    11  H   -0.000034  -0.000646  -0.002486   0.000022   0.000016  -0.000157
    12  H   -0.030519   0.000016   0.000022  -0.002486  -0.000646  -0.000158
    13  H    0.580279   0.000007   0.000082   0.004773  -0.004294  -0.000848
    14  H    0.000007   0.588347  -0.026196   0.000155  -0.000172  -0.000977
    15  H    0.000082  -0.026196   0.584777   0.004541   0.000155  -0.000423
    16  H    0.004773   0.000155   0.004541   0.584777  -0.026196  -0.000423
    17  H   -0.004294  -0.000172   0.000155  -0.026196   0.588347  -0.000977
    18  H   -0.000848  -0.000977  -0.000423  -0.000423  -0.000977   0.629292
    19  H    0.000166   0.000363  -0.000125   0.000362   0.004877  -0.043696
    20  H   -0.000026   0.004878   0.000362  -0.000125   0.000363  -0.043695
             19         20
     1  C   -0.000509  -0.000509
     2  C   -0.003295  -0.014471
     3  C   -0.014472  -0.003294
     4  C    0.000511   0.013107
     5  C    0.013108   0.000512
     6  N   -0.058522  -0.058522
     7  C    0.412680   0.412680
     8  H    0.000002   0.000002
     9  H   -0.000002  -0.000002
    10  H   -0.000026   0.000166
    11  H    0.000007   0.000018
    12  H    0.000018   0.000007
    13  H    0.000166  -0.000026
    14  H    0.000363   0.004878
    15  H   -0.000125   0.000362
    16  H    0.000362  -0.000125
    17  H    0.004877   0.000363
    18  H   -0.043696  -0.043695
    19  H    0.571595  -0.017449
    20  H   -0.017449   0.571594
 Mulliken atomic charges:
              1
     1  C   -0.331201
     2  C   -0.178979
     3  C   -0.178977
     4  C   -0.238346
     5  C   -0.238347
     6  N   -0.175139
     7  C   -0.379473
     8  H    0.136870
     9  H    0.134828
    10  H    0.136277
    11  H    0.131821
    12  H    0.131821
    13  H    0.136276
    14  H    0.125169
    15  H    0.133643
    16  H    0.133643
    17  H    0.125170
    18  H    0.126132
    19  H    0.134407
    20  H    0.134405
 Sum of Mulliken atomic charges =   0.00000
 Mulliken charges with hydrogens summed into heavy atoms:
              1
     1  C   -0.059503
     2  C    0.089118
     3  C    0.089120
     4  C    0.020467
     5  C    0.020466
     6  N   -0.175139
     7  C    0.015471
 Sum of Mulliken charges with hydrogens summed into heavy atoms =   0.00000
 Electronic spatial extent (au):  <R**2>=            767.4987
 Charge=              0.0000 electrons
 Dipole moment (field-independent basis, Debye):
    X=              0.5985    Y=              0.0000    Z=             -0.6903  Tot=              0.9136
 Quadrupole moment (field-independent basis, Debye-Ang):
   XX=            -47.5421   YY=            -45.1740   ZZ=            -47.5528
   XY=              0.0000   XZ=              2.2994   YZ=              0.0000
 Traceless Quadrupole moment (field-independent basis, Debye-Ang):
   XX=             -0.7858   YY=              1.5823   ZZ=             -0.7965
   XY=              0.0000   XZ=              2.2994   YZ=              0.0000
 Octapole moment (field-independent basis, Debye-Ang**2):
  XXX=             -2.3485  YYY=              0.0000  ZZZ=              0.4570  XYY=             -2.8202
  XXY=              0.0000  XXZ=             -3.8840  XZZ=              2.9214  YZZ=              0.0000
  YYZ=              1.6540  XYZ=              0.0001
 Hexadecapole moment (field-independent basis, Debye-Ang**3):
 XXXX=           -539.6016 YYYY=           -365.1606 ZZZZ=           -180.2848 XXXY=              0.0003
 XXXZ=              5.7376 YYYX=             -0.0002 YYYZ=             -0.0001 ZZZX=              1.7015
 ZZZY=              0.0000 XXYY=           -145.3666 XXZZ=           -125.4207 YYZZ=            -93.7755
 XXYZ=             -0.0002 YYXZ=              1.1529 ZZXY=              0.0000
 N-N= 3.366223998719D+02 E-N=-1.346796074019D+03  KE= 2.883181708044D+02
 1\1\GINC-ROCK\FOpt\RB3LYP\6-31+G(d,p)\C6H13N1\STYLIANAKIS\27-Mar-2016\
 0\\# opt b3lyp/6-31+g(d,p)\\N-methylpiperidine-ch-ax\\0,1\C,-1.1299763
 124,-1.0066625006,-0.99995757\C,-1.1502163048,0.5314892419,-0.99871360
 81\C,-0.4062283072,-1.5415775508,0.247587343\C,0.2745535014,1.08866873
 66,-0.8099371213\C,0.9859654374,-0.8936183188,0.3817927384\N,0.9726066
 766,0.5746248108,0.375155976\C,0.5257607587,1.1691076741,1.6307544371\
 H,-0.6011755862,-1.3574456143,-1.8991163529\H,-2.1487509833,-1.4084197
 334,-1.0600703787\H,-1.8022512214,0.8914415713,-0.1912744153\H,-1.5728
 951154,0.9141160505,-1.9366848494\H,-0.2999432212,-2.632844565,0.19570
 69548\H,-1.0059862325,-1.3272863666,1.1425964761\H,0.2609292315,2.1833
 678511,-0.754854389\H,0.8789724027,0.820600365,-1.6890927092\H,1.61136
 358,-1.2201423148,-0.4622195839\H,1.4860060851,-1.2302139802,1.2973514
 45\H,-0.523438228,0.9579887994,1.9059928003\H,1.1620296142,0.807774282
 4,2.4459198125\H,0.6418884247,2.2568887615,1.5747057946\\Version=EM64L
 -G09RevA.01\State=1-A\HF=-291.2360837\RMSD=2.839e-09\RMSF=2.356e-05\Di
 pole=-0.3419309,-0.1081194,0.0242692\Quadrupole=-1.910934,0.776384,1.1
 3455,-1.0902574,0.0295271,-0.0145481\PG=C01 [X(C6H13N1)]\\@


 The mind is not a vessel to be filled but a fire to be kindled.
                                  -- Plutarch
 Job cpu time:  0 days  0 hours 43 minutes 37.7 seconds.
 File lengths (MBytes):  RWF=     21 Int=      0 D2E=      0 Chk=      4 Scr=      1
 Normal termination of Gaussian 09 at Sun Mar 27 19:07:31 2016.
