 Entering Gaussian System, Link 0=g09
 Input=N-me-piperidine-sofa-ax.gjf
 Output=N-me-piperidine-sofa-ax.out
 Initial command:
 /usr/local/g09/l1.exe /home/scratch/stylianakis/Gau-16373.inp -scrdir=/home/scratch/stylianakis/
 Entering Link 1 = /usr/local/g09/l1.exe PID=     16374.
  
 Copyright (c) 1988,1990,1992,1993,1995,1998,2003,2009, Gaussian, Inc.
                  All Rights Reserved.
  
 This is part of the Gaussian(R) 09 program.  It is based on
 the Gaussian(R) 03 system (copyright 2003, Gaussian, Inc.),
 the Gaussian(R) 98 system (copyright 1998, Gaussian, Inc.),
 the Gaussian(R) 94 system (copyright 1995, Gaussian, Inc.),
 the Gaussian 92(TM) system (copyright 1992, Gaussian, Inc.),
 the Gaussian 90(TM) system (copyright 1990, Gaussian, Inc.),
 the Gaussian 88(TM) system (copyright 1988, Gaussian, Inc.),
 the Gaussian 86(TM) system (copyright 1986, Carnegie Mellon
 University), and the Gaussian 82(TM) system (copyright 1983,
 Carnegie Mellon University). Gaussian is a federally registered
 trademark of Gaussian, Inc.
  
 This software contains proprietary and confidential information,
 including trade secrets, belonging to Gaussian, Inc.
  
 This software is provided under written license and may be
 used, copied, transmitted, or stored only in accord with that
 written license.
  
 The following legend is applicable only to US Government
 contracts under FAR:
  
                    RESTRICTED RIGHTS LEGEND
  
 Use, reproduction and disclosure by the US Government is
 subject to restrictions as set forth in subparagraphs (a)
 and (c) of the Commercial Computer Software - Restricted
 Rights clause in FAR 52.227-19.
  
 Gaussian, Inc.
 340 Quinnipiac St., Bldg. 40, Wallingford CT 06492
  
  
 ---------------------------------------------------------------
 Warning -- This program may not be used in any manner that
 competes with the business of Gaussian, Inc. or will provide
 assistance to any competitor of Gaussian, Inc.  The licensee
 of this program is prohibited from giving any competitor of
 Gaussian, Inc. access to this program.  By using this program,
 the user acknowledges that Gaussian, Inc. is engaged in the
 business of creating and licensing software in the field of
 computational chemistry and represents and warrants to the
 licensee that it is not a competitor of Gaussian, Inc. and that
 it will not use this program in any manner prohibited above.
 ---------------------------------------------------------------
  

 Cite this work as:
 Gaussian 09, Revision A.01,
 M. J. Frisch, G. W. Trucks, H. B. Schlegel, G. E. Scuseria, 
 M. A. Robb, J. R. Cheeseman, G. Scalmani, V. Barone, B. Mennucci, 
 G. A. Petersson, H. Nakatsuji, M. Caricato, X. Li, H. P. Hratchian, 
 A. F. Izmaylov, J. Bloino, G. Zheng, J. L. Sonnenberg, M. Hada, 
 M. Ehara, K. Toyota, R. Fukuda, J. Hasegawa, M. Ishida, T. Nakajima, 
 Y. Honda, O. Kitao, H. Nakai, T. Vreven, J. A. Montgomery, Jr., 
 J. E. Peralta, F. Ogliaro, M. Bearpark, J. J. Heyd, E. Brothers, 
 K. N. Kudin, V. N. Staroverov, R. Kobayashi, J. Normand, 
 K. Raghavachari, A. Rendell, J. C. Burant, S. S. Iyengar, J. Tomasi, 
 M. Cossi, N. Rega, J. M. Millam, M. Klene, J. E. Knox, J. B. Cross, 
 V. Bakken, C. Adamo, J. Jaramillo, R. Gomperts, R. E. Stratmann, 
 O. Yazyev, A. J. Austin, R. Cammi, C. Pomelli, J. W. Ochterski, 
 R. L. Martin, K. Morokuma, V. G. Zakrzewski, G. A. Voth, 
 P. Salvador, J. J. Dannenberg, S. Dapprich, A. D. Daniels, 
 O. Farkas, J. B. Foresman, J. V. Ortiz, J. Cioslowski, 
 and D. J. Fox, Gaussian, Inc., Wallingford CT, 2009.
 
 ******************************************
 Gaussian 09:  EM64L-G09RevA.01  8-May-2009
                27-Mar-2016 
 ******************************************
 %mem=16000Mb
 %nproc=8
 Will use up to    8 processors via shared memory.
 -----------------------
 # opt b3lyp/6-31+g(d,p)
 -----------------------
 1/14=-1,18=20,19=15,26=3,38=1/1,3;
 2/9=110,12=2,17=6,18=5,40=1/2;
 3/5=1,6=6,7=111,11=2,16=1,25=1,30=1,71=1,74=-5/1,2,3;
 4//1;
 5/5=2,38=5/2;
 6/7=2,8=2,9=2,10=2,28=1/1;
 7//1,2,3,16;
 1/14=-1,18=20,19=15/3(2);
 2/9=110/2;
 99//99;
 2/9=110/2;
 3/5=1,6=6,7=111,11=2,16=1,25=1,30=1,71=1,74=-5/1,2,3;
 4/5=5,16=3/1;
 5/5=2,38=5/2;
 7//1,2,3,16;
 1/14=-1,18=20,19=15/3(-5);
 2/9=110/2;
 6/7=2,8=2,9=2,10=2,19=2,28=1/1;
 99/9=1/99;
 -----------------------
 N-me-piperidine-sofa-ax
 -----------------------
 Symbolic Z-matrix:
 Charge =  0 Multiplicity = 1
 C                    -1.3503   -0.84304  -0.26788 
 C                    -0.1653   -1.65504   0.28413 
 C                     0.9997   -0.87404   0.91813 
 C                     0.8547    0.65296   0.94913 
 N                     0.0947    1.20996  -0.15588 
 C                    -1.2573    0.68096  -0.11588 
 H                    -2.3143   -1.20404   0.16613 
 H                    -1.4323   -1.06404  -1.35888 
 H                     0.2237   -2.34204  -0.50588 
 H                    -0.5693   -2.34304   1.06612 
 H                     1.9217   -1.10904   0.33313 
 H                     1.2157   -1.25104   1.94713 
 H                     1.8597    1.13696   0.99813 
 H                     0.3527    0.94196   1.90413 
 C                     0.7397    0.99596  -1.44088 
 H                    -1.8833    1.18696  -0.88988 
 H                    -1.7203    0.96996   0.85913 
 H                     1.7527    1.46096  -1.44488 
 H                     0.8517   -0.08304  -1.69088 
 H                     0.1517    1.48296  -2.25287 
 

 GradGradGradGradGradGradGradGradGradGradGradGradGradGradGradGradGradGrad
 Berny optimization.
 Initialization pass.
                           ----------------------------
                           !    Initial Parameters    !
                           ! (Angstroms and Degrees)  !
 --------------------------                            --------------------------
 ! Name  Definition              Value          Derivative Info.                !
 --------------------------------------------------------------------------------
 ! R1    R(1,2)                  1.5389         estimate D2E/DX2                !
 ! R2    R(1,6)                  1.5344         estimate D2E/DX2                !
 ! R3    R(1,7)                  1.1171         estimate D2E/DX2                !
 ! R4    R(1,8)                  1.1162         estimate D2E/DX2                !
 ! R5    R(2,3)                  1.5392         estimate D2E/DX2                !
 ! R6    R(2,9)                  1.1169         estimate D2E/DX2                !
 ! R7    R(2,10)                 1.1172         estimate D2E/DX2                !
 ! R8    R(3,4)                  1.5342         estimate D2E/DX2                !
 ! R9    R(3,11)                 1.1169         estimate D2E/DX2                !
 ! R10   R(3,12)                 1.117          estimate D2E/DX2                !
 ! R11   R(4,5)                  1.4522         estimate D2E/DX2                !
 ! R12   R(4,13)                 1.1165         estimate D2E/DX2                !
 ! R13   R(4,14)                 1.1169         estimate D2E/DX2                !
 ! R14   R(5,6)                  1.4524         estimate D2E/DX2                !
 ! R15   R(5,15)                 1.4536         estimate D2E/DX2                !
 ! R16   R(6,16)                 1.1167         estimate D2E/DX2                !
 ! R17   R(6,17)                 1.1174         estimate D2E/DX2                !
 ! R18   R(15,18)                1.1146         estimate D2E/DX2                !
 ! R19   R(15,19)                1.1132         estimate D2E/DX2                !
 ! R20   R(15,20)                1.1146         estimate D2E/DX2                !
 ! A1    A(2,1,6)              116.2231         estimate D2E/DX2                !
 ! A2    A(2,1,7)              110.7697         estimate D2E/DX2                !
 ! A3    A(2,1,8)              107.6199         estimate D2E/DX2                !
 ! A4    A(6,1,7)              109.5592         estimate D2E/DX2                !
 ! A5    A(6,1,8)              107.3339         estimate D2E/DX2                !
 ! A6    A(7,1,8)              104.617          estimate D2E/DX2                !
 ! A7    A(1,2,3)              117.5702         estimate D2E/DX2                !
 ! A8    A(1,2,9)              109.8183         estimate D2E/DX2                !
 ! A9    A(1,2,10)             107.3112         estimate D2E/DX2                !
 ! A10   A(3,2,9)              109.8674         estimate D2E/DX2                !
 ! A11   A(3,2,10)             107.3295         estimate D2E/DX2                !
 ! A12   A(9,2,10)             104.0201         estimate D2E/DX2                !
 ! A13   A(2,3,4)              116.2199         estimate D2E/DX2                !
 ! A14   A(2,3,11)             107.5957         estimate D2E/DX2                !
 ! A15   A(2,3,12)             110.767          estimate D2E/DX2                !
 ! A16   A(4,3,11)             107.3384         estimate D2E/DX2                !
 ! A17   A(4,3,12)             109.6091         estimate D2E/DX2                !
 ! A18   A(11,3,12)            104.5877         estimate D2E/DX2                !
 ! A19   A(3,4,5)              114.5728         estimate D2E/DX2                !
 ! A20   A(3,4,13)             110.3201         estimate D2E/DX2                !
 ! A21   A(3,4,14)             108.4989         estimate D2E/DX2                !
 ! A22   A(5,4,13)             109.7666         estimate D2E/DX2                !
 ! A23   A(5,4,14)             108.4296         estimate D2E/DX2                !
 ! A24   A(13,4,14)            104.7652         estimate D2E/DX2                !
 ! A25   A(4,5,6)              109.0577         estimate D2E/DX2                !
 ! A26   A(4,5,15)             112.5793         estimate D2E/DX2                !
 ! A27   A(6,5,15)             112.568          estimate D2E/DX2                !
 ! A28   A(1,6,5)              114.5486         estimate D2E/DX2                !
 ! A29   A(1,6,16)             110.3296         estimate D2E/DX2                !
 ! A30   A(1,6,17)             108.5552         estimate D2E/DX2                !
 ! A31   A(5,6,16)             109.7378         estimate D2E/DX2                !
 ! A32   A(5,6,17)             108.3945         estimate D2E/DX2                !
 ! A33   A(16,6,17)            104.7926         estimate D2E/DX2                !
 ! A34   A(5,15,18)            110.1826         estimate D2E/DX2                !
 ! A35   A(5,15,19)            112.6966         estimate D2E/DX2                !
 ! A36   A(5,15,20)            110.2189         estimate D2E/DX2                !
 ! A37   A(18,15,19)           108.1864         estimate D2E/DX2                !
 ! A38   A(18,15,20)           107.1311         estimate D2E/DX2                !
 ! A39   A(19,15,20)           108.2386         estimate D2E/DX2                !
 ! D1    D(6,1,2,3)             -0.6261         estimate D2E/DX2                !
 ! D2    D(6,1,2,9)           -127.1873         estimate D2E/DX2                !
 ! D3    D(6,1,2,10)           120.3515         estimate D2E/DX2                !
 ! D4    D(7,1,2,3)           -126.4953         estimate D2E/DX2                !
 ! D5    D(7,1,2,9)            106.9435         estimate D2E/DX2                !
 ! D6    D(7,1,2,10)            -5.5177         estimate D2E/DX2                !
 ! D7    D(8,1,2,3)            119.6991         estimate D2E/DX2                !
 ! D8    D(8,1,2,9)             -6.8621         estimate D2E/DX2                !
 ! D9    D(8,1,2,10)          -119.3233         estimate D2E/DX2                !
 ! D10   D(2,1,6,5)             31.1516         estimate D2E/DX2                !
 ! D11   D(2,1,6,16)           155.5653         estimate D2E/DX2                !
 ! D12   D(2,1,6,17)           -90.1307         estimate D2E/DX2                !
 ! D13   D(7,1,6,5)            157.6288         estimate D2E/DX2                !
 ! D14   D(7,1,6,16)           -77.9575         estimate D2E/DX2                !
 ! D15   D(7,1,6,17)            36.3465         estimate D2E/DX2                !
 ! D16   D(8,1,6,5)            -89.3271         estimate D2E/DX2                !
 ! D17   D(8,1,6,16)            35.0866         estimate D2E/DX2                !
 ! D18   D(8,1,6,17)           149.3906         estimate D2E/DX2                !
 ! D19   D(1,2,3,4)              0.5936         estimate D2E/DX2                !
 ! D20   D(1,2,3,11)          -119.7171         estimate D2E/DX2                !
 ! D21   D(1,2,3,12)           126.5269         estimate D2E/DX2                !
 ! D22   D(9,2,3,4)            127.1309         estimate D2E/DX2                !
 ! D23   D(9,2,3,11)             6.8203         estimate D2E/DX2                !
 ! D24   D(9,2,3,12)          -106.9358         estimate D2E/DX2                !
 ! D25   D(10,2,3,4)          -120.3745         estimate D2E/DX2                !
 ! D26   D(10,2,3,11)          119.3149         estimate D2E/DX2                !
 ! D27   D(10,2,3,12)            5.5588         estimate D2E/DX2                !
 ! D28   D(2,3,4,5)            -31.0926         estimate D2E/DX2                !
 ! D29   D(2,3,4,13)          -155.5557         estimate D2E/DX2                !
 ! D30   D(2,3,4,14)            90.2095         estimate D2E/DX2                !
 ! D31   D(11,3,4,5)            89.3561         estimate D2E/DX2                !
 ! D32   D(11,3,4,13)          -35.107          estimate D2E/DX2                !
 ! D33   D(11,3,4,14)         -149.3418         estimate D2E/DX2                !
 ! D34   D(12,3,4,5)          -157.6071         estimate D2E/DX2                !
 ! D35   D(12,3,4,13)           77.9297         estimate D2E/DX2                !
 ! D36   D(12,3,4,14)          -36.305          estimate D2E/DX2                !
 ! D37   D(3,4,5,6)             61.5292         estimate D2E/DX2                !
 ! D38   D(3,4,5,15)           -64.1604         estimate D2E/DX2                !
 ! D39   D(13,4,5,6)          -173.715          estimate D2E/DX2                !
 ! D40   D(13,4,5,15)           60.5954         estimate D2E/DX2                !
 ! D41   D(14,4,5,6)           -59.8109         estimate D2E/DX2                !
 ! D42   D(14,4,5,15)          174.4995         estimate D2E/DX2                !
 ! D43   D(4,5,6,1)            -61.5545         estimate D2E/DX2                !
 ! D44   D(4,5,6,16)           173.7186         estimate D2E/DX2                !
 ! D45   D(4,5,6,17)            59.8161         estimate D2E/DX2                !
 ! D46   D(15,5,6,1)            64.1416         estimate D2E/DX2                !
 ! D47   D(15,5,6,16)          -60.5853         estimate D2E/DX2                !
 ! D48   D(15,5,6,17)         -174.4878         estimate D2E/DX2                !
 ! D49   D(4,5,15,18)          -59.0774         estimate D2E/DX2                !
 ! D50   D(4,5,15,19)           61.8651         estimate D2E/DX2                !
 ! D51   D(4,5,15,20)         -177.1            estimate D2E/DX2                !
 ! D52   D(6,5,15,18)          177.1586         estimate D2E/DX2                !
 ! D53   D(6,5,15,19)          -61.899          estimate D2E/DX2                !
 ! D54   D(6,5,15,20)           59.136          estimate D2E/DX2                !
 --------------------------------------------------------------------------------
 Trust Radius=3.00D-01 FncErr=1.00D-07 GrdErr=1.00D-06
 Number of steps in this run= 120 maximum allowed number of steps= 120.
 GradGradGradGradGradGradGradGradGradGradGradGradGradGradGradGradGradGrad

                          Input orientation:                          
 ---------------------------------------------------------------------
 Center     Atomic      Atomic             Coordinates (Angstroms)
 Number     Number       Type             X           Y           Z
 ---------------------------------------------------------------------
      1          6           0       -1.350304   -0.843036   -0.267875
      2          6           0       -0.165304   -1.655036    0.284125
      3          6           0        0.999696   -0.874036    0.918125
      4          6           0        0.854696    0.652964    0.949125
      5          7           0        0.094696    1.209964   -0.155875
      6          6           0       -1.257304    0.680964   -0.115875
      7          1           0       -2.314304   -1.204036    0.166125
      8          1           0       -1.432304   -1.064036   -1.358875
      9          1           0        0.223696   -2.342036   -0.505875
     10          1           0       -0.569304   -2.343036    1.066125
     11          1           0        1.921696   -1.109036    0.333125
     12          1           0        1.215696   -1.251036    1.947125
     13          1           0        1.859696    1.136964    0.998125
     14          1           0        0.352696    0.941964    1.904125
     15          6           0        0.739696    0.995964   -1.440875
     16          1           0       -1.883304    1.186964   -0.889875
     17          1           0       -1.720304    0.969964    0.859125
     18          1           0        1.752696    1.460964   -1.444875
     19          1           0        0.851696   -0.083036   -1.690875
     20          1           0        0.151696    1.482964   -2.252875
 ---------------------------------------------------------------------
                    Distance matrix (angstroms):
                    1          2          3          4          5
     1  C    0.000000
     2  C    1.538919   0.000000
     3  C    2.632500   1.539202   0.000000
     4  C    2.929357   2.609500   1.534182   0.000000
     5  N    2.513042   2.910228   2.513077   1.452196   0.000000
     6  C    1.534382   2.609475   2.929374   2.365492   1.452358
     7  H    1.117127   2.198983   3.414235   3.755542   3.425545
     8  H    1.116175   2.157318   3.336983   3.674959   2.991657
     9  H    2.186577   1.116866   2.187459   3.388984   3.571533
    10  H    2.153954   1.117177   2.154443   3.319259   3.815493
    11  H    3.337355   2.157797   1.116931   2.150021   2.992459
    12  H    3.414241   2.199078   1.116972   2.179803   3.425751
    13  H    3.978348   3.522170   2.188635   1.116549   2.110040
    14  H    3.286947   3.104373   2.165332   1.116938   2.093320
    15  C    3.020919   3.289749   3.021487   2.417224   1.453632
    16  H    2.189035   3.522324   3.978476   3.341215   2.109922
    17  H    2.166564   3.104718   3.286673   2.596000   2.093335
    18  H    4.040093   4.046927   3.406318   2.681512   2.115062
    19  H    2.729713   2.721415   2.730287   2.740676   2.145023
    20  H    3.406832   4.047703   4.041014   3.381703   2.115464
                    6          7          8          9         10
     6  C    0.000000
     7  H    2.179449   0.000000
     8  H    2.149581   1.767243   0.000000
     9  H    3.388804   2.861481   2.259033   0.000000
    10  H    3.318892   2.269878   2.874236   1.760691   0.000000
    11  H    3.675832   4.240355   3.756888   2.259959   2.874913
    12  H    3.755572   3.954121   4.239871   2.862089   2.270429
    13  H    3.341350   4.857446   4.608374   4.128190   4.244416
    14  H    2.596271   3.839121   4.225805   4.075463   3.513339
    15  C    2.417201   4.092599   2.994647   3.504672   4.375780
    16  H    1.116686   2.649109   2.343152   4.128044   4.244223
    17  H    1.117370   2.357830   3.023181   4.075746   3.513349
    18  H    3.381529   5.122308   4.065372   4.205041   5.115391
    19  H    2.740840   3.837792   2.507836   2.627107   3.837693
    20  H    2.682397   4.376378   3.129777   4.205689   5.116041
                   11         12         13         14         15
    11  H    0.000000
    12  H    1.767370   0.000000
    13  H    2.343200   2.649128   0.000000
    14  H    3.022648   2.357089   1.769155   0.000000
    15  C    2.995868   4.093181   2.687564   3.367746   0.000000
    16  H    4.609270   4.857593   4.192504   3.586943   2.687045
    17  H    4.226474   3.838838   3.586588   2.321667   3.367830
    18  H    3.129656   4.375954   2.466713   3.666765   1.114634
    19  H    2.508815   3.838198   3.120126   3.771426   1.113232
    20  H    4.066787   5.123168   3.688629   4.196872   1.114566
                   16         17         18         19         20
    16  H    0.000000
    17  H    1.769932   0.000000
    18  H    3.688305   4.196573   0.000000
    19  H    3.120052   3.771802   1.804509   0.000000
    20  H    2.467106   3.667710   1.793474   1.805048   0.000000
 Stoichiometry    C6H13N
 Framework group  C1[X(C6H13N)]
 Deg. of freedom    54
 Full point group                 C1      NOp   1
 Largest Abelian subgroup         C1      NOp   1
 Largest concise Abelian subgroup C1      NOp   1
                         Standard orientation:                         
 ---------------------------------------------------------------------
 Center     Atomic      Atomic             Coordinates (Angstroms)
 Number     Number       Type             X           Y           Z
 ---------------------------------------------------------------------
      1          6           0       -0.931697   -1.316419    0.069036
      2          6           0       -1.619648   -0.000504    0.473217
      3          6           0       -0.932457    1.316081    0.068845
      4          6           0        0.377797    1.182947   -0.718062
      5          7           0        1.157281    0.000366   -0.397466
      6          6           0        0.378243   -1.182545   -0.718659
      7          1           0       -1.638104   -1.977437   -0.489550
      8          1           0       -0.700766   -1.878402    1.005354
      9          1           0       -1.822480   -0.001050    1.571511
     10          1           0       -2.636369   -0.001066    0.010223
     11          1           0       -0.702236    1.878485    1.005987
     12          1           0       -1.639417    1.976684   -0.489221
     13          1           0        1.005303    2.096665   -0.583759
     14          1           0        0.135826    1.161514   -1.808264
     15          6           0        1.631346   -0.000015    0.976692
     16          1           0        1.006652   -2.095840   -0.584554
     17          1           0        0.136586   -1.160153   -1.809354
     18          1           0        2.265343    0.897196    1.165026
     19          1           0        0.800557   -0.000145    1.717687
     20          1           0        2.266644   -0.896277    1.164755
 ---------------------------------------------------------------------
 Rotational constants (GHZ):      3.3670586      2.7606035      2.1088102
 Standard basis: 6-31+G(d,p) (6D, 7F)
 There are   198 symmetry adapted basis functions of A   symmetry.
 Integral buffers will be    131072 words long.
 Raffenetti 2 integral format.
 Two-electron integral symmetry is turned on.
   198 basis functions,   315 primitive gaussians,   198 cartesian basis functions
    28 alpha electrons       28 beta electrons
       nuclear repulsion energy       337.7962058891 Hartrees.
 NAtoms=   20 NActive=   20 NUniq=   20 SFac= 7.50D-01 NAtFMM=   80 NAOKFM=F Big=F
 One-electron integrals computed using PRISM.
 NBasis=   198 RedAO= T  NBF=   198
 NBsUse=   198 1.00D-06 NBFU=   198
 Harris functional with IExCor=  402 diagonalized for initial guess.
 ExpMin= 4.38D-02 ExpMax= 4.17D+03 ExpMxC= 6.27D+02 IAcc=2 IRadAn=         0 AccDes= 0.00D+00
 HarFok:  IExCor=  402 AccDes= 0.00D+00 IRadAn=         0 IDoV= 1
 ScaDFX=  1.000000  1.000000  1.000000  1.000000
 FoFCou: FMM=F IPFlag=           0 FMFlag=      100000 FMFlg1=           0
         NFxFlg=           0 DoJE=T BraDBF=F KetDBF=T FulRan=T
         Omega=  0.000000  0.000000  1.000000  0.000000  0.000000 ICntrl=     500 IOpCl=  0
         NMat0=    1 NMatS0=    1 NMatT0=    0 NMatD0=    1 NMtDS0=    0 NMtDT0=    0
         I1Cent=           4 NGrid=           0.
 Petite list used in FoFCou.
 Initial guess orbital symmetries:
       Occupied  (A) (A) (A) (A) (A) (A) (A) (A) (A) (A) (A) (A)
                 (A) (A) (A) (A) (A) (A) (A) (A) (A) (A) (A) (A)
                 (A) (A) (A) (A)
       Virtual   (A) (A) (A) (A) (A) (A) (A) (A) (A) (A) (A) (A)
                 (A) (A) (A) (A) (A) (A) (A) (A) (A) (A) (A) (A)
                 (A) (A) (A) (A) (A) (A) (A) (A) (A) (A) (A) (A)
                 (A) (A) (A) (A) (A) (A) (A) (A) (A) (A) (A) (A)
                 (A) (A) (A) (A) (A) (A) (A) (A) (A) (A) (A) (A)
                 (A) (A) (A) (A) (A) (A) (A) (A) (A) (A) (A) (A)
                 (A) (A) (A) (A) (A) (A) (A) (A) (A) (A) (A) (A)
                 (A) (A) (A) (A) (A) (A) (A) (A) (A) (A) (A) (A)
                 (A) (A) (A) (A) (A) (A) (A) (A) (A) (A) (A) (A)
                 (A) (A) (A) (A) (A) (A) (A) (A) (A) (A) (A) (A)
                 (A) (A) (A) (A) (A) (A) (A) (A) (A) (A) (A) (A)
                 (A) (A) (A) (A) (A) (A) (A) (A) (A) (A) (A) (A)
                 (A) (A) (A) (A) (A) (A) (A) (A) (A) (A) (A) (A)
                 (A) (A) (A) (A) (A) (A) (A) (A) (A) (A) (A) (A)
                 (A) (A)
 The electronic state of the initial guess is 1-A.
 Requested convergence on RMS density matrix=1.00D-08 within 128 cycles.
 Requested convergence on MAX density matrix=1.00D-06.
 Requested convergence on             energy=1.00D-06.
 No special actions if energy rises.
 Keep R1 ints in memory in canonical form, NReq=198325355.
 SCF Done:  E(RB3LYP) =  -291.216055197     A.U. after   12 cycles
             Convg  =    0.3631D-08             -V/T =  2.0106

 **********************************************************************

            Population analysis using the SCF density.

 **********************************************************************

 Orbital symmetries:
       Occupied  (A) (A) (A) (A) (A) (A) (A) (A) (A) (A) (A) (A)
                 (A) (A) (A) (A) (A) (A) (A) (A) (A) (A) (A) (A)
                 (A) (A) (A) (A)
       Virtual   (A) (A) (A) (A) (A) (A) (A) (A) (A) (A) (A) (A)
                 (A) (A) (A) (A) (A) (A) (A) (A) (A) (A) (A) (A)
                 (A) (A) (A) (A) (A) (A) (A) (A) (A) (A) (A) (A)
                 (A) (A) (A) (A) (A) (A) (A) (A) (A) (A) (A) (A)
                 (A) (A) (A) (A) (A) (A) (A) (A) (A) (A) (A) (A)
                 (A) (A) (A) (A) (A) (A) (A) (A) (A) (A) (A) (A)
                 (A) (A) (A) (A) (A) (A) (A) (A) (A) (A) (A) (A)
                 (A) (A) (A) (A) (A) (A) (A) (A) (A) (A) (A) (A)
                 (A) (A) (A) (A) (A) (A) (A) (A) (A) (A) (A) (A)
                 (A) (A) (A) (A) (A) (A) (A) (A) (A) (A) (A) (A)
                 (A) (A) (A) (A) (A) (A) (A) (A) (A) (A) (A) (A)
                 (A) (A) (A) (A) (A) (A) (A) (A) (A) (A) (A) (A)
                 (A) (A) (A) (A) (A) (A) (A) (A) (A) (A) (A) (A)
                 (A) (A) (A) (A) (A) (A) (A) (A) (A) (A) (A) (A)
                 (A) (A)
 The electronic state is 1-A.
 Alpha  occ. eigenvalues --  -14.32556 -10.20811 -10.20805 -10.20679 -10.18861
 Alpha  occ. eigenvalues --  -10.18435 -10.18429  -0.92960  -0.78327  -0.74958
 Alpha  occ. eigenvalues --   -0.69974  -0.62246  -0.61519  -0.52936  -0.48387
 Alpha  occ. eigenvalues --   -0.46974  -0.46917  -0.42949  -0.40408  -0.40404
 Alpha  occ. eigenvalues --   -0.37944  -0.37701  -0.36559  -0.34444  -0.34110
 Alpha  occ. eigenvalues --   -0.31153  -0.29781  -0.20845
 Alpha virt. eigenvalues --   -0.00036   0.01739   0.02277   0.02552   0.04445
 Alpha virt. eigenvalues --    0.04555   0.05216   0.05570   0.05693   0.07279
 Alpha virt. eigenvalues --    0.08983   0.09172   0.09869   0.09917   0.10643
 Alpha virt. eigenvalues --    0.10647   0.13471   0.13619   0.14185   0.14680
 Alpha virt. eigenvalues --    0.15230   0.16418   0.17281   0.18341   0.19748
 Alpha virt. eigenvalues --    0.20201   0.21243   0.21489   0.23230   0.23383
 Alpha virt. eigenvalues --    0.24226   0.24754   0.25954   0.28042   0.28477
 Alpha virt. eigenvalues --    0.29204   0.29645   0.30206   0.30934   0.32829
 Alpha virt. eigenvalues --    0.33261   0.35885   0.36423   0.37552   0.38212
 Alpha virt. eigenvalues --    0.38925   0.41668   0.47890   0.62318   0.62759
 Alpha virt. eigenvalues --    0.65271   0.66223   0.68254   0.68537   0.70238
 Alpha virt. eigenvalues --    0.70425   0.70591   0.73437   0.74162   0.76331
 Alpha virt. eigenvalues --    0.77371   0.81623   0.82831   0.85223   0.86125
 Alpha virt. eigenvalues --    0.90878   0.93252   0.96045   0.96212   0.97099
 Alpha virt. eigenvalues --    0.99525   0.99947   1.02631   1.03652   1.04735
 Alpha virt. eigenvalues --    1.06089   1.09747   1.11153   1.11964   1.13783
 Alpha virt. eigenvalues --    1.14835   1.19625   1.30056   1.32606   1.34129
 Alpha virt. eigenvalues --    1.35721   1.36817   1.46600   1.47804   1.49377
 Alpha virt. eigenvalues --    1.55094   1.55881   1.71027   1.72571   1.73823
 Alpha virt. eigenvalues --    1.74633   1.75864   1.81104   1.81757   1.87746
 Alpha virt. eigenvalues --    1.88474   1.89248   1.93587   1.98236   1.98952
 Alpha virt. eigenvalues --    2.00857   2.01546   2.03495   2.07345   2.08886
 Alpha virt. eigenvalues --    2.09689   2.11219   2.11401   2.14668   2.14821
 Alpha virt. eigenvalues --    2.20880   2.21207   2.24559   2.27886   2.30836
 Alpha virt. eigenvalues --    2.35185   2.35858   2.37621   2.38556   2.41169
 Alpha virt. eigenvalues --    2.42847   2.46334   2.46741   2.51833   2.53014
 Alpha virt. eigenvalues --    2.56762   2.60501   2.61288   2.63748   2.65416
 Alpha virt. eigenvalues --    2.69564   2.71639   2.71757   2.73987   2.74302
 Alpha virt. eigenvalues --    2.78013   2.80005   2.86503   2.87215   2.87794
 Alpha virt. eigenvalues --    2.88713   2.92382   2.98387   3.01904   3.03723
 Alpha virt. eigenvalues --    3.21150   3.23747   3.27851   3.28937   3.31444
 Alpha virt. eigenvalues --    3.38979   3.40828   3.44068   3.44604   3.48986
 Alpha virt. eigenvalues --    3.51107   3.53447   3.57348   4.22073   4.41191
 Alpha virt. eigenvalues --    4.47171   4.58845   4.60914   4.71156   4.79537
          Condensed to atoms (all electrons):
              1          2          3          4          5          6
     1  C    5.926690  -0.116350   0.106687   0.026917  -0.139268  -0.125382
     2  C   -0.116350   5.680886  -0.115836   0.068450   0.018002   0.068701
     3  C    0.106687  -0.115836   5.926677  -0.125534  -0.139254   0.026743
     4  C    0.026917   0.068450  -0.125534   5.665952   0.243251  -0.304895
     5  N   -0.139268   0.018002  -0.139254   0.243251   7.093536   0.242772
     6  C   -0.125382   0.068701   0.026743  -0.304895   0.242772   5.666051
     7  H    0.378796  -0.049949   0.006060   0.003136   0.008995  -0.014112
     8  H    0.401331  -0.041936  -0.006086  -0.000908  -0.006101  -0.039501
     9  H   -0.046230   0.420361  -0.046169   0.006039  -0.004160   0.006084
    10  H   -0.038368   0.414106  -0.038228  -0.004384  -0.003834  -0.004336
    11  H   -0.006141  -0.041920   0.401238  -0.039463  -0.006101  -0.000891
    12  H    0.006115  -0.050082   0.378814  -0.013989   0.008972   0.003128
    13  H   -0.011187   0.024344  -0.107720   0.451619  -0.048643   0.013968
    14  H   -0.029955   0.024618  -0.102456   0.441427  -0.054186   0.013551
    15  C    0.001331   0.008557   0.001355  -0.105674   0.196610  -0.105633
    16  H   -0.107509   0.024317  -0.011178   0.013994  -0.048702   0.451395
    17  H   -0.102293   0.024576  -0.029914   0.013529  -0.054273   0.441410
    18  H   -0.008782   0.003056  -0.018353   0.010762  -0.057871   0.007043
    19  H    0.036408  -0.012078   0.036324  -0.031210  -0.083040  -0.031332
    20  H   -0.018329   0.003047  -0.008761   0.007001  -0.057793   0.010757
              7          8          9         10         11         12
     1  C    0.378796   0.401331  -0.046230  -0.038368  -0.006141   0.006115
     2  C   -0.049949  -0.041936   0.420361   0.414106  -0.041920  -0.050082
     3  C    0.006060  -0.006086  -0.046169  -0.038228   0.401238   0.378814
     4  C    0.003136  -0.000908   0.006039  -0.004384  -0.039463  -0.013989
     5  N    0.008995  -0.006101  -0.004160  -0.003834  -0.006101   0.008972
     6  C   -0.014112  -0.039501   0.006084  -0.004336  -0.000891   0.003128
     7  H    0.579466  -0.031728   0.003304  -0.013179  -0.000129   0.000061
     8  H   -0.031728   0.586033  -0.012617   0.004329   0.000003  -0.000129
     9  H    0.003304  -0.012617   0.572396  -0.032336  -0.012606   0.003301
    10  H   -0.013179   0.004329  -0.032336   0.581296   0.004322  -0.013158
    11  H   -0.000129   0.000003  -0.012606   0.004322   0.586240  -0.031749
    12  H    0.000061  -0.000129   0.003301  -0.013158  -0.031749   0.579423
    13  H    0.000019   0.000006  -0.000088  -0.000109  -0.008957   0.002295
    14  H   -0.000065   0.000036  -0.000178   0.000248   0.005202  -0.006654
    15  C   -0.003241   0.013457  -0.002983   0.004255   0.013474  -0.003250
    16  H    0.002288  -0.008942  -0.000088  -0.000109   0.000006   0.000019
    17  H   -0.006640   0.005193  -0.000178   0.000249   0.000036  -0.000065
    18  H    0.000005   0.000035   0.000002  -0.000005   0.000060   0.000020
    19  H   -0.000096  -0.002058   0.001291   0.000113  -0.002058  -0.000096
    20  H    0.000020   0.000060   0.000002  -0.000005   0.000035   0.000005
             13         14         15         16         17         18
     1  C   -0.011187  -0.029955   0.001331  -0.107509  -0.102293  -0.008782
     2  C    0.024344   0.024618   0.008557   0.024317   0.024576   0.003056
     3  C   -0.107720  -0.102456   0.001355  -0.011178  -0.029914  -0.018353
     4  C    0.451619   0.441427  -0.105674   0.013994   0.013529   0.010762
     5  N   -0.048643  -0.054186   0.196610  -0.048702  -0.054273  -0.057871
     6  C    0.013968   0.013551  -0.105633   0.451395   0.441410   0.007043
     7  H    0.000019  -0.000065  -0.003241   0.002288  -0.006640   0.000005
     8  H    0.000006   0.000036   0.013457  -0.008942   0.005193   0.000035
     9  H   -0.000088  -0.000178  -0.002983  -0.000088  -0.000178   0.000002
    10  H   -0.000109   0.000248   0.004255  -0.000109   0.000249  -0.000005
    11  H   -0.008957   0.005202   0.013474   0.000006   0.000036   0.000060
    12  H    0.002295  -0.006654  -0.003250   0.000019  -0.000065   0.000020
    13  H    0.584153  -0.026735  -0.009198  -0.000169   0.000310   0.004559
    14  H   -0.026735   0.589849   0.009697   0.000310   0.005547   0.000222
    15  C   -0.009198   0.009697   5.122243  -0.009174   0.009675   0.411652
    16  H   -0.000169   0.000310  -0.009174   0.584182  -0.026690   0.000267
    17  H    0.000310   0.005547   0.009675  -0.026690   0.589819  -0.000129
    18  H    0.004559   0.000222   0.411652   0.000267  -0.000129   0.570503
    19  H   -0.001296  -0.000396   0.418922  -0.001296  -0.000396  -0.041226
    20  H    0.000267  -0.000128   0.411642   0.004556   0.000221  -0.018051
             19         20
     1  C    0.036408  -0.018329
     2  C   -0.012078   0.003047
     3  C    0.036324  -0.008761
     4  C   -0.031210   0.007001
     5  N   -0.083040  -0.057793
     6  C   -0.031332   0.010757
     7  H   -0.000096   0.000020
     8  H   -0.002058   0.000060
     9  H    0.001291   0.000002
    10  H    0.000113  -0.000005
    11  H   -0.002058   0.000035
    12  H   -0.000096   0.000005
    13  H   -0.001296   0.000267
    14  H   -0.000396  -0.000128
    15  C    0.418922   0.411642
    16  H   -0.001296   0.004556
    17  H   -0.000396   0.000221
    18  H   -0.041226  -0.018051
    19  H    0.621338  -0.041191
    20  H   -0.041191   0.570370
 Mulliken atomic charges:
              1
     1  C   -0.134481
     2  C   -0.354870
     3  C   -0.134411
     4  C   -0.326020
     5  N   -0.108912
     6  C   -0.325520
     7  H    0.136989
     8  H    0.139523
     9  H    0.144853
    10  H    0.139130
    11  H    0.139399
    12  H    0.137018
    13  H    0.132560
    14  H    0.130048
    15  C   -0.383717
    16  H    0.132523
    17  H    0.130012
    18  H    0.136230
    19  H    0.133372
    20  H    0.136274
 Sum of Mulliken atomic charges =   0.00000
 Mulliken charges with hydrogens summed into heavy atoms:
              1
     1  C    0.142032
     2  C   -0.070888
     3  C    0.142006
     4  C   -0.063412
     5  N   -0.108912
     6  C   -0.062985
    15  C    0.022159
 Sum of Mulliken charges with hydrogens summed into heavy atoms =   0.00000
 Electronic spatial extent (au):  <R**2>=            749.9847
 Charge=              0.0000 electrons
 Dipole moment (field-independent basis, Debye):
    X=             -0.8311    Y=             -0.0006    Z=              0.5348  Tot=              0.9883
 Quadrupole moment (field-independent basis, Debye-Ang):
   XX=            -48.6531   YY=            -45.6222   ZZ=            -46.7864
   XY=             -0.0026   XZ=              2.6842   YZ=             -0.0024
 Traceless Quadrupole moment (field-independent basis, Debye-Ang):
   XX=             -1.6325   YY=              1.3984   ZZ=              0.2342
   XY=             -0.0026   XZ=              2.6842   YZ=             -0.0024
 Octapole moment (field-independent basis, Debye-Ang**2):
  XXX=             -1.4736  YYY=              0.0068  ZZZ=             -1.4172  XYY=              3.7420
  XXY=             -0.0083  XXZ=              3.4730  XZZ=             -1.6450  YZZ=             -0.0018
  YYZ=             -1.3859  XYZ=              0.0036
 Hexadecapole moment (field-independent basis, Debye-Ang**3):
 XXXX=           -476.2084 YYYY=           -385.1099 ZZZZ=           -214.0717 XXXY=             -0.0206
 XXXZ=             14.8511 YYYX=             -0.0024 YYYZ=             -0.0187 ZZZX=              0.0568
 ZZZY=             -0.0125 XXYY=           -137.5914 XXZZ=           -117.1428 YYZZ=            -99.5516
 XXYZ=             -0.0064 YYXZ=              2.9162 ZZXY=              0.0019
 N-N= 3.377962058891D+02 E-N=-1.348961592877D+03  KE= 2.881547339678D+02
 Calling FoFJK, ICntrl=      2127 FMM=F ISym2X=0 I1Cent= 0 IOpClX= 0 NMat=1 NMatS=1 NMatT=0.
 ***** Axes restored to original set *****
 -------------------------------------------------------------------
 Center     Atomic                   Forces (Hartrees/Bohr)
 Number     Number              X              Y              Z
 -------------------------------------------------------------------
      1        6          -0.016837111   -0.009084659   -0.023871280
      2        6          -0.007598405   -0.025237040    0.014454558
      3        6           0.029282107   -0.010055356   -0.001263508
      4        6           0.005748612    0.009804383    0.022089341
      5        7           0.000295569    0.006213420   -0.000600434
      6        6          -0.020871505    0.010266636    0.008696482
      7        1           0.011112450    0.005124730   -0.004139535
      8        1          -0.000443301    0.001487884    0.010614904
      9        1          -0.003966866    0.009906303    0.008266903
     10        1           0.004589524    0.006328451   -0.008854819
     11        1          -0.008569373    0.001684548    0.006874687
     12        1          -0.003188130    0.005348208   -0.011246410
     13        1          -0.010110734   -0.005621157   -0.002788344
     14        1           0.001632198    0.000136150   -0.011346791
     15        6           0.006598703    0.003725518   -0.012619215
     16        1           0.008119164   -0.005922454    0.006504397
     17        1           0.008174356   -0.000102837   -0.008301014
     18        1          -0.010552960   -0.005277711    0.001315406
     19        1           0.001545368    0.006796458   -0.002999400
     20        1           0.005040334   -0.005521477    0.009214074
 -------------------------------------------------------------------
 Cartesian Forces:  Max     0.029282107 RMS     0.010060605

 GradGradGradGradGradGradGradGradGradGradGradGradGradGradGradGradGradGrad
 Berny optimization.
 Internal  Forces:  Max     0.013316193 RMS     0.004676502
 Search for a local minimum.
 Step number   1 out of a maximum of  120
 All quantities printed in internal units (Hartrees-Bohrs-Radians)
 Mixed Optimization -- RFO/linear search
 Second derivative matrix not updated -- first step.
     Eigenvalues ---    0.00262   0.00445   0.00982   0.01109   0.02017
     Eigenvalues ---    0.02098   0.03014   0.03360   0.03622   0.04538
     Eigenvalues ---    0.04737   0.04844   0.05044   0.05674   0.06264
     Eigenvalues ---    0.07170   0.07528   0.07552   0.08776   0.08977
     Eigenvalues ---    0.09097   0.09185   0.09855   0.09884   0.10131
     Eigenvalues ---    0.12774   0.12965   0.15348   0.16000   0.16000
     Eigenvalues ---    0.16000   0.16198   0.19637   0.21917   0.27626
     Eigenvalues ---    0.27711   0.28717   0.29028   0.31832   0.31852
     Eigenvalues ---    0.31857   0.31873   0.31876   0.31877   0.31884
     Eigenvalues ---    0.31902   0.31916   0.31955   0.32114   0.32121
     Eigenvalues ---    0.32260   0.36162   0.36545   0.377731000.00000
     Eigenvalues --- 1000.000001000.000001000.000001000.000001000.00000
     Eigenvalues --- 1000.000001000.000001000.000001000.000001000.00000
     Eigenvalues --- 1000.000001000.000001000.000001000.000001000.00000
     Eigenvalues --- 1000.000001000.000001000.000001000.000001000.00000
     Eigenvalues --- 1000.000001000.000001000.000001000.000001000.00000
     Eigenvalues --- 1000.000001000.000001000.000001000.000001000.00000
     Eigenvalues --- 1000.000001000.000001000.000001000.000001000.00000
     Eigenvalues --- 1000.000001000.000001000.000001000.000001000.00000
     Eigenvalues --- 1000.000001000.000001000.000001000.000001000.00000
     Eigenvalues --- 1000.000001000.000001000.000001000.000001000.00000
     Eigenvalues --- 1000.000001000.000001000.000001000.000001000.00000
     Eigenvalues --- 1000.000001000.000001000.00000
 RFO step:  Lambda=-1.10629822D-02 EMin= 2.62340075D-03
 Linear search not attempted -- first point.
 Maximum step size (   0.300) exceeded in Quadratic search.
    -- Step size scaled by   0.832
 Iteration  1 RMS(Cart)=  0.04687811 RMS(Int)=  0.00112140
 Iteration  2 RMS(Cart)=  0.00131475 RMS(Int)=  0.00022275
 Iteration  3 RMS(Cart)=  0.00000117 RMS(Int)=  0.00022275
 Iteration  4 RMS(Cart)=  0.00000000 RMS(Int)=  0.00022275
 Variable       Old X    -DE/DX   Delta X   Delta X   Delta X     New X
                                 (Linear)    (Quad)   (Total)
    R1        2.90814   0.01149   0.00000   0.03205   0.03191   2.94005
    R2        2.89956   0.00768   0.00000   0.02120   0.02122   2.92078
    R3        2.11106  -0.01286   0.00000  -0.03245  -0.03245   2.07862
    R4        2.10926  -0.01063   0.00000  -0.02676  -0.02676   2.08250
    R5        2.90867   0.01132   0.00000   0.03160   0.03146   2.94013
    R6        2.11057  -0.01332   0.00000  -0.03358  -0.03358   2.07699
    R7        2.11116  -0.01176   0.00000  -0.02969  -0.02969   2.08147
    R8        2.89918   0.00779   0.00000   0.02152   0.02154   2.92072
    R9        2.11069  -0.01103   0.00000  -0.02781  -0.02781   2.08288
   R10        2.11077  -0.01278   0.00000  -0.03225  -0.03225   2.07852
   R11        2.74425   0.00534   0.00000   0.01145   0.01158   2.75584
   R12        2.10997  -0.01166   0.00000  -0.02938  -0.02938   2.08059
   R13        2.11071  -0.01040   0.00000  -0.02623  -0.02623   2.08448
   R14        2.74456   0.00532   0.00000   0.01142   0.01155   2.75611
   R15        2.74697   0.00568   0.00000   0.01216   0.01216   2.75913
   R16        2.11023  -0.01175   0.00000  -0.02961  -0.02961   2.08062
   R17        2.11152  -0.01065   0.00000  -0.02691  -0.02691   2.08461
   R18        2.10635  -0.01180   0.00000  -0.02954  -0.02954   2.07681
   R19        2.10370  -0.00577   0.00000  -0.01438  -0.01438   2.08932
   R20        2.10622  -0.01178   0.00000  -0.02951  -0.02951   2.07672
    A1        2.02848  -0.00291   0.00000  -0.00999  -0.01094   2.01753
    A2        1.93330   0.00009   0.00000  -0.01196  -0.01227   1.92103
    A3        1.87832   0.00223   0.00000   0.02185   0.02197   1.90029
    A4        1.91217  -0.00027   0.00000  -0.02042  -0.02059   1.89158
    A5        1.87333   0.00178   0.00000   0.02341   0.02355   1.89688
    A6        1.82591  -0.00056   0.00000   0.00072   0.00091   1.82682
    A7        2.05199   0.00122   0.00000   0.00476   0.00339   2.05538
    A8        1.91669  -0.00129   0.00000  -0.02561  -0.02572   1.89097
    A9        1.87293   0.00056   0.00000   0.02338   0.02319   1.89613
   A10        1.91755  -0.00138   0.00000  -0.02626  -0.02636   1.89119
   A11        1.87325   0.00052   0.00000   0.02306   0.02287   1.89613
   A12        1.81549   0.00041   0.00000   0.00388   0.00424   1.81974
   A13        2.02842  -0.00289   0.00000  -0.00991  -0.01088   2.01754
   A14        1.87790   0.00223   0.00000   0.02204   0.02215   1.90005
   A15        1.93325   0.00010   0.00000  -0.01205  -0.01237   1.92087
   A16        1.87341   0.00178   0.00000   0.02357   0.02371   1.89712
   A17        1.91304  -0.00032   0.00000  -0.02092  -0.02109   1.89195
   A18        1.82540  -0.00054   0.00000   0.00098   0.00118   1.82658
   A19        1.99967   0.00255   0.00000   0.00884   0.00867   2.00835
   A20        1.92545  -0.00074   0.00000  -0.00274  -0.00264   1.92281
   A21        1.89366   0.00202   0.00000   0.01819   0.01825   1.91192
   A22        1.91579  -0.00194   0.00000  -0.01208  -0.01206   1.90373
   A23        1.89245  -0.00329   0.00000  -0.02516  -0.02515   1.86731
   A24        1.82850   0.00131   0.00000   0.01342   0.01319   1.84169
   A25        1.90342  -0.00114   0.00000  -0.00114  -0.00160   1.90182
   A26        1.96488   0.00141   0.00000   0.01988   0.01959   1.98446
   A27        1.96468   0.00143   0.00000   0.02008   0.01978   1.98446
   A28        1.99925   0.00259   0.00000   0.00910   0.00893   2.00818
   A29        1.92561  -0.00078   0.00000  -0.00286  -0.00277   1.92285
   A30        1.89465   0.00194   0.00000   0.01745   0.01752   1.91216
   A31        1.91529  -0.00191   0.00000  -0.01172  -0.01169   1.90360
   A32        1.89184  -0.00323   0.00000  -0.02471  -0.02469   1.86715
   A33        1.82898   0.00130   0.00000   0.01313   0.01291   1.84189
   A34        1.92305  -0.00269   0.00000  -0.01404  -0.01410   1.90895
   A35        1.96693   0.00804   0.00000   0.04127   0.04132   2.00825
   A36        1.92368  -0.00277   0.00000  -0.01460  -0.01465   1.90903
   A37        1.88821  -0.00220   0.00000  -0.00850  -0.00846   1.87975
   A38        1.86979   0.00158   0.00000   0.00333   0.00314   1.87293
   A39        1.88912  -0.00224   0.00000  -0.00901  -0.00895   1.88017
    D1       -0.01093  -0.00314   0.00000  -0.09213  -0.09207  -0.10300
    D2       -2.21984  -0.00104   0.00000  -0.03573  -0.03577  -2.25561
    D3        2.10053  -0.00118   0.00000  -0.03995  -0.03982   2.06072
    D4       -2.20776  -0.00044   0.00000  -0.04504  -0.04506  -2.25282
    D5        1.86652   0.00165   0.00000   0.01135   0.01124   1.87776
    D6       -0.09630   0.00151   0.00000   0.00714   0.00720  -0.08910
    D7        2.08914  -0.00106   0.00000  -0.05187  -0.05186   2.03728
    D8       -0.11977   0.00104   0.00000   0.00452   0.00444  -0.11533
    D9       -2.08258   0.00090   0.00000   0.00031   0.00040  -2.08219
   D10        0.54370   0.00249   0.00000   0.04836   0.04831   0.59200
   D11        2.71513   0.00128   0.00000   0.03731   0.03721   2.75234
   D12       -1.57308   0.00349   0.00000   0.06119   0.06114  -1.51194
   D13        2.75114   0.00004   0.00000   0.00599   0.00612   2.75726
   D14       -1.36061  -0.00118   0.00000  -0.00506  -0.00497  -1.36559
   D15        0.63437   0.00104   0.00000   0.01882   0.01895   0.65332
   D16       -1.55905   0.00017   0.00000   0.00897   0.00897  -1.55009
   D17        0.61238  -0.00104   0.00000  -0.00208  -0.00213   0.61025
   D18        2.60736   0.00117   0.00000   0.02180   0.02179   2.62915
   D19        0.01036   0.00316   0.00000   0.09246   0.09240   0.10276
   D20       -2.08946   0.00105   0.00000   0.05182   0.05181  -2.03765
   D21        2.20831   0.00041   0.00000   0.04463   0.04465   2.25296
   D22        2.21885   0.00110   0.00000   0.03637   0.03641   2.25526
   D23        0.11904  -0.00100   0.00000  -0.00427  -0.00419   0.11485
   D24       -1.86638  -0.00164   0.00000  -0.01146  -0.01135  -1.87773
   D25       -2.10093   0.00118   0.00000   0.04011   0.03998  -2.06096
   D26        2.08244  -0.00092   0.00000  -0.00053  -0.00062   2.08182
   D27        0.09702  -0.00157   0.00000  -0.00772  -0.00778   0.08924
   D28       -0.54267  -0.00252   0.00000  -0.04897  -0.04892  -0.59159
   D29       -2.71496  -0.00127   0.00000  -0.03734  -0.03724  -2.75220
   D30        1.57445  -0.00356   0.00000  -0.06201  -0.06196   1.51249
   D31        1.55956  -0.00017   0.00000  -0.00919  -0.00918   1.55038
   D32       -0.61273   0.00108   0.00000   0.00244   0.00250  -0.61023
   D33       -2.60651  -0.00121   0.00000  -0.02223  -0.02222  -2.62873
   D34       -2.75076  -0.00003   0.00000  -0.00605  -0.00619  -2.75695
   D35        1.36013   0.00121   0.00000   0.00558   0.00549   1.36562
   D36       -0.63364  -0.00107   0.00000  -0.01909  -0.01923  -0.65287
   D37        1.07389   0.00087   0.00000  -0.00042  -0.00056   1.07333
   D38       -1.11981  -0.00115   0.00000  -0.04010  -0.04013  -1.15994
   D39       -3.03190   0.00024   0.00000  -0.00713  -0.00729  -3.03919
   D40        1.05759  -0.00177   0.00000  -0.04681  -0.04687   1.01072
   D41       -1.04390  -0.00100   0.00000  -0.01117  -0.01112  -1.05502
   D42        3.04559  -0.00302   0.00000  -0.05084  -0.05069   2.99490
   D43       -1.07433  -0.00087   0.00000   0.00067   0.00080  -1.07353
   D44        3.03196  -0.00024   0.00000   0.00705   0.00721   3.03918
   D45        1.04399   0.00096   0.00000   0.01097   0.01092   1.05491
   D46        1.11948   0.00113   0.00000   0.04023   0.04026   1.15974
   D47       -1.05741   0.00176   0.00000   0.04662   0.04667  -1.01074
   D48       -3.04539   0.00297   0.00000   0.05053   0.05038  -2.99501
   D49       -1.03109  -0.00037   0.00000   0.00785   0.00811  -1.02299
   D50        1.07975   0.00038   0.00000   0.01508   0.01524   1.09499
   D51       -3.09098   0.00103   0.00000   0.02131   0.02137  -3.06961
   D52        3.09200  -0.00106   0.00000  -0.02171  -0.02178   3.07022
   D53       -1.08034  -0.00031   0.00000  -0.01448  -0.01464  -1.09498
   D54        1.03212   0.00033   0.00000  -0.00825  -0.00851   1.02361
         Item               Value     Threshold  Converged?
 Maximum Force            0.013316     0.000450     NO 
 RMS     Force            0.004677     0.000300     NO 
 Maximum Displacement     0.189760     0.001800     NO 
 RMS     Displacement     0.046723     0.001200     NO 
 Predicted change in Energy=-5.870346D-03
 GradGradGradGradGradGradGradGradGradGradGradGradGradGradGradGradGradGrad

                          Input orientation:                          
 ---------------------------------------------------------------------
 Center     Atomic      Atomic             Coordinates (Angstroms)
 Number     Number       Type             X           Y           Z
 ---------------------------------------------------------------------
      1          6           0       -1.362125   -0.869322   -0.280178
      2          6           0       -0.193679   -1.688661    0.339461
      3          6           0        1.016097   -0.900918    0.919614
      4          6           0        0.861765    0.636737    0.944329
      5          7           0        0.098679    1.199069   -0.163912
      6          6           0       -1.257885    0.664904   -0.124638
      7          1           0       -2.321145   -1.196920    0.147448
      8          1           0       -1.437683   -1.111092   -1.352684
      9          1           0        0.181060   -2.387012   -0.422040
     10          1           0       -0.600504   -2.340459    1.128690
     11          1           0        1.918427   -1.156186    0.340380
     12          1           0        1.234901   -1.244365    1.941356
     13          1           0        1.851810    1.117102    0.979865
     14          1           0        0.352244    0.941578    1.873951
     15          6           0        0.751108    1.049229   -1.461481
     16          1           0       -1.864447    1.166632   -0.894439
     17          1           0       -1.695942    0.968799    0.841097
     18          1           0        1.735131    1.537809   -1.433376
     19          1           0        0.903537    0.005011   -1.791292
     20          1           0        0.154579    1.559352   -2.230651
 ---------------------------------------------------------------------
                    Distance matrix (angstroms):
                    1          2          3          4          5
     1  C    0.000000
     2  C    1.555808   0.000000
     3  C    2.663914   1.555852   0.000000
     4  C    2.951833   2.624367   1.545578   0.000000
     5  N    2.534898   2.945818   2.534882   1.458326   0.000000
     6  C    1.545609   2.624346   2.951822   2.374111   1.458472
     7  H    1.099956   2.191983   3.438174   3.758754   3.419540
     8  H    1.102012   2.178185   3.350902   3.690344   3.018349
     9  H    2.169085   1.099094   2.169285   3.387238   3.596302
    10  H    2.174678   1.101467   2.174716   3.322035   3.832484
    11  H    3.351030   2.178192   1.102212   2.166994   3.018778
    12  H    3.438083   2.191872   1.099904   2.161444   3.419580
    13  H    3.982834   3.530786   2.185052   1.101000   2.094854
    14  H    3.295253   3.093679   2.178590   1.103058   2.069658
    15  C    3.089024   3.410580   3.089159   2.443423   1.460068
    16  H    2.185121   3.530818   3.982849   3.330779   2.094895
    17  H    2.178848   3.093627   3.295021   2.581238   2.069718
    18  H    4.088660   4.156124   3.464240   2.688527   2.098632
    19  H    2.860270   2.934709   2.860487   2.807925   2.173001
    20  H    3.464562   4.156483   4.088925   3.381098   2.098651
                    6          7          8          9         10
     6  C    0.000000
     7  H    2.161235   0.000000
     8  H    2.166700   1.743063   0.000000
     9  H    3.387211   2.828722   2.261503   0.000000
    10  H    3.321925   2.287165   2.892997   1.737174   0.000000
    11  H    3.690741   4.244155   3.759251   2.261561   2.892913
    12  H    3.758673   3.983192   4.243956   2.828756   2.287041
    13  H    3.330858   4.843673   4.607212   4.127415   4.241547
    14  H    2.581361   3.834188   4.222377   4.047270   3.497844
    15  C    2.443545   4.131897   3.077277   3.634989   4.475022
    16  H    1.101019   2.623067   2.362234   4.127426   4.241497
    17  H    1.103128   2.358467   3.034028   4.047236   3.497697
    18  H    3.381258   5.141120   4.133998   4.340755   5.201955
    19  H    2.808014   3.949927   2.630470   2.849315   4.036045
    20  H    2.688937   4.402453   3.230696   4.341147   5.202292
                   11         12         13         14         15
    11  H    0.000000
    12  H    1.743017   0.000000
    13  H    2.362460   2.623275   0.000000
    14  H    3.034038   2.358384   1.754678   0.000000
    15  C    3.077855   4.132061   2.678865   3.360920   0.000000
    16  H    4.607646   4.843614   4.162455   3.553639   2.678890
    17  H    4.222552   3.833863   3.553561   2.294034   3.361010
    18  H    3.230700   4.402220   2.452415   3.634044   1.099000
    19  H    2.631046   3.950114   3.132935   3.822968   1.105623
    20  H    4.134671   5.141358   3.658359   4.155535   1.098952
                   16         17         18         19         20
    16  H    0.000000
    17  H    1.754884   0.000000
    18  H    3.658578   4.155630   0.000000
    19  H    3.132962   3.823042   1.780203   0.000000
    20  H    2.452786   3.634394   1.770383   1.780435   0.000000
 Stoichiometry    C6H13N
 Framework group  C1[X(C6H13N)]
 Deg. of freedom    54
 Full point group                 C1      NOp   1
 Largest Abelian subgroup         C1      NOp   1
 Largest concise Abelian subgroup C1      NOp   1
                         Standard orientation:                         
 ---------------------------------------------------------------------
 Center     Atomic      Atomic             Coordinates (Angstroms)
 Number     Number       Type             X           Y           Z
 ---------------------------------------------------------------------
      1          6           0       -0.945317   -1.331974    0.096918
      2          6           0       -1.665544   -0.000048    0.454383
      3          6           0       -0.945417    1.331940    0.096753
      4          6           0        0.363301    1.187053   -0.712615
      5          7           0        1.152368    0.000046   -0.404227
      6          6           0        0.363237   -1.187058   -0.712769
      7          1           0       -1.626657   -1.991721   -0.460229
      8          1           0       -0.725703   -1.879538    1.027710
      9          1           0       -1.877695   -0.000126    1.532807
     10          1           0       -2.660599   -0.000120   -0.017946
     11          1           0       -0.726264    1.879714    1.027767
     12          1           0       -1.626949    1.991471   -0.460313
     13          1           0        0.992009    2.081259   -0.581002
     14          1           0        0.128595    1.147173   -1.789676
     15          6           0        1.709511   -0.000021    0.945362
     16          1           0        0.992090   -2.081196   -0.581224
     17          1           0        0.128506   -1.146861   -1.789884
     18          1           0        2.347221    0.885366    1.076581
     19          1           0        0.962510   -0.000074    1.760464
     20          1           0        2.347725   -0.885017    1.076354
 ---------------------------------------------------------------------
 Rotational constants (GHZ):      3.3733329      2.6869398      2.0442309
 Standard basis: 6-31+G(d,p) (6D, 7F)
 There are   198 symmetry adapted basis functions of A   symmetry.
 Integral buffers will be    131072 words long.
 Raffenetti 2 integral format.
 Two-electron integral symmetry is turned on.
   198 basis functions,   315 primitive gaussians,   198 cartesian basis functions
    28 alpha electrons       28 beta electrons
       nuclear repulsion energy       335.9682142227 Hartrees.
 NAtoms=   20 NActive=   20 NUniq=   20 SFac= 7.50D-01 NAtFMM=   80 NAOKFM=F Big=F
 One-electron integrals computed using PRISM.
 NBasis=   198 RedAO= T  NBF=   198
 NBsUse=   198 1.00D-06 NBFU=   198
 Initial guess read from the read-write file.
 B after Tr=     0.000000    0.000000    0.000000
         Rot=    1.000000    0.000000    0.000000    0.000000 Ang=   0.00 deg.
 Initial guess orbital symmetries:
       Occupied  (A) (A) (A) (A) (A) (A) (A) (A) (A) (A) (A) (A)
                 (A) (A) (A) (A) (A) (A) (A) (A) (A) (A) (A) (A)
                 (A) (A) (A) (A)
       Virtual   (A) (A) (A) (A) (A) (A) (A) (A) (A) (A) (A) (A)
                 (A) (A) (A) (A) (A) (A) (A) (A) (A) (A) (A) (A)
                 (A) (A) (A) (A) (A) (A) (A) (A) (A) (A) (A) (A)
                 (A) (A) (A) (A) (A) (A) (A) (A) (A) (A) (A) (A)
                 (A) (A) (A) (A) (A) (A) (A) (A) (A) (A) (A) (A)
                 (A) (A) (A) (A) (A) (A) (A) (A) (A) (A) (A) (A)
                 (A) (A) (A) (A) (A) (A) (A) (A) (A) (A) (A) (A)
                 (A) (A) (A) (A) (A) (A) (A) (A) (A) (A) (A) (A)
                 (A) (A) (A) (A) (A) (A) (A) (A) (A) (A) (A) (A)
                 (A) (A) (A) (A) (A) (A) (A) (A) (A) (A) (A) (A)
                 (A) (A) (A) (A) (A) (A) (A) (A) (A) (A) (A) (A)
                 (A) (A) (A) (A) (A) (A) (A) (A) (A) (A) (A) (A)
                 (A) (A) (A) (A) (A) (A) (A) (A) (A) (A) (A) (A)
                 (A) (A) (A) (A) (A) (A) (A) (A) (A) (A) (A) (A)
                 (A) (A)
 Harris functional with IExCor=  402 diagonalized for initial guess.
 ExpMin= 4.38D-02 ExpMax= 4.17D+03 ExpMxC= 6.27D+02 IAcc=2 IRadAn=         0 AccDes= 0.00D+00
 HarFok:  IExCor=  402 AccDes= 0.00D+00 IRadAn=         0 IDoV= 1
 ScaDFX=  1.000000  1.000000  1.000000  1.000000
 FoFCou: FMM=F IPFlag=           0 FMFlag=      100000 FMFlg1=           0
         NFxFlg=           0 DoJE=T BraDBF=F KetDBF=T FulRan=T
         Omega=  0.000000  0.000000  1.000000  0.000000  0.000000 ICntrl=     500 IOpCl=  0
         NMat0=    1 NMatS0=    1 NMatT0=    0 NMatD0=    1 NMtDS0=    0 NMtDT0=    0
         I1Cent=           4 NGrid=           0.
 Petite list used in FoFCou.
 Requested convergence on RMS density matrix=1.00D-08 within 128 cycles.
 Requested convergence on MAX density matrix=1.00D-06.
 Requested convergence on             energy=1.00D-06.
 No special actions if energy rises.
 Keep R1 ints in memory in canonical form, NReq=198325355.
 SCF Done:  E(RB3LYP) =  -291.221779539     A.U. after   10 cycles
             Convg  =    0.9012D-08             -V/T =  2.0103
 Calling FoFJK, ICntrl=      2127 FMM=F ISym2X=0 I1Cent= 0 IOpClX= 0 NMat=1 NMatS=1 NMatT=0.
 ***** Axes restored to original set *****
 -------------------------------------------------------------------
 Center     Atomic                   Forces (Hartrees/Bohr)
 Number     Number              X              Y              Z
 -------------------------------------------------------------------
      1        6          -0.003691152   -0.001562552   -0.008257019
      2        6          -0.003041633   -0.007116813    0.005819209
      3        6           0.008884324   -0.001841179   -0.002098707
      4        6           0.001602854    0.002702872    0.007556964
      5        7           0.000959247   -0.000098444   -0.002014985
      6        6          -0.006875275    0.002855193    0.003240347
      7        1           0.002219444    0.000794165   -0.000325143
      8        1           0.001647609    0.001215628    0.002860667
      9        1          -0.000652129    0.001935307    0.001373297
     10        1           0.000825950    0.003395900   -0.001547612
     11        1          -0.003341084    0.001335447    0.000442282
     12        1          -0.001043374    0.000863105   -0.001929104
     13        1          -0.001743367   -0.001988404   -0.001291954
     14        1          -0.000142245   -0.000687056   -0.003040855
     15        6           0.001319600    0.003094709   -0.002418647
     16        1           0.002026133   -0.002047059    0.000633999
     17        1           0.002515137   -0.000746800   -0.001749439
     18        1          -0.001858774   -0.001249520    0.000633085
     19        1          -0.000160620    0.000440513    0.000281381
     20        1           0.000549356   -0.001295014    0.001832235
 -------------------------------------------------------------------
 Cartesian Forces:  Max     0.008884324 RMS     0.002958864

 GradGradGradGradGradGradGradGradGradGradGradGradGradGradGradGradGradGrad
 Berny optimization.
 Using GEDIIS/GDIIS optimizer.
 Internal  Forces:  Max     0.003427873 RMS     0.001081263
 Search for a local minimum.
 Step number   2 out of a maximum of  120
 All quantities printed in internal units (Hartrees-Bohrs-Radians)
 Mixed Optimization -- RFO/linear search
 Update second derivatives using D2CorX and points    1    2
 DE= -5.72D-03 DEPred=-5.87D-03 R= 9.75D-01
 SS=  1.41D+00  RLast= 3.00D-01 DXNew= 5.0454D-01 8.9992D-01
 Trust test= 9.75D-01 RLast= 3.00D-01 DXMaxT set to 5.05D-01
 Use linear search instead of GDIIS.
     Eigenvalues ---    0.00258   0.00456   0.00982   0.01102   0.02058
     Eigenvalues ---    0.02125   0.03086   0.03381   0.03690   0.04412
     Eigenvalues ---    0.04696   0.04812   0.05046   0.05625   0.06128
     Eigenvalues ---    0.06933   0.07589   0.07675   0.08833   0.08854
     Eigenvalues ---    0.08942   0.09211   0.09954   0.10036   0.10118
     Eigenvalues ---    0.12730   0.12953   0.15508   0.15949   0.16000
     Eigenvalues ---    0.16241   0.16510   0.19465   0.21944   0.27605
     Eigenvalues ---    0.27690   0.28705   0.29318   0.30058   0.31836
     Eigenvalues ---    0.31862   0.31863   0.31876   0.31879   0.31897
     Eigenvalues ---    0.31912   0.31932   0.32025   0.32118   0.32198
     Eigenvalues ---    0.32606   0.36248   0.36447   0.381051000.00000
     Eigenvalues --- 1000.000001000.000001000.000001000.000001000.00000
     Eigenvalues --- 1000.000001000.000001000.000001000.000001000.00000
     Eigenvalues --- 1000.000001000.000001000.000001000.000001000.00000
     Eigenvalues --- 1000.000001000.000001000.000001000.000001000.00000
     Eigenvalues --- 1000.000001000.000001000.000001000.000001000.00000
     Eigenvalues --- 1000.000001000.000001000.000001000.000001000.00000
     Eigenvalues --- 1000.000001000.000001000.000001000.000001000.00000
     Eigenvalues --- 1000.000001000.000001000.000001000.000001000.00000
     Eigenvalues --- 1000.000001000.000001000.000001000.000001000.00000
     Eigenvalues --- 1000.000001000.000001000.000001000.000001000.00000
     Eigenvalues --- 1000.000001000.000001000.000001000.000001000.00000
     Eigenvalues --- 1000.000001000.000001000.00000
 RFO step:  Lambda=-2.11590909D-03 EMin= 2.57655648D-03
 Quartic linear search produced a step of  0.34664.
 Maximum step size (   0.505) exceeded in Quadratic search.
    -- Step size scaled by   0.833
 Iteration  1 RMS(Cart)=  0.05557137 RMS(Int)=  0.00183582
 Iteration  2 RMS(Cart)=  0.00239508 RMS(Int)=  0.00062467
 Iteration  3 RMS(Cart)=  0.00000258 RMS(Int)=  0.00062467
 Iteration  4 RMS(Cart)=  0.00000000 RMS(Int)=  0.00062467
 Variable       Old X    -DE/DX   Delta X   Delta X   Delta X     New X
                                 (Linear)    (Quad)   (Total)
    R1        2.94005   0.00233   0.01106  -0.00045   0.01003   2.95008
    R2        2.92078   0.00064   0.00735  -0.00339   0.00403   2.92481
    R3        2.07862  -0.00230  -0.01125   0.00105  -0.01020   2.06841
    R4        2.08250  -0.00316  -0.00928  -0.00343  -0.01270   2.06980
    R5        2.94013   0.00232   0.01091  -0.00036   0.00996   2.95009
    R6        2.07699  -0.00240  -0.01164   0.00103  -0.01061   2.06638
    R7        2.08147  -0.00343  -0.01029  -0.00357  -0.01386   2.06761
    R8        2.92072   0.00065   0.00747  -0.00343   0.00410   2.92482
    R9        2.08288  -0.00327  -0.00964  -0.00355  -0.01319   2.06969
   R10        2.07852  -0.00227  -0.01118   0.00110  -0.01008   2.06843
   R11        2.75584   0.00180   0.00402   0.00241   0.00699   2.76282
   R12        2.08059  -0.00248  -0.01019  -0.00039  -0.01058   2.07001
   R13        2.08448  -0.00268  -0.00909  -0.00197  -0.01106   2.07341
   R14        2.75611   0.00175   0.00400   0.00223   0.00680   2.76291
   R15        2.75913  -0.00048   0.00422  -0.00472  -0.00051   2.75862
   R16        2.08062  -0.00249  -0.01026  -0.00039  -0.01065   2.06997
   R17        2.08461  -0.00273  -0.00933  -0.00196  -0.01129   2.07332
   R18        2.07681  -0.00220  -0.01024   0.00064  -0.00960   2.06721
   R19        2.08932  -0.00053  -0.00498   0.00216  -0.00283   2.08650
   R20        2.07672  -0.00218  -0.01023   0.00071  -0.00952   2.06720
    A1        2.01753  -0.00043  -0.00379  -0.00149  -0.00817   2.00937
    A2        1.92103  -0.00019  -0.00425  -0.00587  -0.00962   1.91141
    A3        1.90029   0.00010   0.00762  -0.00097   0.00737   1.90766
    A4        1.89158  -0.00035  -0.00714  -0.00462  -0.01123   1.88035
    A5        1.89688   0.00047   0.00816   0.00201   0.01100   1.90788
    A6        1.82682   0.00051   0.00032   0.01252   0.01262   1.83945
    A7        2.05538   0.00034   0.00118  -0.00199  -0.00462   2.05076
    A8        1.89097  -0.00059  -0.00891  -0.00645  -0.01466   1.87631
    A9        1.89613   0.00013   0.00804   0.00246   0.01140   1.90753
   A10        1.89119  -0.00061  -0.00914  -0.00648  -0.01492   1.87627
   A11        1.89613   0.00013   0.00793   0.00259   0.01142   1.90755
   A12        1.81974   0.00064   0.00147   0.01164   0.01292   1.83266
   A13        2.01754  -0.00043  -0.00377  -0.00150  -0.00816   2.00939
   A14        1.90005   0.00011   0.00768  -0.00081   0.00760   1.90765
   A15        1.92087  -0.00018  -0.00429  -0.00574  -0.00952   1.91135
   A16        1.89712   0.00046   0.00822   0.00175   0.01079   1.90790
   A17        1.89195  -0.00038  -0.00731  -0.00477  -0.01155   1.88040
   A18        1.82658   0.00052   0.00041   0.01265   0.01285   1.83943
   A19        2.00835   0.00005   0.00301  -0.00321  -0.00131   2.00704
   A20        1.92281  -0.00052  -0.00092  -0.00662  -0.00716   1.91565
   A21        1.91192   0.00033   0.00633  -0.00001   0.00651   1.91843
   A22        1.90373  -0.00014  -0.00418  -0.00323  -0.00703   1.89670
   A23        1.86731  -0.00048  -0.00872   0.00330  -0.00517   1.86214
   A24        1.84169   0.00085   0.00457   0.01141   0.01579   1.85747
   A25        1.90182   0.00025  -0.00055   0.00738   0.00637   1.90819
   A26        1.98446   0.00003   0.00679  -0.00233   0.00435   1.98881
   A27        1.98446   0.00002   0.00686  -0.00242   0.00433   1.98879
   A28        2.00818   0.00007   0.00310  -0.00316  -0.00116   2.00702
   A29        1.92285  -0.00053  -0.00096  -0.00660  -0.00718   1.91567
   A30        1.91216   0.00031   0.00607  -0.00001   0.00626   1.91842
   A31        1.90360  -0.00014  -0.00405  -0.00318  -0.00686   1.89674
   A32        1.86715  -0.00047  -0.00856   0.00323  -0.00508   1.86207
   A33        1.84189   0.00084   0.00448   0.01135   0.01563   1.85752
   A34        1.90895  -0.00061  -0.00489   0.00032  -0.00459   1.90436
   A35        2.00825  -0.00007   0.01432  -0.01306   0.00128   2.00953
   A36        1.90903  -0.00061  -0.00508   0.00040  -0.00470   1.90433
   A37        1.87975   0.00025  -0.00293   0.00330   0.00038   1.88013
   A38        1.87293   0.00091   0.00109   0.00737   0.00839   1.88133
   A39        1.88017   0.00023  -0.00310   0.00310   0.00002   1.88019
    D1       -0.10300  -0.00152  -0.03192  -0.11830  -0.15006  -0.25306
    D2       -2.25561  -0.00045  -0.01240  -0.10259  -0.11475  -2.37036
    D3        2.06072  -0.00097  -0.01380  -0.11416  -0.12803   1.93268
    D4       -2.25282  -0.00057  -0.01562  -0.10623  -0.12167  -2.37449
    D5        1.87776   0.00050   0.00390  -0.09052  -0.08636   1.79139
    D6       -0.08910  -0.00002   0.00250  -0.10209  -0.09965  -0.18875
    D7        2.03728  -0.00113  -0.01798  -0.11747  -0.13559   1.90170
    D8       -0.11533  -0.00006   0.00154  -0.10176  -0.10028  -0.21561
    D9       -2.08219  -0.00058   0.00014  -0.11333  -0.11356  -2.19575
   D10        0.59200   0.00072   0.01675   0.05606   0.07246   0.66446
   D11        2.75234   0.00016   0.01290   0.04409   0.05675   2.80908
   D12       -1.51194   0.00105   0.02119   0.05403   0.07516  -1.43678
   D13        2.75726  -0.00013   0.00212   0.04348   0.04536   2.80262
   D14       -1.36559  -0.00070  -0.00172   0.03151   0.02965  -1.33594
   D15        0.65332   0.00020   0.00657   0.04146   0.04806   0.70138
   D16       -1.55009   0.00053   0.00311   0.05681   0.05991  -1.49017
   D17        0.61025  -0.00004  -0.00074   0.04484   0.04420   0.65445
   D18        2.62915   0.00086   0.00756   0.05478   0.06262   2.69177
   D19        0.10276   0.00153   0.03203   0.11838   0.15024   0.25301
   D20       -2.03765   0.00114   0.01796   0.11778   0.13587  -1.90178
   D21        2.25296   0.00056   0.01548   0.10622   0.12151   2.37447
   D22        2.25526   0.00047   0.01262   0.10268   0.11507   2.37033
   D23        0.11485   0.00008  -0.00145   0.10208   0.10069   0.21554
   D24       -1.87773  -0.00051  -0.00393   0.09053   0.08634  -1.79139
   D25       -2.06096   0.00098   0.01386   0.11430   0.12823  -1.93273
   D26        2.08182   0.00059  -0.00021   0.11370   0.11386   2.19567
   D27        0.08924   0.00000  -0.00270   0.10214   0.09950   0.18874
   D28       -0.59159  -0.00072  -0.01696  -0.05617  -0.07278  -0.66437
   D29       -2.75220  -0.00015  -0.01291  -0.04408  -0.05675  -2.80894
   D30        1.51249  -0.00107  -0.02148  -0.05409  -0.07551   1.43698
   D31        1.55038  -0.00052  -0.00318  -0.05692  -0.06010   1.49028
   D32       -0.61023   0.00005   0.00087  -0.04483  -0.04407  -0.65430
   D33       -2.62873  -0.00086  -0.00770  -0.05484  -0.06283  -2.69155
   D34       -2.75695   0.00013  -0.00215  -0.04365  -0.04555  -2.80251
   D35        1.36562   0.00070   0.00190  -0.03156  -0.02952   1.33610
   D36       -0.65287  -0.00021  -0.00667  -0.04157  -0.04828  -0.70116
   D37        1.07333   0.00012  -0.00019  -0.00576  -0.00628   1.06705
   D38       -1.15994  -0.00015  -0.01391  -0.00680  -0.02091  -1.18085
   D39       -3.03919  -0.00065  -0.00253  -0.01952  -0.02226  -3.06146
   D40        1.01072  -0.00091  -0.01625  -0.02056  -0.03689   0.97383
   D41       -1.05502   0.00003  -0.00385  -0.00611  -0.00994  -1.06496
   D42        2.99490  -0.00024  -0.01757  -0.00715  -0.02457   2.97032
   D43       -1.07353  -0.00012   0.00028   0.00583   0.00642  -1.06711
   D44        3.03918   0.00064   0.00250   0.01947   0.02218   3.06136
   D45        1.05491  -0.00003   0.00379   0.00616   0.00992   1.06483
   D46        1.15974   0.00015   0.01396   0.00691   0.02106   1.18081
   D47       -1.01074   0.00091   0.01618   0.02056   0.03682  -0.97392
   D48       -2.99501   0.00024   0.01746   0.00724   0.02456  -2.97045
   D49       -1.02299   0.00039   0.00281   0.00764   0.01041  -1.01258
   D50        1.09499   0.00021   0.00528   0.00308   0.00830   1.10329
   D51       -3.06961  -0.00001   0.00741  -0.00167   0.00563  -3.06397
   D52        3.07022  -0.00001  -0.00755   0.00146  -0.00598   3.06424
   D53       -1.09498  -0.00019  -0.00507  -0.00309  -0.00809  -1.10307
   D54        1.02361  -0.00041  -0.00295  -0.00784  -0.01076   1.01285
         Item               Value     Threshold  Converged?
 Maximum Force            0.003428     0.000450     NO 
 RMS     Force            0.001081     0.000300     NO 
 Maximum Displacement     0.230316     0.001800     NO 
 RMS     Displacement     0.055367     0.001200     NO 
 Predicted change in Energy=-1.600472D-03
 GradGradGradGradGradGradGradGradGradGradGradGradGradGradGradGradGradGrad

                          Input orientation:                          
 ---------------------------------------------------------------------
 Center     Atomic      Atomic             Coordinates (Angstroms)
 Number     Number       Type             X           Y           Z
 ---------------------------------------------------------------------
      1          6           0       -1.352107   -0.884665   -0.306393
      2          6           0       -0.225537   -1.700607    0.402234
      3          6           0        1.030922   -0.916439    0.895678
      4          6           0        0.869105    0.622128    0.942086
      5          7           0        0.095872    1.195440   -0.158339
      6          6           0       -1.260599    0.650510   -0.132116
      7          1           0       -2.328312   -1.205454    0.070668
      8          1           0       -1.358535   -1.128281   -1.374227
      9          1           0        0.118611   -2.464741   -0.300162
     10          1           0       -0.655357   -2.258529    1.239553
     11          1           0        1.888186   -1.171633    0.263613
     12          1           0        1.300808   -1.253874    1.901350
     13          1           0        1.855633    1.097781    0.962652
     14          1           0        0.363123    0.916947    1.869943
     15          6           0        0.750573    1.093029   -1.459068
     16          1           0       -1.853202    1.147265   -0.907951
     17          1           0       -1.699652    0.944339    0.829465
     18          1           0        1.722956    1.591837   -1.410872
     19          1           0        0.918641    0.063103   -1.819764
     20          1           0        0.144800    1.613130   -2.206851
 ---------------------------------------------------------------------
                    Distance matrix (angstroms):
                    1          2          3          4          5
     1  C    0.000000
     2  C    1.561113   0.000000
     3  C    2.669234   1.561121   0.000000
     4  C    2.960221   2.623887   1.547749   0.000000
     5  N    2.538780   2.967261   2.538760   1.462023   0.000000
     6  C    1.547743   2.623859   2.960196   2.385447   1.462071
     7  H    1.094558   2.185584   3.471113   3.784561   3.419562
     8  H    1.095290   2.183359   3.302553   3.659456   2.998894
     9  H    2.158631   1.093480   2.158608   3.411038   3.662998
    10  H    2.182409   1.094131   2.182428   3.272714   3.801098
    11  H    3.302538   2.183313   1.095232   2.171734   2.998911
    12  H    3.471081   2.185555   1.094567   2.150800   3.419552
    13  H    3.978714   3.532183   2.177548   1.095403   2.088760
    14  H    3.305187   3.058150   2.180929   1.097204   2.064682
    15  C    3.108246   3.495946   3.108276   2.449762   1.459800
    16  H    2.177546   3.532174   3.978709   3.333071   2.088811
    17  H    2.180875   3.057987   3.304983   2.591335   2.064634
    18  H    4.099872   4.233694   3.477144   2.684363   2.091260
    19  H    2.888746   3.058937   2.888899   2.818293   2.172434
    20  H    3.477276   4.233831   4.099953   3.379719   2.091234
                    6          7          8          9         10
     6  C    0.000000
     7  H    2.150752   0.000000
     8  H    2.171757   1.741880   0.000000
     9  H    3.411047   2.776824   2.263117   0.000000
    10  H    3.272660   2.296527   2.933217   1.735589   0.000000
    11  H    3.659461   4.221046   3.636702   2.263044   2.933157
    12  H    3.784504   4.065004   4.221053   2.776769   2.296495
    13  H    3.333088   4.858593   4.554914   4.159749   4.200781
    14  H    2.591468   3.871150   4.203773   4.025538   3.393868
    15  C    2.449783   4.135535   3.064271   3.794754   4.526823
    16  H    1.095383   2.592048   2.374914   4.159812   4.200719
    17  H    1.097152   2.364867   3.044400   4.025414   3.393683
    18  H    3.379780   5.141261   4.110471   4.501491   5.244658
    19  H    2.818207   3.965561   2.608339   3.056016   4.150526
    20  H    2.684456   4.387230   3.235523   4.501685   5.244777
                   11         12         13         14         15
    11  H    0.000000
    12  H    1.741827   0.000000
    13  H    2.374859   2.592155   0.000000
    14  H    3.044385   2.364890   1.755980   0.000000
    15  C    3.064390   4.135592   2.661936   3.356104   0.000000
    16  H    4.554979   4.858542   4.154162   3.561157   2.662014
    17  H    4.203582   3.870897   3.561086   2.310495   3.356053
    18  H    3.235423   4.387151   2.428026   3.615020   1.093920
    19  H    2.608649   3.965750   3.112933   3.827740   1.104127
    20  H    4.110655   5.141341   3.638445   4.141568   1.093913
                   16         17         18         19         20
    16  H    0.000000
    17  H    1.755953   0.000000
    18  H    3.638610   4.141570   0.000000
    19  H    3.112865   3.827590   1.775146   0.000000
    20  H    2.428205   3.615037   1.767657   1.775176   0.000000
 Stoichiometry    C6H13N
 Framework group  C1[X(C6H13N)]
 Deg. of freedom    54
 Full point group                 C1      NOp   1
 Largest Abelian subgroup         C1      NOp   1
 Largest concise Abelian subgroup C1      NOp   1
                         Standard orientation:                         
 ---------------------------------------------------------------------
 Center     Atomic      Atomic             Coordinates (Angstroms)
[...]
     12          1           0        1.607678   -1.423838    1.582777
     13          1           0        1.895813    0.987291    0.894662
     14          1           0        0.455822    0.736003    1.882087
     15          6           0        0.730944    1.304720   -1.414501
     16          1           0       -1.824670    1.036973   -0.981931
     17          1           0       -1.768423    0.765689    0.760185
     18          1           0        1.664429    1.863373   -1.286317
     19          1           0        0.975946    0.355900   -1.925271
     20          1           0        0.085116    1.884398   -2.082931
 ---------------------------------------------------------------------
                    Distance matrix (angstroms):
                    1          2          3          4          5
     1  C    0.000000
     2  C    1.538279   0.000000
     3  C    2.530659   1.538279   0.000000
     4  C    2.915470   2.529629   1.541425   0.000000
     5  N    2.528943   2.968466   2.528943   1.468290   0.000000
     6  C    1.541427   2.529624   2.915462   2.419902   1.468283
     7  H    1.097645   2.182473   3.487492   3.897579   3.455283
     8  H    1.098482   2.169966   2.839120   3.359852   2.849716
     9  H    2.182701   1.096760   2.182698   3.488591   3.966750
    10  H    2.163352   1.100529   2.163353   2.817040   3.373450
    11  H    2.839118   2.169964   1.098483   2.175917   2.849715
    12  H    3.487493   2.182472   1.097646   2.170921   3.455286
    13  H    3.914764   3.488669   2.186196   1.096169   2.090875
    14  H    3.313954   2.801613   2.162751   1.100041   2.080926
    15  C    3.182946   3.794497   3.182946   2.454846   1.459183
    16  H    2.186199   3.488667   3.914763   3.359458   2.090872
    17  H    2.162748   2.801598   3.313937   2.690520   2.080924
    18  H    4.158179   4.519107   3.579648   2.680726   2.092395
    19  H    3.002567   3.560526   3.002538   2.833849   2.174490
    20  H    3.579598   4.519070   4.158159   3.386292   2.092395
                    6          7          8          9         10
     6  C    0.000000
     7  H    2.170922   0.000000
     8  H    2.175921   1.760531   0.000000
     9  H    3.488589   2.548396   2.482918   0.000000
    10  H    2.817032   2.471044   3.068673   1.761113   0.000000
    11  H    3.359845   3.850543   2.708358   2.482914   3.068673
    12  H    3.897573   4.330010   3.850544   2.548389   2.471048
    13  H    3.359455   4.941087   4.186881   4.335982   3.819498
    14  H    2.690524   4.107175   4.023001   3.811835   2.641472
    15  C    2.454846   4.146970   2.969655   4.587130   4.484808
    16  H    1.096170   2.523896   2.498717   4.335986   3.819489
    17  H    1.100042   2.466019   3.071973   3.811822   2.641451
    18  H    3.386287   5.167221   3.968866   5.307590   5.164930
    19  H    2.833878   3.984125   2.457934   4.128825   4.455400
    20  H    2.680699   4.363508   3.310676   5.307547   5.164900
                   11         12         13         14         15
    11  H    0.000000
    12  H    1.760530   0.000000
    13  H    2.498705   2.523900   0.000000
    14  H    3.071973   2.466024   1.764010   0.000000
    15  C    2.969653   4.146971   2.605746   3.356580   0.000000
    16  H    4.186885   4.941086   4.167261   3.673394   2.605757
    17  H    4.022987   4.107158   3.673393   2.491348   3.356583
    18  H    3.310736   4.363562   2.361720   3.573581   1.095408
    19  H    2.457895   3.984087   3.032627   3.861474   1.105066
    20  H    3.968839   5.167208   3.598539   4.144588   1.095408
                   16         17         18         19         20
    16  H    0.000000
    17  H    1.764008   0.000000
    18  H    3.598527   4.144581   0.000000
    19  H    3.032689   3.861497   1.776160   0.000000
    20  H    2.361698   3.573573   1.768973   1.776159   0.000000
 Stoichiometry    C6H13N
 Framework group  C1[X(C6H13N)]
 Deg. of freedom    54
 Full point group                 C1      NOp   1
 Largest Abelian subgroup         C1      NOp   1
 Largest concise Abelian subgroup C1      NOp   1
                         Standard orientation:                         
 ---------------------------------------------------------------------
 Center     Atomic      Atomic             Coordinates (Angstroms)
 Number     Number       Type             X           Y           Z
 ---------------------------------------------------------------------
      1          6           0        0.937492   -1.265330   -0.321738
      2          6           0        1.797671    0.000002   -0.162580
      3          6           0        0.937488    1.265330   -0.321736
      4          6           0       -0.281289    1.209954    0.620339
      5          7           0       -1.100830   -0.000003    0.478103
      6          6           0       -0.281284   -1.209948    0.620342
      7          1           0        1.528034   -2.165004   -0.105702
      8          1           0        0.600755   -1.354180   -1.363553
      9          1           0        2.625420    0.000006   -0.882104
     10          1           0        2.253235    0.000000    0.839232
     11          1           0        0.600750    1.354178   -1.363551
     12          1           0        1.528029    2.165006   -0.105705
     13          1           0       -0.926991    2.083629    0.474229
     14          1           0        0.073676    1.245681    1.660922
     15          6           0       -1.958198   -0.000004   -0.702631
     16          1           0       -0.926979   -2.083632    0.474249
     17          1           0        0.073694   -1.245667    1.660923
     18          1           0       -2.603974    0.884463   -0.677922
     19          1           0       -1.427190    0.000031   -1.671756
     20          1           0       -2.603922   -0.884510   -0.677959
 ---------------------------------------------------------------------
 Rotational constants (GHZ):      3.7092623      2.5802696      1.9442415

 **********************************************************************

            Population analysis using the SCF density.

 **********************************************************************

 Orbital symmetries:
       Occupied  (A) (A) (A) (A) (A) (A) (A) (A) (A) (A) (A) (A)
                 (A) (A) (A) (A) (A) (A) (A) (A) (A) (A) (A) (A)
                 (A) (A) (A) (A)
       Virtual   (A) (A) (A) (A) (A) (A) (A) (A) (A) (A) (A) (A)
                 (A) (A) (A) (A) (A) (A) (A) (A) (A) (A) (A) (A)
                 (A) (A) (A) (A) (A) (A) (A) (A) (A) (A) (A) (A)
                 (A) (A) (A) (A) (A) (A) (A) (A) (A) (A) (A) (A)
                 (A) (A) (A) (A) (A) (A) (A) (A) (A) (A) (A) (A)
                 (A) (A) (A) (A) (A) (A) (A) (A) (A) (A) (A) (A)
                 (A) (A) (A) (A) (A) (A) (A) (A) (A) (A) (A) (A)
                 (A) (A) (A) (A) (A) (A) (A) (A) (A) (A) (A) (A)
                 (A) (A) (A) (A) (A) (A) (A) (A) (A) (A) (A) (A)
                 (A) (A) (A) (A) (A) (A) (A) (A) (A) (A) (A) (A)
                 (A) (A) (A) (A) (A) (A) (A) (A) (A) (A) (A) (A)
                 (A) (A) (A) (A) (A) (A) (A) (A) (A) (A) (A) (A)
                 (A) (A) (A) (A) (A) (A) (A) (A) (A) (A) (A) (A)
                 (A) (A) (A) (A) (A) (A) (A) (A) (A) (A) (A) (A)
                 (A) (A)
 The electronic state is 1-A.
 Alpha  occ. eigenvalues --  -14.32318 -10.20506 -10.20505 -10.20153 -10.18356
 Alpha  occ. eigenvalues --  -10.18093 -10.18092  -0.91942  -0.78933  -0.74854
 Alpha  occ. eigenvalues --   -0.69574  -0.62288  -0.61225  -0.54892  -0.48543
 Alpha  occ. eigenvalues --   -0.46583  -0.44829  -0.43909  -0.41366  -0.41007
 Alpha  occ. eigenvalues --   -0.38268  -0.36965  -0.36297  -0.34228  -0.34183
 Alpha  occ. eigenvalues --   -0.32051  -0.31470  -0.20292
 Alpha virt. eigenvalues --    0.00382   0.02059   0.02155   0.02345   0.04229
 Alpha virt. eigenvalues --    0.04536   0.05283   0.05939   0.06370   0.08211
 Alpha virt. eigenvalues --    0.08820   0.08835   0.09518   0.09559   0.10317
 Alpha virt. eigenvalues --    0.10991   0.12302   0.13390   0.13618   0.15197
 Alpha virt. eigenvalues --    0.16711   0.17130   0.17926   0.18016   0.19970
 Alpha virt. eigenvalues --    0.20676   0.20881   0.22075   0.23147   0.23719
 Alpha virt. eigenvalues --    0.23915   0.24809   0.25137   0.26275   0.28969
 Alpha virt. eigenvalues --    0.28975   0.29712   0.30226   0.31406   0.32205
 Alpha virt. eigenvalues --    0.32443   0.32730   0.36476   0.37308   0.38228
 Alpha virt. eigenvalues --    0.39812   0.40060   0.46171   0.62118   0.62146
 Alpha virt. eigenvalues --    0.64452   0.65647   0.65782   0.66114   0.67876
 Alpha virt. eigenvalues --    0.72876   0.73482   0.74448   0.75358   0.77140
 Alpha virt. eigenvalues --    0.78655   0.78719   0.81381   0.88924   0.89061
 Alpha virt. eigenvalues --    0.94612   0.94949   0.95539   0.97878   0.99154
 Alpha virt. eigenvalues --    1.01012   1.02729   1.03120   1.06497   1.08833
 Alpha virt. eigenvalues --    1.10316   1.10806   1.12800   1.13082   1.14914
 Alpha virt. eigenvalues --    1.15088   1.19000   1.21446   1.28716   1.32447
 Alpha virt. eigenvalues --    1.34566   1.39432   1.40132   1.48244   1.56090
 Alpha virt. eigenvalues --    1.56203   1.59424   1.62055   1.67688   1.72603
 Alpha virt. eigenvalues --    1.73606   1.81307   1.82881   1.86108   1.88001
 Alpha virt. eigenvalues --    1.92172   1.94638   1.96595   1.97226   1.97947
 Alpha virt. eigenvalues --    2.01114   2.02030   2.04366   2.04548   2.11494
 Alpha virt. eigenvalues --    2.13064   2.13692   2.14618   2.16306   2.17745
 Alpha virt. eigenvalues --    2.18395   2.19354   2.21509   2.28269   2.34116
 Alpha virt. eigenvalues --    2.34883   2.37997   2.38083   2.39754   2.43708
 Alpha virt. eigenvalues --    2.45812   2.45925   2.45940   2.50779   2.55186
 Alpha virt. eigenvalues --    2.56477   2.58120   2.64874   2.65889   2.67685
 Alpha virt. eigenvalues --    2.69994   2.74140   2.74992   2.77682   2.78698
 Alpha virt. eigenvalues --    2.81572   2.84205   2.86284   2.88971   2.90192
 Alpha virt. eigenvalues --    2.92862   2.95142   2.95745   3.00241   3.05549
 Alpha virt. eigenvalues --    3.24462   3.30790   3.32826   3.33458   3.34388
 Alpha virt. eigenvalues --    3.35586   3.45231   3.47065   3.51225   3.52195
 Alpha virt. eigenvalues --    3.52602   3.55977   3.60888   4.24168   4.41046
 Alpha virt. eigenvalues --    4.45982   4.59664   4.66932   4.76953   4.80046
          Condensed to atoms (all electrons):
              1          2          3          4          5          6
     1  C    5.525665   0.213432  -0.079257   0.062633  -0.143512   0.141716
     2  C    0.213432   5.325039   0.213425  -0.110686  -0.008584  -0.110694
     3  C   -0.079257   0.213425   5.525664   0.141706  -0.143506   0.062646
     4  C    0.062633  -0.110686   0.141706   5.541995   0.222123  -0.285746
     5  N   -0.143512  -0.008584  -0.143506   0.222123   7.170060   0.222123
     6  C    0.141716  -0.110694   0.062646  -0.285746   0.222123   5.541985
     7  H    0.365545  -0.035705   0.011853   0.006367   0.011021  -0.033560
     8  H    0.389606  -0.021993  -0.005388  -0.011320   0.005604  -0.054475
     9  H   -0.034302   0.390651  -0.034304   0.004873   0.000088   0.004873
    10  H   -0.068810   0.449056  -0.068809  -0.004996   0.002752  -0.004996
    11  H   -0.005388  -0.021994   0.389607  -0.054475   0.005605  -0.011320
    12  H    0.011853  -0.035705   0.365545  -0.033559   0.011021   0.006366
    13  H   -0.002895   0.013865  -0.076966   0.430667  -0.054890   0.012771
    14  H   -0.019366   0.007632  -0.085518   0.431597  -0.044996  -0.001299
    15  C   -0.014126   0.029465  -0.014130  -0.104803   0.227752  -0.104803
    16  H   -0.076965   0.013865  -0.002895   0.012772  -0.054889   0.430665
    17  H   -0.085520   0.007633  -0.019365  -0.001298  -0.044996   0.431596
    18  H   -0.003299  -0.000508  -0.014482   0.013118  -0.058521   0.000512
    19  H    0.016509   0.013387   0.016508  -0.023125  -0.090653  -0.023122
    20  H   -0.014482  -0.000508  -0.003299   0.000513  -0.058521   0.013116
              7          8          9         10         11         12
     1  C    0.365545   0.389606  -0.034302  -0.068810  -0.005388   0.011853
     2  C   -0.035705  -0.021993   0.390651   0.449056  -0.021994  -0.035705
     3  C    0.011853  -0.005388  -0.034304  -0.068809   0.389607   0.365545
     4  C    0.006367  -0.011320   0.004873  -0.004996  -0.054475  -0.033559
     5  N    0.011021   0.005604   0.000088   0.002752   0.005605   0.011021
     6  C   -0.033560  -0.054475   0.004873  -0.004996  -0.011320   0.006366
     7  H    0.584878  -0.030521  -0.002635  -0.004765  -0.000034  -0.000113
     8  H   -0.030521   0.580273  -0.005033   0.005043   0.002498  -0.000034
     9  H   -0.002635  -0.005033   0.581781  -0.032446  -0.005033  -0.002635
    10  H   -0.004765   0.005043  -0.032446   0.581575   0.005043  -0.004765
    11  H   -0.000034   0.002498  -0.005033   0.005043   0.580274  -0.030521
    12  H   -0.000113  -0.000034  -0.002635  -0.004765  -0.030521   0.584878
    13  H    0.000016   0.000007  -0.000145   0.000026  -0.004294  -0.000647
    14  H    0.000022   0.000082  -0.000071   0.003169   0.004774  -0.002487
    15  C   -0.000921   0.009598  -0.000294   0.002890   0.009597  -0.000921
    16  H   -0.000647  -0.004294  -0.000145   0.000026   0.000007   0.000016
    17  H   -0.002487   0.004774  -0.000071   0.003170   0.000082   0.000022
    18  H    0.000007  -0.000026  -0.000002   0.000002   0.000166   0.000018
    19  H   -0.000157  -0.000847   0.000024  -0.000032  -0.000847  -0.000157
    20  H    0.000018   0.000166  -0.000002   0.000002  -0.000026   0.000007
             13         14         15         16         17         18
     1  C   -0.002895  -0.019366  -0.014126  -0.076965  -0.085520  -0.003299
     2  C    0.013865   0.007632   0.029465   0.013865   0.007633  -0.000508
     3  C   -0.076966  -0.085518  -0.014130  -0.002895  -0.019365  -0.014482
     4  C    0.430667   0.431597  -0.104803   0.012772  -0.001298   0.013118
     5  N   -0.054890  -0.044996   0.227752  -0.054889  -0.044996  -0.058521
     6  C    0.012771  -0.001299  -0.104803   0.430665   0.431596   0.000512
     7  H    0.000016   0.000022  -0.000921  -0.000647  -0.002487   0.000007
     8  H    0.000007   0.000082   0.009598  -0.004294   0.004774  -0.000026
     9  H   -0.000145  -0.000071  -0.000294  -0.000145  -0.000071  -0.000002
    10  H    0.000026   0.003169   0.002890   0.000026   0.003170   0.000002
    11  H   -0.004294   0.004774   0.009597   0.000007   0.000082   0.000166
    12  H   -0.000647  -0.002487  -0.000921   0.000016   0.000022   0.000018
    13  H    0.588338  -0.026201  -0.009069  -0.000172   0.000155   0.004876
    14  H   -0.026201   0.584798   0.009709   0.000155   0.004542   0.000362
    15  C   -0.009069   0.009709   5.086273  -0.009070   0.009709   0.412675
    16  H   -0.000172   0.000155  -0.009070   0.588339  -0.026201   0.000363
    17  H    0.000155   0.004542   0.009709  -0.026201   0.584800  -0.000125
    18  H    0.004876   0.000362   0.412675   0.000363  -0.000125   0.571626
    19  H   -0.000977  -0.000423   0.427276  -0.000976  -0.000423  -0.043706
    20  H    0.000363  -0.000125   0.412675   0.004876   0.000362  -0.017451
             19         20
     1  C    0.016509  -0.014482
     2  C    0.013387  -0.000508
     3  C    0.016508  -0.003299
     4  C   -0.023125   0.000513
     5  N   -0.090653  -0.058521
     6  C   -0.023122   0.013116
     7  H   -0.000157   0.000018
     8  H   -0.000847   0.000166
     9  H    0.000024  -0.000002
    10  H   -0.000032   0.000002
    11  H   -0.000847  -0.000026
    12  H   -0.000157   0.000007
    13  H   -0.000977   0.000363
    14  H   -0.000423  -0.000125
    15  C    0.427276   0.412675
    16  H   -0.000976   0.004876
    17  H   -0.000423   0.000362
    18  H   -0.043706  -0.017451
    19  H    0.629331  -0.043705
    20  H   -0.043705   0.571626
 Mulliken atomic charges:
              1
     1  C   -0.179038
     2  C   -0.331074
     3  C   -0.179036
     4  C   -0.238356
     5  N   -0.175082
     6  C   -0.238357
     7  H    0.131818
     8  H    0.136281
     9  H    0.134828
    10  H    0.136865
    11  H    0.136280
    12  H    0.131819
    13  H    0.125172
    14  H    0.133643
    15  C   -0.379482
    16  H    0.125171
    17  H    0.133643
    18  H    0.134395
    19  H    0.126117
    20  H    0.134393
 Sum of Mulliken atomic charges =   0.00000
 Mulliken charges with hydrogens summed into heavy atoms:
              1
     1  C    0.089061
     2  C   -0.059381
     3  C    0.089063
     4  C    0.020459
     5  N   -0.175082
     6  C    0.020457
    15  C    0.015423
 Sum of Mulliken charges with hydrogens summed into heavy atoms =   0.00000
 Electronic spatial extent (au):  <R**2>=            767.5171
 Charge=              0.0000 electrons
 Dipole moment (field-independent basis, Debye):
    X=              0.5981    Y=              0.0000    Z=             -0.6899  Tot=              0.9130
 Quadrupole moment (field-independent basis, Debye-Ang):
   XX=            -47.5410   YY=            -45.1731   ZZ=            -47.5538
   XY=              0.0000   XZ=              2.2979   YZ=              0.0000
 Traceless Quadrupole moment (field-independent basis, Debye-Ang):
   XX=             -0.7850   YY=              1.5828   ZZ=             -0.7978
   XY=              0.0000   XZ=              2.2979   YZ=              0.0000
 Octapole moment (field-independent basis, Debye-Ang**2):
  XXX=             -2.3509  YYY=              0.0000  ZZZ=              0.4569  XYY=             -2.8198
  XXY=              0.0000  XXZ=             -3.8818  XZZ=              2.9205  YZZ=              0.0000
  YYZ=              1.6544  XYZ=             -0.0001
 Hexadecapole moment (field-independent basis, Debye-Ang**3):
 XXXX=           -539.6567 YYYY=           -365.1524 ZZZZ=           -180.2509 XXXY=             -0.0001
 XXXZ=              5.7273 YYYX=              0.0001 YYYZ=              0.0000 ZZZX=              1.6994
 ZZZY=              0.0001 XXYY=           -145.3806 XXZZ=           -125.4250 YYZZ=            -93.7705
 XXYZ=              0.0001 YYXZ=              1.1507 ZZXY=              0.0000
 N-N= 3.366239623023D+02 E-N=-1.346799350661D+03  KE= 2.883185085191D+02
 1\1\GINC-ROCK\FOpt\RB3LYP\6-31+G(d,p)\C6H13N1\STYLIANAKIS\27-Mar-2016\
 0\\# opt b3lyp/6-31+g(d,p)\\N-me-piperidine-sofa-ax\\0,1\C,-1.23197684
 31,-0.9833509315,-0.3933142246\C,-0.367444952,-1.659285513,0.684647188
 6\C,1.0273608495,-1.0135170624,0.7462996441\C,0.9065811502,0.51513232,
 0.9032508428\N,0.0753605393,1.1639501393,-0.118503765\C,-1.2538760091,
 0.5439789568,-0.1864816412\H,-2.2580964599,-1.3722182993,-0.3671217641
 \H,-0.8325002387,-1.2199253558,-1.3888614124\H,-0.2884759623,-2.737425
 4337,0.4995535495\H,-0.8591411281,-1.5443535388,1.6624972221\H,1.58548
 48822,-1.2522094794,-0.1692263\H,1.6076781031,-1.423837975,1.582777027
 6\H,1.8958127539,0.987291321,0.8946615749\H,0.4558215458,0.7360030167,
 1.882087472\C,0.7309435316,1.3047199968,-1.4145009651\H,-1.82467025,1.
 0369731258,-0.9819306535\H,-1.7684234982,0.7656894378,0.7601847276\H,1
 .6644287041,1.8633726516,-1.2863167256\H,0.9759455801,0.3559002712,-1.
 925270704\H,0.0851163017,1.8843981519,-2.0829310937\\Version=EM64L-G09
 RevA.01\State=1-A\HF=-291.2360838\RMSD=3.577e-09\RMSF=1.410e-05\Dipole
 =0.0480538,-0.3403631,-0.1042697\Quadrupole=1.1286989,-2.0783426,0.949
 6437,0.3414207,0.1044006,-0.7630494\PG=C01 [X(C6H13N1)]\\@


 THE PROMISED LAND ALWAYS LIES ON THE OTHER SIDE OF A WILDERNESS.

                         -- HAVELOCK ELLIS
 Job cpu time:  0 days  1 hours 11 minutes 43.7 seconds.
 File lengths (MBytes):  RWF=     21 Int=      0 D2E=      0 Chk=      4 Scr=      1
 Normal termination of Gaussian 09 at Sun Mar 27 13:15:49 2016.
