 Entering Gaussian System, Link 0=g09
 Input=propane-a.gjf
 Output=propane-a.out
 Initial command:
 /usr/local/g09/l1.exe /home/scratch/stylianakis/Gau-28125.inp -scrdir=/home/scratch/stylianakis/
 Entering Link 1 = /usr/local/g09/l1.exe PID=     28126.
  
 Copyright (c) 1988,1990,1992,1993,1995,1998,2003,2009, Gaussian, Inc.
                  All Rights Reserved.
  
 This is part of the Gaussian(R) 09 program.  It is based on
 the Gaussian(R) 03 system (copyright 2003, Gaussian, Inc.),
 the Gaussian(R) 98 system (copyright 1998, Gaussian, Inc.),
 the Gaussian(R) 94 system (copyright 1995, Gaussian, Inc.),
 the Gaussian 92(TM) system (copyright 1992, Gaussian, Inc.),
 the Gaussian 90(TM) system (copyright 1990, Gaussian, Inc.),
 the Gaussian 88(TM) system (copyright 1988, Gaussian, Inc.),
 the Gaussian 86(TM) system (copyright 1986, Carnegie Mellon
 University), and the Gaussian 82(TM) system (copyright 1983,
 Carnegie Mellon University). Gaussian is a federally registered
 trademark of Gaussian, Inc.
  
 This software contains proprietary and confidential information,
 including trade secrets, belonging to Gaussian, Inc.
  
 This software is provided under written license and may be
 used, copied, transmitted, or stored only in accord with that
 written license.
  
 The following legend is applicable only to US Government
 contracts under FAR:
  
                    RESTRICTED RIGHTS LEGEND
  
 Use, reproduction and disclosure by the US Government is
 subject to restrictions as set forth in subparagraphs (a)
 and (c) of the Commercial Computer Software - Restricted
 Rights clause in FAR 52.227-19.
  
 Gaussian, Inc.
 340 Quinnipiac St., Bldg. 40, Wallingford CT 06492
  
  
 ---------------------------------------------------------------
 Warning -- This program may not be used in any manner that
 competes with the business of Gaussian, Inc. or will provide
 assistance to any competitor of Gaussian, Inc.  The licensee
 of this program is prohibited from giving any competitor of
 Gaussian, Inc. access to this program.  By using this program,
 the user acknowledges that Gaussian, Inc. is engaged in the
 business of creating and licensing software in the field of
 computational chemistry and represents and warrants to the
 licensee that it is not a competitor of Gaussian, Inc. and that
 it will not use this program in any manner prohibited above.
 ---------------------------------------------------------------
  

 Cite this work as:
 Gaussian 09, Revision A.01,
 M. J. Frisch, G. W. Trucks, H. B. Schlegel, G. E. Scuseria, 
 M. A. Robb, J. R. Cheeseman, G. Scalmani, V. Barone, B. Mennucci, 
 G. A. Petersson, H. Nakatsuji, M. Caricato, X. Li, H. P. Hratchian, 
 A. F. Izmaylov, J. Bloino, G. Zheng, J. L. Sonnenberg, M. Hada, 
 M. Ehara, K. Toyota, R. Fukuda, J. Hasegawa, M. Ishida, T. Nakajima, 
 Y. Honda, O. Kitao, H. Nakai, T. Vreven, J. A. Montgomery, Jr., 
 J. E. Peralta, F. Ogliaro, M. Bearpark, J. J. Heyd, E. Brothers, 
 K. N. Kudin, V. N. Staroverov, R. Kobayashi, J. Normand, 
 K. Raghavachari, A. Rendell, J. C. Burant, S. S. Iyengar, J. Tomasi, 
 M. Cossi, N. Rega, J. M. Millam, M. Klene, J. E. Knox, J. B. Cross, 
 V. Bakken, C. Adamo, J. Jaramillo, R. Gomperts, R. E. Stratmann, 
 O. Yazyev, A. J. Austin, R. Cammi, C. Pomelli, J. W. Ochterski, 
 R. L. Martin, K. Morokuma, V. G. Zakrzewski, G. A. Voth, 
 P. Salvador, J. J. Dannenberg, S. Dapprich, A. D. Daniels, 
 O. Farkas, J. B. Foresman, J. V. Ortiz, J. Cioslowski, 
 and D. J. Fox, Gaussian, Inc., Wallingford CT, 2009.
 
 ******************************************
 Gaussian 09:  EM64L-G09RevA.01  8-May-2009
                27-Mar-2016 
 ******************************************
 %mem=16000Mb
 %nproc=8
 Will use up to    8 processors via shared memory.
 -----------------------
 # opt b3lyp/6-31+g(d,p)
 -----------------------
 1/14=-1,18=20,19=15,26=3,38=1/1,3;
 2/9=110,12=2,17=6,18=5,40=1/2;
 3/5=1,6=6,7=111,11=2,16=1,25=1,30=1,71=1,74=-5/1,2,3;
 4//1;
 5/5=2,38=5/2;
 6/7=2,8=2,9=2,10=2,28=1/1;
 7//1,2,3,16;
 1/14=-1,18=20,19=15/3(2);
 2/9=110/2;
 99//99;
 2/9=110/2;
 3/5=1,6=6,7=111,11=2,16=1,25=1,30=1,71=1,74=-5/1,2,3;
 4/5=5,16=3/1;
 5/5=2,38=5/2;
 7//1,2,3,16;
 1/14=-1,18=20,19=15/3(-5);
 2/9=110/2;
 6/7=2,8=2,9=2,10=2,19=2,28=1/1;
 99/9=1/99;
 ---------
 propane-a
 ---------
 Symbolic Z-matrix:
 Charge =  0 Multiplicity = 1
 C                     0.51715  -1.18885   0. 
 C                     0.48715   0.34415   0. 
 C                    -0.94885   0.88415   0. 
 H                     1.56515  -1.56885   0. 
 H                     0.00715  -1.60085   0.901 
 H                     0.00715  -1.60085  -0.901 
 H                     1.02815   0.72715   0.899 
 H                     1.02815   0.72715  -0.899 
 H                    -0.95685   1.99915   0. 
 H                    -1.50585   0.54015  -0.901 
 H                    -1.50585   0.54015   0.901 
 

 GradGradGradGradGradGradGradGradGradGradGradGradGradGradGradGradGradGrad
 Berny optimization.
 Initialization pass.
                           ----------------------------
                           !    Initial Parameters    !
                           ! (Angstroms and Degrees)  !
 --------------------------                            --------------------------
 ! Name  Definition              Value          Derivative Info.                !
 --------------------------------------------------------------------------------
 ! R1    R(1,2)                  1.5333         estimate D2E/DX2                !
 ! R2    R(1,4)                  1.1148         estimate D2E/DX2                !
 ! R3    R(1,5)                  1.1143         estimate D2E/DX2                !
 ! R4    R(1,6)                  1.1143         estimate D2E/DX2                !
 ! R5    R(2,3)                  1.5342         estimate D2E/DX2                !
 ! R6    R(2,7)                  1.1169         estimate D2E/DX2                !
 ! R7    R(2,8)                  1.1169         estimate D2E/DX2                !
 ! R8    R(3,9)                  1.115          estimate D2E/DX2                !
 ! R9    R(3,10)                 1.1137         estimate D2E/DX2                !
 ! R10   R(3,11)                 1.1137         estimate D2E/DX2                !
 ! A1    A(2,1,4)              111.0515         estimate D2E/DX2                !
 ! A2    A(2,1,5)              111.1442         estimate D2E/DX2                !
 ! A3    A(2,1,6)              111.1442         estimate D2E/DX2                !
 ! A4    A(4,1,5)              107.7125         estimate D2E/DX2                !
 ! A5    A(4,1,6)              107.7125         estimate D2E/DX2                !
 ! A6    A(5,1,6)              107.916          estimate D2E/DX2                !
 ! A7    A(1,2,3)              111.7296         estimate D2E/DX2                !
 ! A8    A(1,2,7)              109.4726         estimate D2E/DX2                !
 ! A9    A(1,2,8)              109.4726         estimate D2E/DX2                !
 ! A10   A(3,2,7)              109.4307         estimate D2E/DX2                !
 ! A11   A(3,2,8)              109.4307         estimate D2E/DX2                !
 ! A12   A(7,2,8)              107.1959         estimate D2E/DX2                !
 ! A13   A(2,3,9)              111.0196         estimate D2E/DX2                !
 ! A14   A(2,3,10)             111.0634         estimate D2E/DX2                !
 ! A15   A(2,3,11)             111.0634         estimate D2E/DX2                !
 ! A16   A(9,3,10)             107.7748         estimate D2E/DX2                !
 ! A17   A(9,3,11)             107.7748         estimate D2E/DX2                !
 ! A18   A(10,3,11)            107.9959         estimate D2E/DX2                !
 ! D1    D(4,1,2,3)            180.0            estimate D2E/DX2                !
 ! D2    D(4,1,2,7)            -58.6168         estimate D2E/DX2                !
 ! D3    D(4,1,2,8)             58.6168         estimate D2E/DX2                !
 ! D4    D(5,1,2,3)            -60.1064         estimate D2E/DX2                !
 ! D5    D(5,1,2,7)             61.2768         estimate D2E/DX2                !
 ! D6    D(5,1,2,8)            178.5104         estimate D2E/DX2                !
 ! D7    D(6,1,2,3)             60.1064         estimate D2E/DX2                !
 ! D8    D(6,1,2,7)           -178.5104         estimate D2E/DX2                !
 ! D9    D(6,1,2,8)            -61.2768         estimate D2E/DX2                !
 ! D10   D(1,2,3,9)            180.0            estimate D2E/DX2                !
 ! D11   D(1,2,3,10)           -60.1028         estimate D2E/DX2                !
 ! D12   D(1,2,3,11)            60.1028         estimate D2E/DX2                !
 ! D13   D(7,2,3,9)             58.5926         estimate D2E/DX2                !
 ! D14   D(7,2,3,10)           178.4898         estimate D2E/DX2                !
 ! D15   D(7,2,3,11)           -61.3047         estimate D2E/DX2                !
 ! D16   D(8,2,3,9)            -58.5926         estimate D2E/DX2                !
 ! D17   D(8,2,3,10)            61.3047         estimate D2E/DX2                !
 ! D18   D(8,2,3,11)          -178.4898         estimate D2E/DX2                !
 --------------------------------------------------------------------------------
 Trust Radius=3.00D-01 FncErr=1.00D-07 GrdErr=1.00D-06
 Number of steps in this run=  56 maximum allowed number of steps= 100.
 GradGradGradGradGradGradGradGradGradGradGradGradGradGradGradGradGradGrad

                          Input orientation:                          
 ---------------------------------------------------------------------
 Center     Atomic      Atomic             Coordinates (Angstroms)
 Number     Number       Type             X           Y           Z
 ---------------------------------------------------------------------
      1          6           0        0.517154   -1.188846    0.000000
      2          6           0        0.487154    0.344154    0.000000
      3          6           0       -0.948846    0.884154    0.000000
      4          1           0        1.565154   -1.568846    0.000000
      5          1           0        0.007154   -1.600846    0.901000
      6          1           0        0.007154   -1.600846   -0.901000
      7          1           0        1.028154    0.727154    0.899000
      8          1           0        1.028154    0.727154   -0.899000
      9          1           0       -0.956846    1.999154    0.000000
     10          1           0       -1.505846    0.540154   -0.901000
     11          1           0       -1.505846    0.540154    0.901000
 ---------------------------------------------------------------------
                    Distance matrix (angstroms):
                    1          2          3          4          5
     1  C    0.000000
     2  C    1.533294   0.000000
     3  C    2.538993   1.534176   0.000000
     4  H    1.114766   2.195826   3.512464   0.000000
     5  H    1.114291   2.196640   2.810865   1.800052   0.000000
     6  H    1.114291   2.196640   2.810865   1.800052   1.802000
     7  H    2.177241   1.116947   2.177471   2.523527   2.542052
     8  H    2.177241   1.116947   2.177471   2.523527   3.114807
     9  H    3.512267   2.196397   1.115029   4.369337   3.834201
    10  H    2.809586   2.195966   1.113726   3.832848   3.181235
    11  H    2.809586   2.195966   1.113726   3.832848   2.621650
                    6          7          8          9         10
     6  H    0.000000
     7  H    3.114807   0.000000
     8  H    2.542052   1.798000   0.000000
     9  H    3.834201   2.523175   2.523175   0.000000
    10  H    2.621650   3.113860   2.540891   1.800523   0.000000
    11  H    3.181235   2.540891   3.113860   1.800523   1.802000
                   11
    11  H    0.000000
 Stoichiometry    C3H8
 Framework group  CS[SG(C3H2),X(H6)]
 Deg. of freedom    16
 Full point group                 CS      NOp   2
 Largest Abelian subgroup         CS      NOp   2
 Largest concise Abelian subgroup CS      NOp   2
                         Standard orientation:                         
 ---------------------------------------------------------------------
 Center     Atomic      Atomic             Coordinates (Angstroms)
 Number     Number       Type             X           Y           Z
 ---------------------------------------------------------------------
      1          6           0        1.269382   -0.263577    0.000000
      2          6           0        0.000000    0.596457    0.000000
      3          6           0       -1.269611   -0.264812    0.000000
      4          1           0        2.184438    0.373114    0.000000
      5          1           0        1.311613   -0.917841    0.901000
      6          1           0        1.311613   -0.917841   -0.901000
      7          1           0       -0.000658    1.259306    0.899000
      8          1           0       -0.000658    1.259306   -0.899000
      9          1           0       -2.184899    0.372005    0.000000
     10          1           0       -1.310037   -0.918227   -0.901000
     11          1           0       -1.310037   -0.918227    0.901000
 ---------------------------------------------------------------------
 Rotational constants (GHZ):     28.5265974      8.4051008      7.4276323
 Standard basis: 6-31+G(d,p) (6D, 7F)
 There are    65 symmetry adapted basis functions of A'  symmetry.
 There are    32 symmetry adapted basis functions of A"  symmetry.
 Integral buffers will be    131072 words long.
 Raffenetti 2 integral format.
 Two-electron integral symmetry is turned on.
    97 basis functions,   152 primitive gaussians,    97 cartesian basis functions
    13 alpha electrons       13 beta electrons
       nuclear repulsion energy        81.7790382591 Hartrees.
 NAtoms=   11 NActive=   11 NUniq=    8 SFac= 1.42D+00 NAtFMM=   80 NAOKFM=F Big=F
 One-electron integrals computed using PRISM.
 NBasis=    97 RedAO= T  NBF=    65    32
 NBsUse=    97 1.00D-06 NBFU=    65    32
 Harris functional with IExCor=  402 diagonalized for initial guess.
 ExpMin= 4.38D-02 ExpMax= 3.05D+03 ExpMxC= 4.57D+02 IAcc=2 IRadAn=         0 AccDes= 0.00D+00
 HarFok:  IExCor=  402 AccDes= 0.00D+00 IRadAn=         0 IDoV= 1
 ScaDFX=  1.000000  1.000000  1.000000  1.000000
 FoFCou: FMM=F IPFlag=           0 FMFlag=      100000 FMFlg1=           0
         NFxFlg=           0 DoJE=T BraDBF=F KetDBF=T FulRan=T
         Omega=  0.000000  0.000000  1.000000  0.000000  0.000000 ICntrl=     500 IOpCl=  0
         NMat0=    1 NMatS0=    1 NMatT0=    0 NMatD0=    1 NMtDS0=    0 NMtDT0=    0
         I1Cent=           4 NGrid=           0.
 Petite list used in FoFCou.
 Initial guess orbital symmetries:
       Occupied  (A') (A') (A') (A') (A') (A') (A") (A') (A') (A")
                 (A') (A') (A")
       Virtual   (A') (A') (A') (A") (A') (A') (A') (A") (A") (A')
                 (A') (A") (A') (A') (A") (A') (A') (A") (A') (A')
                 (A') (A') (A') (A') (A") (A') (A") (A') (A") (A')
                 (A') (A") (A") (A') (A') (A') (A") (A') (A') (A')
                 (A") (A') (A') (A') (A') (A") (A") (A') (A') (A')
                 (A") (A") (A") (A") (A') (A") (A') (A') (A") (A")
                 (A') (A") (A') (A') (A") (A') (A') (A') (A') (A")
                 (A") (A') (A') (A') (A') (A') (A") (A') (A") (A')
                 (A") (A') (A') (A')
 The electronic state of the initial guess is 1-A'.
 Requested convergence on RMS density matrix=1.00D-08 within 128 cycles.
 Requested convergence on MAX density matrix=1.00D-06.
 Requested convergence on             energy=1.00D-06.
 No special actions if energy rises.
 Keep R1 ints in memory in canonical form, NReq=12358131.
 SCF Done:  E(RB3LYP) =  -119.157452717     A.U. after   10 cycles
             Convg  =    0.2810D-08             -V/T =  2.0124

 **********************************************************************

            Population analysis using the SCF density.

 **********************************************************************

 Orbital symmetries:
       Occupied  (A') (A') (A') (A') (A') (A') (A") (A') (A') (A")
                 (A') (A') (A")
       Virtual   (A') (A') (A') (A") (A') (A') (A") (A') (A") (A')
                 (A') (A') (A") (A") (A') (A') (A") (A') (A') (A')
                 (A') (A') (A') (A') (A") (A') (A") (A') (A") (A')
                 (A') (A") (A") (A') (A') (A') (A") (A') (A') (A')
                 (A") (A') (A') (A') (A') (A") (A") (A') (A') (A')
                 (A") (A") (A") (A") (A") (A') (A') (A") (A') (A")
                 (A') (A") (A') (A') (A") (A') (A') (A') (A') (A")
                 (A") (A') (A') (A') (A') (A') (A") (A') (A") (A')
                 (A") (A') (A') (A')
 The electronic state is 1-A'.
 Alpha  occ. eigenvalues --  -10.18962 -10.18183 -10.18178  -0.77837  -0.67645
 Alpha  occ. eigenvalues --   -0.58013  -0.45530  -0.43364  -0.39626  -0.37888
 Alpha  occ. eigenvalues --   -0.33735  -0.33563  -0.32831
 Alpha virt. eigenvalues --    0.01436   0.02975   0.03406   0.04415   0.06954
 Alpha virt. eigenvalues --    0.07664   0.08217   0.08340   0.09176   0.11200
 Alpha virt. eigenvalues --    0.12099   0.14775   0.19097   0.19436   0.19461
 Alpha virt. eigenvalues --    0.24495   0.24512   0.25142   0.27703   0.30470
 Alpha virt. eigenvalues --    0.32576   0.34072   0.60921   0.62657   0.64524
 Alpha virt. eigenvalues --    0.64598   0.67121   0.69365   0.70622   0.72319
 Alpha virt. eigenvalues --    0.80630   0.91140   0.93110   0.94884   0.96117
 Alpha virt. eigenvalues --    0.99599   1.02884   1.07667   1.08722   1.09487
 Alpha virt. eigenvalues --    1.30696   1.31668   1.38919   1.54270   1.56005
 Alpha virt. eigenvalues --    1.66459   1.69030   1.85761   1.87798   1.93798
 Alpha virt. eigenvalues --    2.03720   2.04181   2.06765   2.08608   2.09316
 Alpha virt. eigenvalues --    2.09632   2.09701   2.24786   2.26832   2.28276
 Alpha virt. eigenvalues --    2.32446   2.41727   2.46246   2.51881   2.62495
 Alpha virt. eigenvalues --    2.66737   2.69408   2.73546   2.78477   2.83125
 Alpha virt. eigenvalues --    2.86558   2.87286   2.88117   3.16960   3.21520
 Alpha virt. eigenvalues --    3.29207   3.32025   3.41038   3.44620   3.47062
 Alpha virt. eigenvalues --    3.52728   4.31514   4.49574   4.63649
          Condensed to atoms (all electrons):
              1          2          3          4          5          6
     1  C    5.137459   0.263563  -0.060934   0.400970   0.407756   0.407756
     2  C    0.263563   5.154440   0.263553  -0.052898  -0.053495  -0.053495
     3  C   -0.060934   0.263553   5.137248   0.010885  -0.002724  -0.002724
     4  H    0.400970  -0.052898   0.010885   0.561920  -0.027730  -0.027730
     5  H    0.407756  -0.053495  -0.002724  -0.027730   0.562566  -0.030190
     6  H    0.407756  -0.053495  -0.002724  -0.027730  -0.030190   0.562566
     7  H   -0.038437   0.395087  -0.038431  -0.003330  -0.004869   0.004612
     8  H   -0.038437   0.395087  -0.038431  -0.003330   0.004612  -0.004869
     9  H    0.010885  -0.052906   0.401031  -0.000141   0.000017   0.000017
    10  H   -0.002692  -0.053563   0.407821   0.000016  -0.000459   0.003330
    11  H   -0.002692  -0.053563   0.407821   0.000016   0.003330  -0.000459
              7          8          9         10         11
     1  C   -0.038437  -0.038437   0.010885  -0.002692  -0.002692
     2  C    0.395087   0.395087  -0.052906  -0.053563  -0.053563
     3  C   -0.038431  -0.038431   0.401031   0.407821   0.407821
     4  H   -0.003330  -0.003330  -0.000141   0.000016   0.000016
     5  H   -0.004869   0.004612   0.000017  -0.000459   0.003330
     6  H    0.004612  -0.004869   0.000017   0.003330  -0.000459
     7  H    0.583858  -0.032184  -0.003324   0.004616  -0.004874
     8  H   -0.032184   0.583858  -0.003324  -0.004874   0.004616
     9  H   -0.003324  -0.003324   0.561836  -0.027693  -0.027693
    10  H    0.004616  -0.004874  -0.027693   0.562370  -0.030147
    11  H   -0.004874   0.004616  -0.027693  -0.030147   0.562370
 Mulliken atomic charges:
              1
     1  C   -0.485199
     2  C   -0.151811
     3  C   -0.485114
     4  H    0.141351
     5  H    0.141188
     6  H    0.141188
     7  H    0.137276
     8  H    0.137276
     9  H    0.141294
    10  H    0.141275
    11  H    0.141275
 Sum of Mulliken atomic charges =   0.00000
 Mulliken charges with hydrogens summed into heavy atoms:
              1
     1  C   -0.061472
     2  C    0.122742
     3  C   -0.061270
 Sum of Mulliken charges with hydrogens summed into heavy atoms =   0.00000
 Electronic spatial extent (au):  <R**2>=            229.8079
 Charge=              0.0000 electrons
 Dipole moment (field-independent basis, Debye):
    X=              0.0006    Y=              0.0880    Z=              0.0000  Tot=              0.0880
 Quadrupole moment (field-independent basis, Debye-Ang):
   XX=            -22.8249   YY=            -22.3615   ZZ=            -21.7631
   XY=             -0.0037   XZ=              0.0000   YZ=              0.0000
 Traceless Quadrupole moment (field-independent basis, Debye-Ang):
   XX=             -0.5084   YY=             -0.0450   ZZ=              0.5534
   XY=             -0.0037   XZ=              0.0000   YZ=              0.0000
 Octapole moment (field-independent basis, Debye-Ang**2):
  XXX=              0.0063  YYY=              0.3896  ZZZ=              0.0000  XYY=              0.0018
  XXY=              1.5438  XXZ=              0.0000  XZZ=             -0.0022  YZZ=             -0.4258
  YYZ=              0.0000  XYZ=              0.0000
 Hexadecapole moment (field-independent basis, Debye-Ang**3):
 XXXX=           -212.8462 YYYY=            -77.4728 ZZZZ=            -47.5324 XXXY=             -0.0404
 XXXZ=              0.0000 YYYX=             -0.0269 YYYZ=              0.0000 ZZZX=              0.0000
 ZZZY=              0.0000 XXYY=            -47.6781 XXZZ=            -44.1660 YYZZ=            -18.7188
 XXYZ=              0.0000 YYXZ=              0.0000 ZZXY=             -0.0090
 N-N= 8.177903825912D+01 E-N=-4.378890839512D+02  KE= 1.177019197704D+02
 Symmetry A'   KE= 1.119360343139D+02
 Symmetry A"   KE= 5.765885456463D+00
 Calling FoFJK, ICntrl=      2127 FMM=F ISym2X=1 I1Cent= 0 IOpClX= 0 NMat=1 NMatS=1 NMatT=0.
 ***** Axes restored to original set *****
 -------------------------------------------------------------------
 Center     Atomic                   Forces (Hartrees/Bohr)
 Number     Number              X              Y              Z
 -------------------------------------------------------------------
      1        6           0.004663085   -0.009922319    0.000000000
      2        6           0.004917908    0.003920237    0.000000000
      3        6          -0.006934089    0.007734450    0.000000000
      4        1          -0.011185112    0.002680498    0.000000000
      5        1           0.004758071    0.003712316   -0.009158801
      6        1           0.004758071    0.003712316    0.009158801
      7        1          -0.004656950   -0.003342090   -0.010247702
      8        1          -0.004656950   -0.003342090    0.010247702
      9        1          -0.001278186   -0.011618818    0.000000000
     10        1           0.004807076    0.003232749    0.008974160
     11        1           0.004807076    0.003232749   -0.008974160
 -------------------------------------------------------------------
 Cartesian Forces:  Max     0.011618818 RMS     0.006230710

 GradGradGradGradGradGradGradGradGradGradGradGradGradGradGradGradGradGrad
 Berny optimization.
 Internal  Forces:  Max     0.011649714 RMS     0.004758043
 Search for a local minimum.
 Step number   1 out of a maximum of   56
 All quantities printed in internal units (Hartrees-Bohrs-Radians)
 Mixed Optimization -- RFO/linear search
 Second derivative matrix not updated -- first step.
     Eigenvalues ---    0.00314   0.00326   0.03602   0.04838   0.05465
     Eigenvalues ---    0.05471   0.05486   0.05488   0.08142   0.12066
     Eigenvalues ---    0.16000   0.16000   0.16000   0.16000   0.16000
     Eigenvalues ---    0.16000   0.21910   0.29041   0.29121   0.31875
     Eigenvalues ---    0.31875   0.32073   0.32101   0.32150   0.32150
     Eigenvalues ---    0.32209   0.322091000.000001000.000001000.00000
     Eigenvalues --- 1000.000001000.000001000.000001000.000001000.00000
     Eigenvalues --- 1000.000001000.000001000.000001000.000001000.00000
     Eigenvalues --- 1000.000001000.000001000.000001000.000001000.00000
     Eigenvalues --- 1000.00000
 RFO step:  Lambda=-3.38750092D-03 EMin= 3.13864472D-03
 Linear search not attempted -- first point.
 Iteration  1 RMS(Cart)=  0.01789753 RMS(Int)=  0.00010732
 Iteration  2 RMS(Cart)=  0.00014758 RMS(Int)=  0.00002924
 Iteration  3 RMS(Cart)=  0.00000001 RMS(Int)=  0.00002924
 ClnCor:  largest displacement from symmetrization is 1.26D-10 for atom    11.
 Variable       Old X    -DE/DX   Delta X   Delta X   Delta X     New X
                                 (Linear)    (Quad)   (Total)
    R1        2.89750  -0.00012   0.00000  -0.00042  -0.00042   2.89708
    R2        2.10660  -0.01143   0.00000  -0.03523  -0.03523   2.07137
    R3        2.10571  -0.01096   0.00000  -0.03372  -0.03372   2.07198
    R4        2.10571  -0.01096   0.00000  -0.03372  -0.03372   2.07198
    R5        2.89917  -0.00040   0.00000  -0.00137  -0.00137   2.89780
    R6        2.11072  -0.01165   0.00000  -0.03616  -0.03616   2.07456
    R7        2.11072  -0.01165   0.00000  -0.03616  -0.03616   2.07456
    R8        2.10710  -0.01161   0.00000  -0.03582  -0.03582   2.07128
    R9        2.10464  -0.01066   0.00000  -0.03276  -0.03276   2.07188
   R10        2.10464  -0.01066   0.00000  -0.03276  -0.03276   2.07188
    A1        1.93821   0.00190   0.00000   0.01386   0.01384   1.95205
    A2        1.93983   0.00005   0.00000  -0.00082  -0.00084   1.93899
    A3        1.93983   0.00005   0.00000  -0.00082  -0.00084   1.93899
    A4        1.87994  -0.00078   0.00000  -0.00266  -0.00268   1.87726
    A5        1.87994  -0.00078   0.00000  -0.00266  -0.00268   1.87726
    A6        1.88349  -0.00054   0.00000  -0.00758  -0.00759   1.87590
    A7        1.95005   0.00392   0.00000   0.02270   0.02260   1.97265
    A8        1.91066  -0.00099   0.00000  -0.00188  -0.00196   1.90870
    A9        1.91066  -0.00099   0.00000  -0.00188  -0.00196   1.90870
   A10        1.90993  -0.00095   0.00000  -0.00138  -0.00145   1.90848
   A11        1.90993  -0.00095   0.00000  -0.00138  -0.00145   1.90848
   A12        1.87092  -0.00020   0.00000  -0.01788  -0.01791   1.85301
   A13        1.93766   0.00193   0.00000   0.01398   0.01395   1.95160
   A14        1.93842   0.00022   0.00000   0.00023   0.00022   1.93864
   A15        1.93842   0.00022   0.00000   0.00023   0.00022   1.93864
   A16        1.88103  -0.00089   0.00000  -0.00339  -0.00342   1.87760
   A17        1.88103  -0.00089   0.00000  -0.00339  -0.00342   1.87760
   A18        1.88488  -0.00071   0.00000  -0.00844  -0.00844   1.87644
    D1        3.14159   0.00000   0.00000   0.00000   0.00000   3.14159
    D2       -1.02306   0.00070   0.00000   0.01190   0.01190  -1.01115
    D3        1.02306  -0.00070   0.00000  -0.01190  -0.01190   1.01115
    D4       -1.04906   0.00031   0.00000   0.00535   0.00535  -1.04370
    D5        1.06948   0.00101   0.00000   0.01725   0.01726   1.08674
    D6        3.11559  -0.00039   0.00000  -0.00655  -0.00655   3.10905
    D7        1.04906  -0.00031   0.00000  -0.00535  -0.00535   1.04370
    D8       -3.11559   0.00039   0.00000   0.00655   0.00655  -3.10905
    D9       -1.06948  -0.00101   0.00000  -0.01725  -0.01726  -1.08674
   D10        3.14159   0.00000   0.00000   0.00000   0.00000   3.14159
   D11       -1.04899   0.00030   0.00000   0.00517   0.00518  -1.04381
   D12        1.04899  -0.00030   0.00000  -0.00517  -0.00518   1.04381
   D13        1.02263  -0.00067   0.00000  -0.01159  -0.01160   1.01103
   D14        3.11523  -0.00037   0.00000  -0.00642  -0.00642   3.10881
   D15       -1.06997  -0.00097   0.00000  -0.01677  -0.01678  -1.08675
   D16       -1.02263   0.00067   0.00000   0.01159   0.01160  -1.01103
   D17        1.06997   0.00097   0.00000   0.01677   0.01678   1.08675
   D18       -3.11523   0.00037   0.00000   0.00642   0.00642  -3.10881
         Item               Value     Threshold  Converged?
 Maximum Force            0.011650     0.000450     NO 
 RMS     Force            0.004758     0.000300     NO 
 Maximum Displacement     0.040201     0.001800     NO 
 RMS     Displacement     0.017889     0.001200     NO 
 Predicted change in Energy=-1.716072D-03
 GradGradGradGradGradGradGradGradGradGradGradGradGradGradGradGradGradGrad

                          Input orientation:                          
 ---------------------------------------------------------------------
 Center     Atomic      Atomic             Coordinates (Angstroms)
 Number     Number       Type             X           Y           Z
 ---------------------------------------------------------------------
      1          6           0        0.526184   -1.194036    0.000000
      2          6           0        0.478769    0.338301    0.000000
      3          6           0       -0.950394    0.894139    0.000000
      4          1           0        1.555731   -1.570225    0.000000
      5          1           0        0.024062   -1.604408    0.884116
      6          1           0        0.024062   -1.604408   -0.884116
      7          1           0        1.017103    0.719064    0.877727
      8          1           0        1.017103    0.719064   -0.877727
      9          1           0       -0.961228    1.990160    0.000000
     10          1           0       -1.504349    0.557521   -0.884247
     11          1           0       -1.504349    0.557521    0.884247
 ---------------------------------------------------------------------
                    Distance matrix (angstroms):
                    1          2          3          4          5
     1  C    0.000000
     2  C    1.533070   0.000000
     3  C    2.557491   1.533449   0.000000
     4  H    1.096123   2.191419   3.514791   0.000000
     5  H    1.096446   2.182325   2.823821   1.768853   0.000000
     6  H    1.096446   2.182325   2.823821   1.768853   1.768232
     7  H    2.161332   1.097810   2.161505   2.510253   2.526796
     8  H    2.161332   1.097810   2.161505   2.510253   3.080381
     9  H    3.514470   2.191400   1.096075   4.360210   3.830585
    10  H    2.823634   2.182364   1.096390   3.830573   3.183879
    11  H    2.823634   2.182364   1.096390   3.830573   2.647636
                    6          7          8          9         10
     6  H    0.000000
     7  H    3.080381   0.000000
     8  H    2.526796   1.755453   0.000000
     9  H    3.830585   2.509958   2.509958   0.000000
    10  H    2.647636   3.080320   2.526631   1.768991   0.000000
    11  H    3.183879   2.526631   3.080320   1.768991   1.768495
                   11
    11  H    0.000000
 Stoichiometry    C3H8
 Framework group  CS[SG(C3H2),X(H6)]
 Deg. of freedom    16
 Full point group                 CS      NOp   2
 Largest Abelian subgroup         CS      NOp   2
 Largest concise Abelian subgroup CS      NOp   2
                         Standard orientation:                         
 ---------------------------------------------------------------------
 Center     Atomic      Atomic             Coordinates (Angstroms)
 Number     Number       Type             X           Y           Z
 ---------------------------------------------------------------------
      1          6           0        1.278711   -0.259207    0.000000
      2          6           0        0.000000    0.586491    0.000000
      3          6           0       -1.278780   -0.259787    0.000000
      4          1           0        2.180138    0.364422    0.000000
      5          1           0        1.324021   -0.906107    0.884116
      6          1           0        1.324021   -0.906107   -0.884116
      7          1           0       -0.000231    1.245872    0.877727
      8          1           0       -0.000231    1.245872   -0.877727
      9          1           0       -2.180071    0.363955    0.000000
     10          1           0       -1.323615   -0.906446   -0.884247
     11          1           0       -1.323615   -0.906446    0.884247
 ---------------------------------------------------------------------
 Rotational constants (GHZ):     29.4653289      8.3404228      7.3954266
 Standard basis: 6-31+G(d,p) (6D, 7F)
 There are    65 symmetry adapted basis functions of A'  symmetry.
 There are    32 symmetry adapted basis functions of A"  symmetry.
 Integral buffers will be    131072 words long.
 Raffenetti 2 integral format.
 Two-electron integral symmetry is turned on.
    97 basis functions,   152 primitive gaussians,    97 cartesian basis functions
    13 alpha electrons       13 beta electrons
       nuclear repulsion energy        82.2279664327 Hartrees.
 NAtoms=   11 NActive=   11 NUniq=    8 SFac= 1.42D+00 NAtFMM=   80 NAOKFM=F Big=F
 One-electron integrals computed using PRISM.
 NBasis=    97 RedAO= T  NBF=    65    32
 NBsUse=    97 1.00D-06 NBFU=    65    32
 Initial guess read from the read-write file.
 B after Tr=     0.000000    0.000000    0.000000
         Rot=    1.000000    0.000000    0.000000    0.000000 Ang=   0.00 deg.
 Initial guess orbital symmetries:
       Occupied  (A') (A') (A') (A') (A') (A') (A") (A') (A') (A")
                 (A') (A') (A")
       Virtual   (A') (A') (A') (A") (A') (A') (A") (A') (A") (A')
                 (A') (A') (A") (A") (A') (A') (A") (A') (A') (A')
                 (A') (A') (A') (A') (A") (A') (A") (A') (A") (A')
                 (A') (A") (A") (A') (A') (A') (A") (A') (A') (A')
                 (A") (A') (A') (A') (A') (A") (A") (A') (A') (A')
                 (A") (A") (A") (A") (A") (A') (A') (A") (A') (A")
                 (A') (A") (A') (A') (A") (A') (A') (A') (A') (A")
                 (A") (A') (A') (A') (A') (A') (A") (A') (A") (A')
                 (A") (A') (A') (A')
 Harris functional with IExCor=  402 diagonalized for initial guess.
 ExpMin= 4.38D-02 ExpMax= 3.05D+03 ExpMxC= 4.57D+02 IAcc=2 IRadAn=         0 AccDes= 0.00D+00
 HarFok:  IExCor=  402 AccDes= 0.00D+00 IRadAn=         0 IDoV= 1
 ScaDFX=  1.000000  1.000000  1.000000  1.000000
 FoFCou: FMM=F IPFlag=           0 FMFlag=      100000 FMFlg1=           0
         NFxFlg=           0 DoJE=T BraDBF=F KetDBF=T FulRan=T
         Omega=  0.000000  0.000000  1.000000  0.000000  0.000000 ICntrl=     500 IOpCl=  0
         NMat0=    1 NMatS0=    1 NMatT0=    0 NMatD0=    1 NMtDS0=    0 NMtDT0=    0
         I1Cent=           4 NGrid=           0.
 Petite list used in FoFCou.
 Requested convergence on RMS density matrix=1.00D-08 within 128 cycles.
 Requested convergence on MAX density matrix=1.00D-06.
 Requested convergence on             energy=1.00D-06.
 No special actions if energy rises.
 Keep R1 ints in memory in canonical form, NReq=12358131.
 SCF Done:  E(RB3LYP) =  -119.159145787     A.U. after    9 cycles
             Convg  =    0.1020D-08             -V/T =  2.0108
 Calling FoFJK, ICntrl=      2127 FMM=F ISym2X=1 I1Cent= 0 IOpClX= 0 NMat=1 NMatS=1 NMatT=0.
 ***** Axes restored to original set *****
 -------------------------------------------------------------------
 Center     Atomic                   Forces (Hartrees/Bohr)
 Number     Number              X              Y              Z
 -------------------------------------------------------------------
      1        6          -0.000005474   -0.000417065    0.000000000
      2        6           0.000126140    0.000249744    0.000000000
      3        6          -0.000126719    0.000052167    0.000000000
      4        1          -0.000092012    0.000610285    0.000000000
      5        1          -0.000210668   -0.000036936    0.000136859
      6        1          -0.000210668   -0.000036936   -0.000136859
      7        1           0.000160559    0.000106203    0.000032419
      8        1           0.000160559    0.000106203   -0.000032419
      9        1           0.000504771   -0.000269734    0.000000000
     10        1          -0.000153245   -0.000181965   -0.000135714
     11        1          -0.000153245   -0.000181965    0.000135714
 -------------------------------------------------------------------
 Cartesian Forces:  Max     0.000610285 RMS     0.000201110

 GradGradGradGradGradGradGradGradGradGradGradGradGradGradGradGradGradGrad
 Berny optimization.
 Using GEDIIS/GDIIS optimizer.
 Internal  Forces:  Max     0.000751557 RMS     0.000228007
 Search for a local minimum.
 Step number   2 out of a maximum of   56
 All quantities printed in internal units (Hartrees-Bohrs-Radians)
 Mixed Optimization -- En-DIIS/RFO-DIIS
 Update second derivatives using D2CorX and points    1    2
 DE= -1.69D-03 DEPred=-1.72D-03 R= 9.87D-01
 SS=  1.41D+00  RLast= 1.14D-01 DXNew= 5.0454D-01 3.4141D-01
 Trust test= 9.87D-01 RLast= 1.14D-01 DXMaxT set to 3.41D-01
 Use linear search instead of GDIIS.
     Eigenvalues ---    0.00314   0.00326   0.03446   0.04795   0.05384
     Eigenvalues ---    0.05388   0.05475   0.05487   0.08390   0.12250
     Eigenvalues ---    0.15991   0.16000   0.16000   0.16000   0.16000
     Eigenvalues ---    0.16183   0.22032   0.29014   0.29117   0.31638
     Eigenvalues ---    0.31875   0.31947   0.32087   0.32150   0.32178
     Eigenvalues ---    0.32209   0.328661000.000001000.000001000.00000
     Eigenvalues --- 1000.000001000.000001000.000001000.000001000.00000
     Eigenvalues --- 1000.000001000.000001000.000001000.000001000.00000
     Eigenvalues --- 1000.000001000.000001000.000001000.000001000.00000
     Eigenvalues --- 1000.00000
 RFO step:  Lambda=-1.16775124D-05 EMin= 3.13864472D-03
 Quartic linear search produced a step of -0.01513.
 Iteration  1 RMS(Cart)=  0.00200348 RMS(Int)=  0.00000302
 Iteration  2 RMS(Cart)=  0.00000283 RMS(Int)=  0.00000053
 Iteration  3 RMS(Cart)=  0.00000000 RMS(Int)=  0.00000053
 ClnCor:  largest displacement from symmetrization is 7.59D-12 for atom    11.
 Variable       Old X    -DE/DX   Delta X   Delta X   Delta X     New X
                                 (Linear)    (Quad)   (Total)
    R1        2.89708  -0.00014   0.00001  -0.00047  -0.00046   2.89662
    R2        2.07137  -0.00030   0.00053  -0.00159  -0.00106   2.07032
    R3        2.07198   0.00022   0.00051   0.00002   0.00053   2.07252
    R4        2.07198   0.00022   0.00051   0.00002   0.00053   2.07252
    R5        2.89780  -0.00028   0.00002  -0.00097  -0.00095   2.89685
    R6        2.07456   0.00014   0.00055  -0.00026   0.00028   2.07485
    R7        2.07456   0.00014   0.00055  -0.00026   0.00028   2.07485
    R8        2.07128  -0.00027   0.00054  -0.00154  -0.00099   2.07029
    R9        2.07188   0.00024   0.00050   0.00011   0.00060   2.07248
   R10        2.07188   0.00024   0.00050   0.00011   0.00060   2.07248
    A1        1.95205  -0.00075  -0.00021  -0.00453  -0.00474   1.94731
    A2        1.93899   0.00006   0.00001   0.00047   0.00048   1.93947
    A3        1.93899   0.00006   0.00001   0.00047   0.00048   1.93947
    A4        1.87726   0.00035   0.00004   0.00191   0.00195   1.87921
    A5        1.87726   0.00035   0.00004   0.00191   0.00195   1.87921
    A6        1.87590  -0.00003   0.00011   0.00002   0.00013   1.87603
    A7        1.97265  -0.00046  -0.00034  -0.00152  -0.00186   1.97080
    A8        1.90870   0.00015   0.00003   0.00069   0.00072   1.90942
    A9        1.90870   0.00015   0.00003   0.00069   0.00072   1.90942
   A10        1.90848   0.00016   0.00002   0.00078   0.00081   1.90929
   A11        1.90848   0.00016   0.00002   0.00078   0.00081   1.90929
   A12        1.85301  -0.00014   0.00027  -0.00143  -0.00116   1.85185
   A13        1.95160  -0.00071  -0.00021  -0.00424  -0.00445   1.94715
   A14        1.93864   0.00010   0.00000   0.00071   0.00070   1.93934
   A15        1.93864   0.00010   0.00000   0.00071   0.00070   1.93934
   A16        1.87760   0.00031   0.00005   0.00169   0.00175   1.87935
   A17        1.87760   0.00031   0.00005   0.00169   0.00175   1.87935
   A18        1.87644  -0.00008   0.00013  -0.00037  -0.00025   1.87620
    D1        3.14159   0.00000   0.00000   0.00000   0.00000   3.14159
    D2       -1.01115   0.00000  -0.00018   0.00047   0.00029  -1.01086
    D3        1.01115   0.00000   0.00018  -0.00047  -0.00029   1.01086
    D4       -1.04370  -0.00002  -0.00008  -0.00032  -0.00040  -1.04410
    D5        1.08674  -0.00002  -0.00026   0.00015  -0.00011   1.08663
    D6        3.10905  -0.00002   0.00010  -0.00079  -0.00069   3.10835
    D7        1.04370   0.00002   0.00008   0.00032   0.00040   1.04410
    D8       -3.10905   0.00002  -0.00010   0.00079   0.00069  -3.10835
    D9       -1.08674   0.00002   0.00026  -0.00015   0.00011  -1.08663
   D10        3.14159   0.00000   0.00000   0.00000   0.00000   3.14159
   D11       -1.04381  -0.00002  -0.00008  -0.00023  -0.00031  -1.04412
   D12        1.04381   0.00002   0.00008   0.00023   0.00031   1.04412
   D13        1.01103   0.00000   0.00018  -0.00042  -0.00024   1.01079
   D14        3.10881  -0.00002   0.00010  -0.00065  -0.00055   3.10826
   D15       -1.08675   0.00002   0.00025  -0.00018   0.00007  -1.08668
   D16       -1.01103   0.00000  -0.00018   0.00042   0.00024  -1.01079
   D17        1.08675  -0.00002  -0.00025   0.00018  -0.00007   1.08668
   D18       -3.10881   0.00002  -0.00010   0.00065   0.00055  -3.10826
         Item               Value     Threshold  Converged?
 Maximum Force            0.000752     0.000450     NO 
 RMS     Force            0.000228     0.000300     YES
 Maximum Displacement     0.008344     0.001800     NO 
 RMS     Displacement     0.002004     0.001200     NO 
 Predicted change in Energy=-6.266621D-06
 GradGradGradGradGradGradGradGradGradGradGradGradGradGradGradGradGradGrad

                          Input orientation:                          
 ---------------------------------------------------------------------
 Center     Atomic      Atomic             Coordinates (Angstroms)
 Number     Number       Type             X           Y           Z
 ---------------------------------------------------------------------
      1          6           0        0.524835   -1.193732    0.000000
      2          6           0        0.478856    0.338405    0.000000
      3          6           0       -0.950354    0.892741    0.000000
      4          1           0        1.555281   -1.565810    0.000000
      5          1           0        0.022666   -1.604219    0.884387
      6          1           0        0.022666   -1.604219   -0.884387
      7          1           0        1.017712    0.719467    0.877465
      8          1           0        1.017712    0.719467   -0.877465
      9          1           0       -0.957319    1.988268    0.000000
     10          1           0       -1.504681    0.556162   -0.884426
     11          1           0       -1.504681    0.556162    0.884426
 ---------------------------------------------------------------------
                    Distance matrix (angstroms):
                    1          2          3          4          5
     1  C    0.000000
     2  C    1.532827   0.000000
     3  C    2.555299   1.532948   0.000000
     4  H    1.095564   2.187401   3.510367   0.000000
     5  H    1.096729   2.182668   2.822006   1.769894   0.000000
     6  H    1.096729   2.182668   2.822006   1.769894   1.768775
     7  H    2.161760   1.097961   2.161770   2.506275   2.527782
     8  H    2.161760   1.097961   2.161770   2.506275   3.081194
     9  H    3.510257   2.187383   1.095549   4.352542   3.827332
    10  H    2.821927   2.182669   1.096710   3.827314   3.182567
    11  H    2.821927   2.182669   1.096710   3.827314   2.645757
                    6          7          8          9         10
     6  H    0.000000
     7  H    3.081194   0.000000
     8  H    2.527782   1.754930   0.000000
     9  H    3.827332   2.506102   2.506102   0.000000
    10  H    2.645757   3.081135   2.527683   1.769955   0.000000
    11  H    3.182567   2.527683   3.081135   1.769955   1.768852
                   11
    11  H    0.000000
 Stoichiometry    C3H8
 Framework group  CS[SG(C3H2),X(H6)]
 Deg. of freedom    16
 Full point group                 CS      NOp   2
 Largest Abelian subgroup         CS      NOp   2
 Largest concise Abelian subgroup CS      NOp   2
                         Standard orientation:                         
 ---------------------------------------------------------------------
 Center     Atomic      Atomic             Coordinates (Angstroms)
 Number     Number       Type             X           Y           Z
 ---------------------------------------------------------------------
      1          6           0        1.277640   -0.259951    0.000000
      2          6           0        0.000000    0.586923    0.000000
      3          6           0       -1.277660   -0.260139    0.000000
      4          1           0        2.176287    0.366701    0.000000
      5          1           0        1.322956   -0.906959    0.884387
      6          1           0        1.322956   -0.906959   -0.884387
      7          1           0       -0.000112    1.246904    0.877465
      8          1           0       -0.000112    1.246904   -0.877465
      9          1           0       -2.176255    0.366561    0.000000
     10          1           0       -1.322801   -0.907075   -0.884426
     11          1           0       -1.322801   -0.907075    0.884426
 ---------------------------------------------------------------------
 Rotational constants (GHZ):     29.4175240      8.3556253      7.4044989
 Standard basis: 6-31+G(d,p) (6D, 7F)
 There are    65 symmetry adapted basis functions of A'  symmetry.
 There are    32 symmetry adapted basis functions of A"  symmetry.
 Integral buffers will be    131072 words long.
 Raffenetti 2 integral format.
 Two-electron integral symmetry is turned on.
    97 basis functions,   152 primitive gaussians,    97 cartesian basis functions
    13 alpha electrons       13 beta electrons
       nuclear repulsion energy        82.2489876301 Hartrees.
 NAtoms=   11 NActive=   11 NUniq=    8 SFac= 1.42D+00 NAtFMM=   80 NAOKFM=F Big=F
 One-electron integrals computed using PRISM.
 NBasis=    97 RedAO= T  NBF=    65    32
 NBsUse=    97 1.00D-06 NBFU=    65    32
 Initial guess read from the read-write file.
 B after Tr=     0.000000    0.000000    0.000000
         Rot=    1.000000    0.000000    0.000000    0.000000 Ang=   0.00 deg.
 Initial guess orbital symmetries:
       Occupied  (A') (A') (A') (A') (A') (A') (A") (A') (A') (A")
                 (A') (A') (A")
       Virtual   (A') (A') (A') (A") (A') (A') (A") (A') (A") (A')
                 (A') (A') (A") (A') (A") (A") (A') (A') (A') (A')
                 (A') (A') (A') (A') (A") (A') (A") (A') (A") (A')
                 (A') (A") (A") (A') (A') (A') (A") (A') (A') (A')
                 (A") (A') (A') (A') (A') (A") (A") (A') (A') (A')
                 (A") (A") (A") (A') (A") (A") (A') (A") (A') (A")
                 (A') (A") (A') (A') (A") (A') (A') (A') (A') (A")
                 (A") (A') (A') (A') (A') (A') (A") (A') (A") (A')
                 (A") (A') (A') (A')
 Requested convergence on RMS density matrix=1.00D-08 within 128 cycles.
 Requested convergence on MAX density matrix=1.00D-06.
 Requested convergence on             energy=1.00D-06.
 No special actions if energy rises.
 Keep R1 ints in memory in canonical form, NReq=12358131.
 SCF Done:  E(RB3LYP) =  -119.159151598     A.U. after    7 cycles
             Convg  =    0.1872D-08             -V/T =  2.0108
 Calling FoFJK, ICntrl=      2127 FMM=F ISym2X=1 I1Cent= 0 IOpClX= 0 NMat=1 NMatS=1 NMatT=0.
 ***** Axes restored to original set *****
 -------------------------------------------------------------------
 Center     Atomic                   Forces (Hartrees/Bohr)
 Number     Number              X              Y              Z
 -------------------------------------------------------------------
      1        6           0.000123887   -0.000221848    0.000000000
      2        6          -0.000121928   -0.000028053    0.000000000
      3        6          -0.000083473    0.000158691    0.000000000
      4        1           0.000076634   -0.000008820    0.000000000
      5        1          -0.000032861    0.000038335   -0.000003912
      6        1          -0.000032861    0.000038335    0.000003912
      7        1           0.000025948    0.000011080    0.000041393
      8        1           0.000025948    0.000011080   -0.000041393
      9        1           0.000002039    0.000080974    0.000000000
     10        1           0.000008333   -0.000039888    0.000003402
     11        1           0.000008333   -0.000039888   -0.000003402
 -------------------------------------------------------------------
 Cartesian Forces:  Max     0.000221848 RMS     0.000064754

 GradGradGradGradGradGradGradGradGradGradGradGradGradGradGradGradGradGrad
 Berny optimization.
 Using GEDIIS/GDIIS optimizer.
 Internal  Forces:  Max     0.000194258 RMS     0.000052627
 Search for a local minimum.
 Step number   3 out of a maximum of   56
 All quantities printed in internal units (Hartrees-Bohrs-Radians)
 Mixed Optimization -- En-DIIS/RFO-DIIS
 Swaping is turned off.
 Update second derivatives using D2CorX and points    1    2    3
 DE= -5.81D-06 DEPred=-6.27D-06 R= 9.27D-01
 SS=  1.41D+00  RLast= 8.47D-03 DXNew= 5.7417D-01 2.5411D-02
 Trust test= 9.27D-01 RLast= 8.47D-03 DXMaxT set to 3.41D-01
     Eigenvalues ---    0.00314   0.00326   0.03453   0.04733   0.05409
     Eigenvalues ---    0.05415   0.05472   0.05550   0.08373   0.12240
     Eigenvalues ---    0.14464   0.16000   0.16000   0.16000   0.16000
     Eigenvalues ---    0.16371   0.23999   0.29040   0.30090   0.31875
     Eigenvalues ---    0.31890   0.32086   0.32136   0.32150   0.32206
     Eigenvalues ---    0.32209   0.338461000.000001000.000001000.00000
     Eigenvalues --- 1000.000001000.000001000.000001000.000001000.00000
     Eigenvalues --- 1000.000001000.000001000.000001000.000001000.00000
     Eigenvalues --- 1000.000001000.000001000.000001000.000001000.00000
     Eigenvalues --- 1000.00000
 En-DIIS/RFO-DIIS IScMMF=        0 using points:     3    2
 RFO step:  Lambda=-2.54454282D-07.
 DIIS coeffs:      0.93387      0.06613
 Iteration  1 RMS(Cart)=  0.00040919 RMS(Int)=  0.00000010
 Iteration  2 RMS(Cart)=  0.00000010 RMS(Int)=  0.00000004
 ClnCor:  largest displacement from symmetrization is 3.05D-11 for atom    11.
 Variable       Old X    -DE/DX   Delta X   Delta X   Delta X     New X
                                  (DIIS)     (GDIIS)  (Total)
    R1        2.89662   0.00016   0.00003   0.00046   0.00049   2.89711
    R2        2.07032   0.00008   0.00007   0.00011   0.00018   2.07050
    R3        2.07252   0.00000  -0.00004   0.00006   0.00002   2.07254
    R4        2.07252   0.00000  -0.00004   0.00006   0.00002   2.07254
    R5        2.89685   0.00012   0.00006   0.00028   0.00034   2.89719
    R6        2.07485   0.00005  -0.00002   0.00018   0.00016   2.07501
    R7        2.07485   0.00005  -0.00002   0.00018   0.00016   2.07501
    R8        2.07029   0.00008   0.00007   0.00014   0.00020   2.07049
    R9        2.07248   0.00001  -0.00004   0.00009   0.00005   2.07253
   R10        2.07248   0.00001  -0.00004   0.00009   0.00005   2.07253
    A1        1.94731   0.00000   0.00031  -0.00036  -0.00005   1.94726
    A2        1.93947  -0.00005  -0.00003  -0.00030  -0.00033   1.93914
    A3        1.93947  -0.00005  -0.00003  -0.00030  -0.00033   1.93914
    A4        1.87921   0.00004  -0.00013   0.00054   0.00041   1.87962
    A5        1.87921   0.00004  -0.00013   0.00054   0.00041   1.87962
    A6        1.87603   0.00003  -0.00001  -0.00005  -0.00006   1.87597
    A7        1.97080   0.00019   0.00012   0.00071   0.00083   1.97162
    A8        1.90942  -0.00006  -0.00005  -0.00017  -0.00022   1.90920
    A9        1.90942  -0.00006  -0.00005  -0.00017  -0.00022   1.90920
   A10        1.90929  -0.00006  -0.00005  -0.00008  -0.00014   1.90915
   A11        1.90929  -0.00006  -0.00005  -0.00008  -0.00014   1.90915
   A12        1.85185   0.00003   0.00008  -0.00025  -0.00018   1.85167
   A13        1.94715   0.00002   0.00029  -0.00024   0.00006   1.94721
   A14        1.93934  -0.00004  -0.00005  -0.00020  -0.00024   1.93910
   A15        1.93934  -0.00004  -0.00005  -0.00020  -0.00024   1.93910
   A16        1.87935   0.00002  -0.00012   0.00043   0.00032   1.87967
   A17        1.87935   0.00002  -0.00012   0.00043   0.00032   1.87967
   A18        1.87620   0.00001   0.00002  -0.00020  -0.00018   1.87602
    D1        3.14159   0.00000   0.00000   0.00000   0.00000   3.14159
    D2       -1.01086   0.00002  -0.00002   0.00025   0.00023  -1.01063
    D3        1.01086  -0.00002   0.00002  -0.00025  -0.00023   1.01063
    D4       -1.04410   0.00002   0.00003   0.00023   0.00026  -1.04384
    D5        1.08663   0.00003   0.00001   0.00048   0.00049   1.08711
    D6        3.10835   0.00000   0.00005  -0.00002   0.00003   3.10838
    D7        1.04410  -0.00002  -0.00003  -0.00023  -0.00026   1.04384
    D8       -3.10835   0.00000  -0.00005   0.00002  -0.00003  -3.10838
    D9       -1.08663  -0.00003  -0.00001  -0.00048  -0.00049  -1.08711
   D10        3.14159   0.00000   0.00000   0.00000   0.00000   3.14159
   D11       -1.04412   0.00002   0.00002   0.00026   0.00028  -1.04385
   D12        1.04412  -0.00002  -0.00002  -0.00026  -0.00028   1.04385
   D13        1.01079  -0.00001   0.00002  -0.00020  -0.00018   1.01061
   D14        3.10826   0.00000   0.00004   0.00006   0.00009   3.10835
   D15       -1.08668  -0.00003   0.00000  -0.00045  -0.00046  -1.08714
   D16       -1.01079   0.00001  -0.00002   0.00020   0.00018  -1.01061
   D17        1.08668   0.00003   0.00000   0.00045   0.00046   1.08714
   D18       -3.10826   0.00000  -0.00004  -0.00006  -0.00009  -3.10835
         Item               Value     Threshold  Converged?
 Maximum Force            0.000194     0.000450     YES
 RMS     Force            0.000053     0.000300     YES
 Maximum Displacement     0.001133     0.001800     YES
 RMS     Displacement     0.000409     0.001200     YES
 Predicted change in Energy=-2.728534D-07
 Optimization completed.
    -- Stationary point found.
                           ----------------------------
                           !   Optimized Parameters   !
                           ! (Angstroms and Degrees)  !
 --------------------------                            --------------------------
 ! Name  Definition              Value          Derivative Info.                !
 --------------------------------------------------------------------------------
 ! R1    R(1,2)                  1.5328         -DE/DX =    0.0002              !
 ! R2    R(1,4)                  1.0956         -DE/DX =    0.0001              !
 ! R3    R(1,5)                  1.0967         -DE/DX =    0.0                 !
 ! R4    R(1,6)                  1.0967         -DE/DX =    0.0                 !
 ! R5    R(2,3)                  1.5329         -DE/DX =    0.0001              !
 ! R6    R(2,7)                  1.098          -DE/DX =    0.0                 !
 ! R7    R(2,8)                  1.098          -DE/DX =    0.0                 !
 ! R8    R(3,9)                  1.0955         -DE/DX =    0.0001              !
 ! R9    R(3,10)                 1.0967         -DE/DX =    0.0                 !
 ! R10   R(3,11)                 1.0967         -DE/DX =    0.0                 !
 ! A1    A(2,1,4)              111.5728         -DE/DX =    0.0                 !
 ! A2    A(2,1,5)              111.1235         -DE/DX =   -0.0001              !
 ! A3    A(2,1,6)              111.1235         -DE/DX =   -0.0001              !
 ! A4    A(4,1,5)              107.6709         -DE/DX =    0.0                 !
 ! A5    A(4,1,6)              107.6709         -DE/DX =    0.0                 !
 ! A6    A(5,1,6)              107.4888         -DE/DX =    0.0                 !
 ! A7    A(1,2,3)              112.9183         -DE/DX =    0.0002              !
 ! A8    A(1,2,7)              109.4015         -DE/DX =   -0.0001              !
 ! A9    A(1,2,8)              109.4015         -DE/DX =   -0.0001              !
 ! A10   A(3,2,7)              109.3941         -DE/DX =   -0.0001              !
 ! A11   A(3,2,8)              109.3941         -DE/DX =   -0.0001              !
 ! A12   A(7,2,8)              106.1031         -DE/DX =    0.0                 !
 ! A13   A(2,3,9)              111.5636         -DE/DX =    0.0                 !
 ! A14   A(2,3,10)             111.1162         -DE/DX =    0.0                 !
 ! A15   A(2,3,11)             111.1162         -DE/DX =    0.0                 !
 ! A16   A(9,3,10)             107.6788         -DE/DX =    0.0                 !
 ! A17   A(9,3,11)             107.6788         -DE/DX =    0.0                 !
 ! A18   A(10,3,11)            107.4982         -DE/DX =    0.0                 !
 ! D1    D(4,1,2,3)            180.0            -DE/DX =    0.0                 !
 ! D2    D(4,1,2,7)            -57.9182         -DE/DX =    0.0                 !
 ! D3    D(4,1,2,8)             57.9182         -DE/DX =    0.0                 !
 ! D4    D(5,1,2,3)            -59.8227         -DE/DX =    0.0                 !
 ! D5    D(5,1,2,7)             62.259          -DE/DX =    0.0                 !
 ! D6    D(5,1,2,8)            178.0955         -DE/DX =    0.0                 !
 ! D7    D(6,1,2,3)             59.8227         -DE/DX =    0.0                 !
 ! D8    D(6,1,2,7)           -178.0955         -DE/DX =    0.0                 !
 ! D9    D(6,1,2,8)            -62.259          -DE/DX =    0.0                 !
 ! D10   D(1,2,3,9)            180.0            -DE/DX =    0.0                 !
 ! D11   D(1,2,3,10)           -59.8239         -DE/DX =    0.0                 !
 ! D12   D(1,2,3,11)            59.8239         -DE/DX =    0.0                 !
 ! D13   D(7,2,3,9)             57.914          -DE/DX =    0.0                 !
 ! D14   D(7,2,3,10)           178.0902         -DE/DX =    0.0                 !
 ! D15   D(7,2,3,11)           -62.2621         -DE/DX =    0.0                 !
 ! D16   D(8,2,3,9)            -57.914          -DE/DX =    0.0                 !
 ! D17   D(8,2,3,10)            62.2621         -DE/DX =    0.0                 !
 ! D18   D(8,2,3,11)          -178.0902         -DE/DX =    0.0                 !
 --------------------------------------------------------------------------------
 GradGradGradGradGradGradGradGradGradGradGradGradGradGradGradGradGradGrad

                          Input orientation:                          
 ---------------------------------------------------------------------
 Center     Atomic      Atomic             Coordinates (Angstroms)
 Number     Number       Type             X           Y           Z
 ---------------------------------------------------------------------
      1          6           0        0.524835   -1.193732    0.000000
      2          6           0        0.478856    0.338405    0.000000
      3          6           0       -0.950354    0.892741    0.000000
      4          1           0        1.555281   -1.565810    0.000000
      5          1           0        0.022666   -1.604219    0.884387
      6          1           0        0.022666   -1.604219   -0.884387
      7          1           0        1.017712    0.719467    0.877465
      8          1           0        1.017712    0.719467   -0.877465
      9          1           0       -0.957319    1.988268    0.000000
     10          1           0       -1.504681    0.556162   -0.884426
     11          1           0       -1.504681    0.556162    0.884426
 ---------------------------------------------------------------------
                    Distance matrix (angstroms):
                    1          2          3          4          5
     1  C    0.000000
     2  C    1.532827   0.000000
     3  C    2.555299   1.532948   0.000000
     4  H    1.095564   2.187401   3.510367   0.000000
     5  H    1.096729   2.182668   2.822006   1.769894   0.000000
     6  H    1.096729   2.182668   2.822006   1.769894   1.768775
     7  H    2.161760   1.097961   2.161770   2.506275   2.527782
     8  H    2.161760   1.097961   2.161770   2.506275   3.081194
     9  H    3.510257   2.187383   1.095549   4.352542   3.827332
    10  H    2.821927   2.182669   1.096710   3.827314   3.182567
    11  H    2.821927   2.182669   1.096710   3.827314   2.645757
                    6          7          8          9         10
     6  H    0.000000
     7  H    3.081194   0.000000
     8  H    2.527782   1.754930   0.000000
     9  H    3.827332   2.506102   2.506102   0.000000
    10  H    2.645757   3.081135   2.527683   1.769955   0.000000
    11  H    3.182567   2.527683   3.081135   1.769955   1.768852
                   11
    11  H    0.000000
 Stoichiometry    C3H8
 Framework group  CS[SG(C3H2),X(H6)]
 Deg. of freedom    16
 Full point group                 CS      NOp   2
 Largest Abelian subgroup         CS      NOp   2
 Largest concise Abelian subgroup CS      NOp   2
                         Standard orientation:                         
 ---------------------------------------------------------------------
 Center     Atomic      Atomic             Coordinates (Angstroms)
 Number     Number       Type             X           Y           Z
 ---------------------------------------------------------------------
      1          6           0        1.277640   -0.259951    0.000000
      2          6           0        0.000000    0.586923    0.000000
      3          6           0       -1.277660   -0.260139    0.000000
      4          1           0        2.176287    0.366701    0.000000
      5          1           0        1.322956   -0.906959    0.884387
      6          1           0        1.322956   -0.906959   -0.884387
      7          1           0       -0.000112    1.246904    0.877465
      8          1           0       -0.000112    1.246904   -0.877465
      9          1           0       -2.176255    0.366561    0.000000
     10          1           0       -1.322801   -0.907075   -0.884426
     11          1           0       -1.322801   -0.907075    0.884426
 ---------------------------------------------------------------------
 Rotational constants (GHZ):     29.4175240      8.3556253      7.4044989

 **********************************************************************

            Population analysis using the SCF density.

 **********************************************************************

 Orbital symmetries:
       Occupied  (A') (A') (A') (A') (A') (A') (A") (A') (A') (A")
                 (A') (A') (A")
       Virtual   (A') (A') (A') (A") (A') (A') (A") (A') (A") (A')
                 (A') (A') (A") (A') (A") (A") (A') (A') (A') (A')
                 (A') (A') (A') (A') (A") (A') (A") (A') (A") (A')
                 (A') (A") (A") (A') (A') (A') (A") (A') (A') (A')
                 (A") (A') (A') (A') (A') (A") (A") (A') (A') (A')
                 (A") (A") (A") (A') (A") (A") (A') (A") (A') (A")
                 (A') (A") (A') (A') (A") (A') (A') (A') (A') (A")
                 (A") (A') (A') (A') (A') (A') (A") (A') (A") (A')
                 (A") (A') (A') (A')
 The electronic state is 1-A'.
 Alpha  occ. eigenvalues --  -10.18439 -10.17575 -10.17574  -0.77996  -0.68124
 Alpha  occ. eigenvalues --   -0.58545  -0.45646  -0.43613  -0.39840  -0.38131
 Alpha  occ. eigenvalues --   -0.33887  -0.33775  -0.32887
 Alpha virt. eigenvalues --    0.01506   0.03020   0.03496   0.04557   0.06973
 Alpha virt. eigenvalues --    0.07713   0.08258   0.08563   0.09306   0.11344
 Alpha virt. eigenvalues --    0.12338   0.14922   0.19612   0.20078   0.20172
 Alpha virt. eigenvalues --    0.24700   0.25026   0.25317   0.28023   0.31022
 Alpha virt. eigenvalues --    0.33297   0.34658   0.60462   0.62704   0.64141
 Alpha virt. eigenvalues --    0.64725   0.66966   0.69530   0.70635   0.72555
 Alpha virt. eigenvalues --    0.80656   0.91789   0.93482   0.95598   0.96443
 Alpha virt. eigenvalues --    1.00539   1.02756   1.09078   1.10070   1.11072
 Alpha virt. eigenvalues --    1.30457   1.31804   1.38884   1.53695   1.56556
 Alpha virt. eigenvalues --    1.66268   1.69092   1.86124   1.87489   1.94469
 Alpha virt. eigenvalues --    2.04959   2.04970   2.09688   2.12065   2.12155
 Alpha virt. eigenvalues --    2.12263   2.13037   2.25624   2.27896   2.29161
 Alpha virt. eigenvalues --    2.32862   2.42149   2.47352   2.53527   2.64683
 Alpha virt. eigenvalues --    2.69644   2.72558   2.75686   2.82067   2.86701
 Alpha virt. eigenvalues --    2.90187   2.91191   2.91297   3.21791   3.25910
 Alpha virt. eigenvalues --    3.33704   3.35033   3.44445   3.47931   3.50479
 Alpha virt. eigenvalues --    3.56899   4.31862   4.50288   4.64325
          Condensed to atoms (all electrons):
              1          2          3          4          5          6
     1  C    5.122682   0.267882  -0.056395   0.405479   0.410812   0.410812
     2  C    0.267882   5.145161   0.267879  -0.051911  -0.054369  -0.054369
     3  C   -0.056395   0.267879   5.122688   0.009427  -0.002402  -0.002402
     4  H    0.405479  -0.051911   0.009427   0.558272  -0.028612  -0.028612
     5  H    0.410812  -0.054369  -0.002402  -0.028612   0.560930  -0.031347
     6  H    0.410812  -0.054369  -0.002402  -0.028612  -0.031347   0.560930
     7  H   -0.038783   0.397329  -0.038789  -0.003407  -0.005060   0.004887
     8  H   -0.038783   0.397329  -0.038789  -0.003407   0.004887  -0.005060
     9  H    0.009427  -0.051917   0.405488  -0.000140   0.000013   0.000013
    10  H   -0.002397  -0.054372   0.410812   0.000013  -0.000472   0.003269
    11  H   -0.002397  -0.054372   0.410812   0.000013   0.003269  -0.000472
              7          8          9         10         11
     1  C   -0.038783  -0.038783   0.009427  -0.002397  -0.002397
     2  C    0.397329   0.397329  -0.051917  -0.054372  -0.054372
     3  C   -0.038789  -0.038789   0.405488   0.410812   0.410812
     4  H   -0.003407  -0.003407  -0.000140   0.000013   0.000013
     5  H   -0.005060   0.004887   0.000013  -0.000472   0.003269
     6  H    0.004887  -0.005060   0.000013   0.003269  -0.000472
     7  H    0.584111  -0.034590  -0.003407   0.004887  -0.005060
     8  H   -0.034590   0.584111  -0.003407  -0.005060   0.004887
     9  H   -0.003407  -0.003407   0.558257  -0.028606  -0.028606
    10  H    0.004887  -0.005060  -0.028606   0.560911  -0.031339
    11  H   -0.005060   0.004887  -0.028606  -0.031339   0.560911
 Mulliken atomic charges:
              1
     1  C   -0.488340
     2  C   -0.154269
     3  C   -0.488329
     4  H    0.142882
     5  H    0.142350
     6  H    0.142350
     7  H    0.137882
     8  H    0.137882
     9  H    0.142883
    10  H    0.142355
    11  H    0.142355
 Sum of Mulliken atomic charges =   0.00000
 Mulliken charges with hydrogens summed into heavy atoms:
              1
     1  C   -0.060758
     2  C    0.121495
     3  C   -0.060737
 Sum of Mulliken charges with hydrogens summed into heavy atoms =   0.00000
 Electronic spatial extent (au):  <R**2>=            228.9642
 Charge=              0.0000 electrons
 Dipole moment (field-independent basis, Debye):
    X=              0.0000    Y=              0.0867    Z=              0.0000  Tot=              0.0867
 Quadrupole moment (field-independent basis, Debye-Ang):
   XX=            -22.5546   YY=            -22.2048   ZZ=            -21.7144
   XY=             -0.0005   XZ=              0.0000   YZ=              0.0000
 Traceless Quadrupole moment (field-independent basis, Debye-Ang):
   XX=             -0.3966   YY=             -0.0469   ZZ=              0.4435
   XY=             -0.0005   XZ=              0.0000   YZ=              0.0000
 Octapole moment (field-independent basis, Debye-Ang**2):
  XXX=              0.0012  YYY=              0.4053  ZZZ=              0.0000  XYY=              0.0001
  XXY=              1.4633  XXZ=              0.0000  XZZ=             -0.0003  YZZ=             -0.4092
  YYZ=              0.0000  XYZ=              0.0000
 Hexadecapole moment (field-independent basis, Debye-Ang**3):
 XXXX=           -211.7100 YYYY=            -75.2307 ZZZZ=            -46.2282 XXXY=             -0.0067
 XXXZ=              0.0000 YYYX=             -0.0050 YYYZ=              0.0000 ZZZX=              0.0000
 ZZZY=              0.0000 XXYY=            -47.2504 XXZZ=            -43.8297 YYZZ=            -18.3226
 XXYZ=              0.0000 YYXZ=              0.0000 ZZXY=             -0.0016
 N-N= 8.224898763007D+01 E-N=-4.389734767120D+02  KE= 1.178855522453D+02
 Symmetry A'   KE= 1.120411452627D+02
 Symmetry A"   KE= 5.844406982609D+00
 1\1\GINC-ROCK\FOpt\RB3LYP\6-31+G(d,p)\C3H8\STYLIANAKIS\27-Mar-2016\0\\
 # opt b3lyp/6-31+g(d,p)\\propane-a\\0,1\C,0.5248349179,-1.1937323321,0
 .\C,0.4788558292,0.3384051993,0.\C,-0.9503540339,0.8927412087,0.\H,1.5
 552806201,-1.5658097697,0.\H,0.0226658593,-1.6042186987,0.8843873934\H
 ,0.0226658593,-1.6042186987,-0.8843873934\H,1.0177117789,0.7194673899,
 0.8774648298\H,1.0177117789,0.7194673899,-0.8774648298\H,-0.9573190311
 ,1.9882676563,0.\H,-1.5046806142,0.5561615024,-0.8844257798\H,-1.50468
 06142,0.5561615024,0.8844257798\\Version=EM64L-G09RevA.01\State=1-A'\H
 F=-119.1591516\RMSD=1.872e-09\RMSF=6.475e-05\Dipole=0.0278598,0.019673
 ,0.\Quadrupole=-0.121888,-0.2078612,0.3297492,0.122702,0.,0.\PG=CS [SG
 (C3H2),X(H6)]\\@


 GARLIC THEN HAVE POWER TO SAVE FROM DEATH
 BEAR WITH IT THOUGH IT MAKETH UNSAVORY BREATH,
 AND SCORN NOT GARLIC LIKE SOME THAT THINK
 IT ONLY MAKETH MEN WINK AND DRINK AND STINK.
   --  SIR JOHN HARRINGTON,
       "THE ENGLISHMAN'S DOCTOR", 1609
 Job cpu time:  0 days  0 hours  2 minutes 11.7 seconds.
 File lengths (MBytes):  RWF=     10 Int=      0 D2E=      0 Chk=      2 Scr=      1
 Normal termination of Gaussian 09 at Sun Mar 27 19:12:04 2016.
