 Entering Gaussian System, Link 0=g09
 Input=trimethylphosphate-ecl.gjf
 Output=trimethylphosphate-ecl.out
 Initial command:
 /usr/local/g09/l1.exe /home/scratch/stylianakis/Gau-718.inp -scrdir=/home/scratch/stylianakis/
 Entering Link 1 = /usr/local/g09/l1.exe PID=       719.
  
 Copyright (c) 1988,1990,1992,1993,1995,1998,2003,2009, Gaussian, Inc.
                  All Rights Reserved.
  
 This is part of the Gaussian(R) 09 program.  It is based on
 the Gaussian(R) 03 system (copyright 2003, Gaussian, Inc.),
 the Gaussian(R) 98 system (copyright 1998, Gaussian, Inc.),
 the Gaussian(R) 94 system (copyright 1995, Gaussian, Inc.),
 the Gaussian 92(TM) system (copyright 1992, Gaussian, Inc.),
 the Gaussian 90(TM) system (copyright 1990, Gaussian, Inc.),
 the Gaussian 88(TM) system (copyright 1988, Gaussian, Inc.),
 the Gaussian 86(TM) system (copyright 1986, Carnegie Mellon
 University), and the Gaussian 82(TM) system (copyright 1983,
 Carnegie Mellon University). Gaussian is a federally registered
 trademark of Gaussian, Inc.
  
 This software contains proprietary and confidential information,
 including trade secrets, belonging to Gaussian, Inc.
  
 This software is provided under written license and may be
 used, copied, transmitted, or stored only in accord with that
 written license.
  
 The following legend is applicable only to US Government
 contracts under FAR:
  
                    RESTRICTED RIGHTS LEGEND
  
 Use, reproduction and disclosure by the US Government is
 subject to restrictions as set forth in subparagraphs (a)
 and (c) of the Commercial Computer Software - Restricted
 Rights clause in FAR 52.227-19.
  
 Gaussian, Inc.
 340 Quinnipiac St., Bldg. 40, Wallingford CT 06492
  
  
 ---------------------------------------------------------------
 Warning -- This program may not be used in any manner that
 competes with the business of Gaussian, Inc. or will provide
 assistance to any competitor of Gaussian, Inc.  The licensee
 of this program is prohibited from giving any competitor of
 Gaussian, Inc. access to this program.  By using this program,
 the user acknowledges that Gaussian, Inc. is engaged in the
 business of creating and licensing software in the field of
 computational chemistry and represents and warrants to the
 licensee that it is not a competitor of Gaussian, Inc. and that
 it will not use this program in any manner prohibited above.
 ---------------------------------------------------------------
  

 Cite this work as:
 Gaussian 09, Revision A.01,
 M. J. Frisch, G. W. Trucks, H. B. Schlegel, G. E. Scuseria, 
 M. A. Robb, J. R. Cheeseman, G. Scalmani, V. Barone, B. Mennucci, 
 G. A. Petersson, H. Nakatsuji, M. Caricato, X. Li, H. P. Hratchian, 
 A. F. Izmaylov, J. Bloino, G. Zheng, J. L. Sonnenberg, M. Hada, 
 M. Ehara, K. Toyota, R. Fukuda, J. Hasegawa, M. Ishida, T. Nakajima, 
 Y. Honda, O. Kitao, H. Nakai, T. Vreven, J. A. Montgomery, Jr., 
 J. E. Peralta, F. Ogliaro, M. Bearpark, J. J. Heyd, E. Brothers, 
 K. N. Kudin, V. N. Staroverov, R. Kobayashi, J. Normand, 
 K. Raghavachari, A. Rendell, J. C. Burant, S. S. Iyengar, J. Tomasi, 
 M. Cossi, N. Rega, J. M. Millam, M. Klene, J. E. Knox, J. B. Cross, 
 V. Bakken, C. Adamo, J. Jaramillo, R. Gomperts, R. E. Stratmann, 
 O. Yazyev, A. J. Austin, R. Cammi, C. Pomelli, J. W. Ochterski, 
 R. L. Martin, K. Morokuma, V. G. Zakrzewski, G. A. Voth, 
 P. Salvador, J. J. Dannenberg, S. Dapprich, A. D. Daniels, 
 O. Farkas, J. B. Foresman, J. V. Ortiz, J. Cioslowski, 
 and D. J. Fox, Gaussian, Inc., Wallingford CT, 2009.
 
 ******************************************
 Gaussian 09:  EM64L-G09RevA.01  8-May-2009
                27-Mar-2016 
 ******************************************
 %mem=16000Mb
 %nproc=8
 Will use up to    8 processors via shared memory.
 -----------------------
 # opt b3lyp/6-31+g(d,p)
 -----------------------
 1/14=-1,18=20,19=15,26=3,38=1/1,3;
 2/9=110,12=2,17=6,18=5,40=1/2;
 3/5=1,6=6,7=111,11=2,16=1,25=1,30=1,71=1,74=-5/1,2,3;
 4//1;
 5/5=2,38=5/2;
 6/7=2,8=2,9=2,10=2,28=1/1;
 7//1,2,3,16;
 1/14=-1,18=20,19=15/3(2);
 2/9=110/2;
 99//99;
 2/9=110/2;
 3/5=1,6=6,7=111,11=2,16=1,25=1,30=1,71=1,74=-5/1,2,3;
 4/5=5,16=3/1;
 5/5=2,38=5/2;
 7//1,2,3,16;
 1/14=-1,18=20,19=15/3(-5);
 2/9=110/2;
 6/7=2,8=2,9=2,10=2,19=2,28=1/1;
 99/9=1/99;
 ----------------------
 Trimethylphosphate-ecl
 ----------------------
 Symbolic Z-matrix:
 Charge =  0 Multiplicity = 1
 P                    -0.01391   0.18981   0.05465 
 O                    -0.00291   1.79081   0.09665 
 O                     1.57809  -0.37219   0.01965 
 O                    -0.83391  -0.36519   1.42265 
 O                    -0.82291  -0.33319  -1.33135 
 C                     0.00009  -1.18919   2.24965 
 C                     2.26409   0.09681  -1.15235 
 C                    -2.18191   0.13181  -1.34235 
 H                    -0.58291  -1.51519   3.11265 
 H                     0.33309  -2.07219   1.70365 
 H                     0.86409  -0.62619   2.60765 
 H                     3.28409  -0.28919  -1.13135 
 H                     1.77509  -0.26519  -2.05835 
 H                     2.30609   1.18681  -1.16735 
 H                    -2.66191  -0.22819  -2.25335 
 H                    -2.73191  -0.25819  -0.48435 
 H                    -2.21791   1.22181  -1.33935 
 

 GradGradGradGradGradGradGradGradGradGradGradGradGradGradGradGradGradGrad
 Berny optimization.
 Initialization pass.
                           ----------------------------
                           !    Initial Parameters    !
                           ! (Angstroms and Degrees)  !
 --------------------------                            --------------------------
 ! Name  Definition              Value          Derivative Info.                !
 --------------------------------------------------------------------------------
 ! R1    R(1,2)                  1.6016         estimate D2E/DX2                !
 ! R2    R(1,3)                  1.6886         estimate D2E/DX2                !
 ! R3    R(1,4)                  1.6887         estimate D2E/DX2                !
 ! R4    R(1,5)                  1.6879         estimate D2E/DX2                !
 ! R5    R(3,7)                  1.4367         estimate D2E/DX2                !
 ! R6    R(4,6)                  1.4347         estimate D2E/DX2                !
 ! R7    R(5,8)                  1.4364         estimate D2E/DX2                !
 ! R8    R(6,9)                  1.0913         estimate D2E/DX2                !
 ! R9    R(6,10)                 1.0903         estimate D2E/DX2                !
 ! R10   R(6,11)                 1.0916         estimate D2E/DX2                !
 ! R11   R(7,12)                 1.0908         estimate D2E/DX2                !
 ! R12   R(7,13)                 1.0913         estimate D2E/DX2                !
 ! R13   R(7,14)                 1.0909         estimate D2E/DX2                !
 ! R14   R(8,15)                 1.0908         estimate D2E/DX2                !
 ! R15   R(8,16)                 1.0912         estimate D2E/DX2                !
 ! R16   R(8,17)                 1.0906         estimate D2E/DX2                !
 ! A1    A(2,1,3)              109.072          estimate D2E/DX2                !
 ! A2    A(2,1,4)              108.0965         estimate D2E/DX2                !
 ! A3    A(2,1,5)              109.546          estimate D2E/DX2                !
 ! A4    A(3,1,4)              111.4193         estimate D2E/DX2                !
 ! A5    A(3,1,5)              109.3732         estimate D2E/DX2                !
 ! A6    A(4,1,5)              109.3063         estimate D2E/DX2                !
 ! A7    A(1,3,7)              111.003          estimate D2E/DX2                !
 ! A8    A(1,4,6)              111.9272         estimate D2E/DX2                !
 ! A9    A(1,5,8)              111.0664         estimate D2E/DX2                !
 ! A10   A(4,6,9)              108.4727         estimate D2E/DX2                !
 ! A11   A(4,6,10)             110.7332         estimate D2E/DX2                !
 ! A12   A(4,6,11)             110.6658         estimate D2E/DX2                !
 ! A13   A(9,6,10)             108.4972         estimate D2E/DX2                !
 ! A14   A(9,6,11)             108.5151         estimate D2E/DX2                !
 ! A15   A(10,6,11)            109.8887         estimate D2E/DX2                !
 ! A16   A(3,7,12)             108.3769         estimate D2E/DX2                !
 ! A17   A(3,7,13)             110.7929         estimate D2E/DX2                !
 ! A18   A(3,7,14)             110.8404         estimate D2E/DX2                !
 ! A19   A(12,7,13)            108.5177         estimate D2E/DX2                !
 ! A20   A(12,7,14)            108.5322         estimate D2E/DX2                !
 ! A21   A(13,7,14)            109.7103         estimate D2E/DX2                !
 ! A22   A(5,8,15)             108.4139         estimate D2E/DX2                !
 ! A23   A(5,8,16)             110.8023         estimate D2E/DX2                !
 ! A24   A(5,8,17)             110.7787         estimate D2E/DX2                !
 ! A25   A(15,8,16)            108.4765         estimate D2E/DX2                !
 ! A26   A(15,8,17)            108.5187         estimate D2E/DX2                !
 ! A27   A(16,8,17)            109.7795         estimate D2E/DX2                !
 ! D1    D(2,1,3,7)            -61.1806         estimate D2E/DX2                !
 ! D2    D(4,1,3,7)            179.5663         estimate D2E/DX2                !
 ! D3    D(5,1,3,7)             58.6088         estimate D2E/DX2                !
 ! D4    D(2,1,4,6)           -119.8593         estimate D2E/DX2                !
 ! D5    D(3,1,4,6)             -0.0274         estimate D2E/DX2                !
 ! D6    D(5,1,4,6)            120.9692         estimate D2E/DX2                !
 ! D7    D(2,1,5,8)            -60.1899         estimate D2E/DX2                !
 ! D8    D(3,1,5,8)           -179.6874         estimate D2E/DX2                !
 ! D9    D(4,1,5,8)             58.0799         estimate D2E/DX2                !
 ! D10   D(1,3,7,12)           179.9654         estimate D2E/DX2                !
 ! D11   D(1,3,7,13)           -61.0793         estimate D2E/DX2                !
 ! D12   D(1,3,7,14)            60.9643         estimate D2E/DX2                !
 ! D13   D(1,4,6,9)           -179.9993         estimate D2E/DX2                !
 ! D14   D(1,4,6,10)           -61.0451         estimate D2E/DX2                !
 ! D15   D(1,4,6,11)            61.0647         estimate D2E/DX2                !
 ! D16   D(1,5,8,15)           179.9216         estimate D2E/DX2                !
 ! D17   D(1,5,8,16)           -61.1451         estimate D2E/DX2                !
 ! D18   D(1,5,8,17)            60.9507         estimate D2E/DX2                !
 --------------------------------------------------------------------------------
 Trust Radius=3.00D-01 FncErr=1.00D-07 GrdErr=1.00D-06
 Number of steps in this run=  71 maximum allowed number of steps= 102.
 GradGradGradGradGradGradGradGradGradGradGradGradGradGradGradGradGradGrad

                          Input orientation:                          
 ---------------------------------------------------------------------
 Center     Atomic      Atomic             Coordinates (Angstroms)
 Number     Number       Type             X           Y           Z
 ---------------------------------------------------------------------
      1         15           0       -0.013905    0.189811    0.054649
      2          8           0       -0.002905    1.790811    0.096649
      3          8           0        1.578095   -0.372189    0.019649
      4          8           0       -0.833905   -0.365189    1.422649
      5          8           0       -0.822905   -0.333189   -1.331351
      6          6           0        0.000095   -1.189189    2.249649
      7          6           0        2.264095    0.096811   -1.152351
      8          6           0       -2.181905    0.131811   -1.342351
      9          1           0       -0.582905   -1.515189    3.112649
     10          1           0        0.333095   -2.072189    1.703649
     11          1           0        0.864095   -0.626189    2.607649
     12          1           0        3.284095   -0.289189   -1.131351
     13          1           0        1.775095   -0.265189   -2.058351
     14          1           0        2.306095    1.186811   -1.167351
     15          1           0       -2.661905   -0.228189   -2.253351
     16          1           0       -2.731905   -0.258189   -0.484351
     17          1           0       -2.217905    1.221811   -1.339351
 ---------------------------------------------------------------------
                    Distance matrix (angstroms):
                    1          2          3          4          5
     1  P    0.000000
     2  O    1.601589   0.000000
     3  O    1.688648   2.680309   0.000000
     4  O    1.688742   2.664052   2.790377   0.000000
     5  O    1.687900   2.687557   2.755272   2.754208   0.000000
     6  C    2.592270   3.676387   2.851398   1.434734   3.772748
     7  C    2.579686   3.093368   1.436712   4.054833   3.121940
     8  C    2.579767   3.093710   4.030715   3.115981   1.436394
     9  H    3.547133   4.512460   3.942464   2.059515   4.604765
    10  H    2.820683   4.197394   2.697384   2.086792   3.683976
    11  H    2.820381   3.591476   2.696675   2.086995   4.295060
    12  H    3.537349   4.079063   2.059642   4.846299   4.112102
    13  H    2.805765   3.468781   2.090058   4.351349   2.698658
    14  H    2.805297   2.700739   2.090319   4.356191   3.482519
    15  H    3.537441   4.082786   4.812989   4.107716   2.059862
    16  H    2.806911   3.461705   4.340865   2.692676   2.089812
    17  H    2.804617   2.700386   4.335589   3.473135   2.089046
                    6          7          8          9         10
     6  C    0.000000
     7  C    4.284051   0.000000
     8  C    4.405523   4.450196   0.000000
     9  H    1.091299   5.375331   5.011630   0.000000
    10  H    1.090272   4.073089   4.523379   1.770476   0.000000
    11  H    1.091618   4.076804   5.045313   1.771766   1.786083
    12  H    4.798522   1.090796   5.486248   5.870971   4.463711
    13  H    4.750081   1.091330   4.040806   5.819098   4.415570
    14  H    4.758035   1.090912   4.613653   5.827995   4.770372
    15  H    5.318531   5.057994   1.090835   5.896827   5.294168
    16  H    3.975593   5.052946   1.091221   4.374547   4.179972
    17  H    4.859359   4.624815   1.090598   5.475829   5.159252
                   11         12         13         14         15
    11  H    0.000000
    12  H    4.466552   0.000000
    13  H    4.767788   1.771154   0.000000
    14  H    4.429104   1.770976   1.784418   0.000000
    15  H    6.018339   6.051241   4.441437   5.278508   0.000000
    16  H    4.756796   6.050771   4.773947   5.285448   1.770639
    17  H    5.337849   5.709500   4.321132   4.527404   1.770602
                   16         17
    16  H    0.000000
    17  H    1.784831   0.000000
 Stoichiometry    C3H9O4P
 Framework group  C1[X(C3H9O4P)]
 Deg. of freedom    45
 Full point group                 C1      NOp   1
 Largest Abelian subgroup         C1      NOp   1
 Largest concise Abelian subgroup C1      NOp   1
                         Standard orientation:                         
 ---------------------------------------------------------------------
 Center     Atomic      Atomic             Coordinates (Angstroms)
 Number     Number       Type             X           Y           Z
 ---------------------------------------------------------------------
      1         15           0        0.018405   -0.009554    0.196921
      2          8           0        0.191022   -0.502543    1.710940
      3          8           0       -1.530164   -0.413613   -0.341783
      4          8           0        0.269141    1.659995    0.157073
      5          8           0        1.166793   -0.769778   -0.778923
      6          6           0       -0.884663    2.363707   -0.324579
      7          6           0       -1.730305   -1.836039   -0.313713
      8          6           0        2.500325   -0.455862   -0.347210
      9          1           0       -0.661987    3.432043   -0.327123
     10          1           0       -1.125798    2.058208   -1.343018
     11          1           0       -1.742198    2.189902    0.328150
     12          1           0       -2.739918   -2.048318   -0.667909
     13          1           0       -1.019400   -2.340329   -0.970453
     14          1           0       -1.630795   -2.222009    0.701774
     15          1           0        3.204688   -0.968349   -1.003831
     16          1           0        2.685873    0.617548   -0.411445
     17          1           0        2.666979   -0.798706    0.674597
 ---------------------------------------------------------------------
 Rotational constants (GHZ):      1.8220477      1.7333364      1.1748157
 Standard basis: 6-31+G(d,p) (6D, 7F)
 There are   201 symmetry adapted basis functions of A   symmetry.
 Integral buffers will be    131072 words long.
 Raffenetti 2 integral format.
 Two-electron integral symmetry is turned on.
   201 basis functions,   343 primitive gaussians,   201 cartesian basis functions
    37 alpha electrons       37 beta electrons
       nuclear repulsion energy       533.5935820533 Hartrees.
 NAtoms=   17 NActive=   17 NUniq=   17 SFac= 7.50D-01 NAtFMM=   80 NAOKFM=F Big=F
 One-electron integrals computed using PRISM.
 NBasis=   201 RedAO= T  NBF=   201
 NBsUse=   201 1.00D-06 NBFU=   201
 Harris functional with IExCor=  402 diagonalized for initial guess.
 ExpMin= 3.48D-02 ExpMax= 1.94D+04 ExpMxC= 2.91D+03 IAcc=3 IRadAn=         0 AccDes= 0.00D+00
 HarFok:  IExCor=  402 AccDes= 0.00D+00 IRadAn=         0 IDoV= 1
 ScaDFX=  1.000000  1.000000  1.000000  1.000000
 FoFCou: FMM=F IPFlag=           0 FMFlag=      100000 FMFlg1=           0
         NFxFlg=           0 DoJE=T BraDBF=F KetDBF=T FulRan=T
         Omega=  0.000000  0.000000  1.000000  0.000000  0.000000 ICntrl=     500 IOpCl=  0
         NMat0=    1 NMatS0=    1 NMatT0=    0 NMatD0=    1 NMtDS0=    0 NMtDT0=    0
         I1Cent=           4 NGrid=           0.
 Petite list used in FoFCou.
 Initial guess orbital symmetries:
       Occupied  (A) (A) (A) (A) (A) (A) (A) (A) (A) (A) (A) (A)
                 (A) (A) (A) (A) (A) (A) (A) (A) (A) (A) (A) (A)
                 (A) (A) (A) (A) (A) (A) (A) (A) (A) (A) (A) (A)
                 (A)
       Virtual   (A) (A) (A) (A) (A) (A) (A) (A) (A) (A) (A) (A)
                 (A) (A) (A) (A) (A) (A) (A) (A) (A) (A) (A) (A)
                 (A) (A) (A) (A) (A) (A) (A) (A) (A) (A) (A) (A)
                 (A) (A) (A) (A) (A) (A) (A) (A) (A) (A) (A) (A)
                 (A) (A) (A) (A) (A) (A) (A) (A) (A) (A) (A) (A)
                 (A) (A) (A) (A) (A) (A) (A) (A) (A) (A) (A) (A)
                 (A) (A) (A) (A) (A) (A) (A) (A) (A) (A) (A) (A)
                 (A) (A) (A) (A) (A) (A) (A) (A) (A) (A) (A) (A)
                 (A) (A) (A) (A) (A) (A) (A) (A) (A) (A) (A) (A)
                 (A) (A) (A) (A) (A) (A) (A) (A) (A) (A) (A) (A)
                 (A) (A) (A) (A) (A) (A) (A) (A) (A) (A) (A) (A)
                 (A) (A) (A) (A) (A) (A) (A) (A) (A) (A) (A) (A)
                 (A) (A) (A) (A) (A) (A) (A) (A) (A) (A) (A) (A)
                 (A) (A) (A) (A) (A) (A) (A) (A)
 The electronic state of the initial guess is 1-A.
 Requested convergence on RMS density matrix=1.00D-08 within 128 cycles.
 Requested convergence on MAX density matrix=1.00D-06.
 Requested convergence on             energy=1.00D-06.
 No special actions if energy rises.
 Keep R1 ints in memory in canonical form, NReq=210486906.
 SCF Done:  E(RB3LYP) =  -762.034158833     A.U. after   13 cycles
             Convg  =    0.7892D-08             -V/T =  2.0076

 **********************************************************************

            Population analysis using the SCF density.

 **********************************************************************

 Orbital symmetries:
       Occupied  (A) (A) (A) (A) (A) (A) (A) (A) (A) (A) (A) (A)
                 (A) (A) (A) (A) (A) (A) (A) (A) (A) (A) (A) (A)
                 (A) (A) (A) (A) (A) (A) (A) (A) (A) (A) (A) (A)
                 (A)
       Virtual   (A) (A) (A) (A) (A) (A) (A) (A) (A) (A) (A) (A)
                 (A) (A) (A) (A) (A) (A) (A) (A) (A) (A) (A) (A)
                 (A) (A) (A) (A) (A) (A) (A) (A) (A) (A) (A) (A)
                 (A) (A) (A) (A) (A) (A) (A) (A) (A) (A) (A) (A)
                 (A) (A) (A) (A) (A) (A) (A) (A) (A) (A) (A) (A)
                 (A) (A) (A) (A) (A) (A) (A) (A) (A) (A) (A) (A)
                 (A) (A) (A) (A) (A) (A) (A) (A) (A) (A) (A) (A)
                 (A) (A) (A) (A) (A) (A) (A) (A) (A) (A) (A) (A)
                 (A) (A) (A) (A) (A) (A) (A) (A) (A) (A) (A) (A)
                 (A) (A) (A) (A) (A) (A) (A) (A) (A) (A) (A) (A)
                 (A) (A) (A) (A) (A) (A) (A) (A) (A) (A) (A) (A)
                 (A) (A) (A) (A) (A) (A) (A) (A) (A) (A) (A) (A)
                 (A) (A) (A) (A) (A) (A) (A) (A) (A) (A) (A) (A)
                 (A) (A) (A) (A) (A) (A) (A) (A)
 The electronic state is 1-A.
 Alpha  occ. eigenvalues --  -77.27643 -19.21731 -19.21532 -19.20977 -19.11314
 Alpha  occ. eigenvalues --  -10.25904 -10.25517 -10.25137  -6.71622  -4.88077
 Alpha  occ. eigenvalues --   -4.88049  -4.87764  -1.09512  -1.05567  -1.05166
 Alpha  occ. eigenvalues --   -0.92158  -0.73333  -0.71645  -0.70871  -0.60229
 Alpha  occ. eigenvalues --   -0.53581  -0.53286  -0.49063  -0.48013  -0.47694
 Alpha  occ. eigenvalues --   -0.46930  -0.46446  -0.45483  -0.41426  -0.38017
 Alpha  occ. eigenvalues --   -0.37189  -0.36522  -0.33574  -0.32709  -0.32364
 Alpha  occ. eigenvalues --   -0.27488  -0.26810
 Alpha virt. eigenvalues --   -0.03040   0.00414   0.00677   0.00959   0.03206
 Alpha virt. eigenvalues --    0.03674   0.04456   0.05648   0.06390   0.06685
 Alpha virt. eigenvalues --    0.07002   0.07134   0.08015   0.08907   0.09884
 Alpha virt. eigenvalues --    0.10740   0.11683   0.12243   0.13274   0.13661
 Alpha virt. eigenvalues --    0.16403   0.16582   0.17469   0.17808   0.18533
 Alpha virt. eigenvalues --    0.19291   0.19942   0.21807   0.22177   0.23084
 Alpha virt. eigenvalues --    0.23735   0.25059   0.25471   0.27019   0.28244
 Alpha virt. eigenvalues --    0.28460   0.29747   0.29944   0.31099   0.31820
 Alpha virt. eigenvalues --    0.32505   0.33817   0.34380   0.35074   0.37235
 Alpha virt. eigenvalues --    0.39091   0.39711   0.42562   0.53643   0.54799
 Alpha virt. eigenvalues --    0.55837   0.59259   0.61697   0.64916   0.65039
 Alpha virt. eigenvalues --    0.65807   0.68915   0.69820   0.71277   0.72424
 Alpha virt. eigenvalues --    0.79878   0.81494   0.85547   0.89711   0.91435
 Alpha virt. eigenvalues --    0.91957   0.92404   0.93610   0.95319   0.95877
 Alpha virt. eigenvalues --    0.99105   1.01127   1.07188   1.07434   1.08306
 Alpha virt. eigenvalues --    1.16626   1.18457   1.19577   1.20627   1.21050
 Alpha virt. eigenvalues --    1.21156   1.23702   1.29304   1.31020   1.31540
 Alpha virt. eigenvalues --    1.33293   1.34623   1.37358   1.39444   1.40048
 Alpha virt. eigenvalues --    1.43490   1.45683   1.49563   1.51118   1.54656
 Alpha virt. eigenvalues --    1.58171   1.63055   1.65449   1.68381   1.73224
 Alpha virt. eigenvalues --    1.77776   1.83321   1.87328   1.88375   1.90078
 Alpha virt. eigenvalues --    1.91385   1.91747   1.92717   1.95733   1.96992
 Alpha virt. eigenvalues --    1.97813   1.98661   1.99310   2.01243   2.02071
 Alpha virt. eigenvalues --    2.02731   2.03882   2.08066   2.08635   2.10785
 Alpha virt. eigenvalues --    2.11729   2.12698   2.13566   2.17832   2.19447
 Alpha virt. eigenvalues --    2.30535   2.47150   2.51835   2.53918   2.54723
 Alpha virt. eigenvalues --    2.56040   2.56555   2.57218   2.59602   2.62615
 Alpha virt. eigenvalues --    2.63425   2.64708   2.76960   2.78924   2.80878
 Alpha virt. eigenvalues --    2.81655   2.85163   2.86509   2.86746   2.87972
 Alpha virt. eigenvalues --    2.90097   2.91128   3.21551   3.22588   3.23242
 Alpha virt. eigenvalues --    3.40353   3.40687   3.41985   3.43118   3.44285
 Alpha virt. eigenvalues --    3.44992   3.62670   4.12980   4.17146   4.22885
 Alpha virt. eigenvalues --    4.23254   4.51928   4.53663   4.56031
          Condensed to atoms (all electrons):
              1          2          3          4          5          6
     1  P   12.786413   0.509001   0.047900   0.110144   0.038748  -0.039310
     2  O    0.509001   8.507606  -0.071649  -0.041634  -0.071972   0.000885
     3  O    0.047900  -0.071649   8.672934  -0.082061   0.002286  -0.009531
     4  O    0.110144  -0.041634  -0.082061   8.693450  -0.032451   0.082199
     5  O    0.038748  -0.071972   0.002286  -0.032451   8.678274  -0.005357
     6  C   -0.039310   0.000885  -0.009531   0.082199  -0.005357   4.991586
     7  C   -0.050231  -0.027429   0.098773  -0.001086   0.005750   0.000531
     8  C   -0.075567  -0.023770   0.025179  -0.025003   0.066972   0.007328
     9  H   -0.003013  -0.000317  -0.001724  -0.048269  -0.000350   0.410066
    10  H   -0.020824  -0.000634   0.002843  -0.050582   0.003242   0.416170
    11  H   -0.009625   0.002541   0.002144  -0.052287  -0.000323   0.416826
    12  H   -0.004590   0.000463  -0.049173  -0.000245  -0.000099   0.000266
    13  H   -0.014343  -0.001689  -0.054090   0.000286   0.003118  -0.000423
    14  H    0.001717   0.005012  -0.051453  -0.000057  -0.001367  -0.000034
    15  H   -0.002458   0.000476  -0.000361  -0.000812  -0.048392  -0.000207
    16  H   -0.017489  -0.001695   0.000147   0.003739  -0.055148   0.001126
    17  H   -0.004854   0.004559   0.000336   0.000369  -0.050781   0.000436
              7          8          9         10         11         12
     1  P   -0.050231  -0.075567  -0.003013  -0.020824  -0.009625  -0.004590
     2  O   -0.027429  -0.023770  -0.000317  -0.000634   0.002541   0.000463
     3  O    0.098773   0.025179  -0.001724   0.002843   0.002144  -0.049173
     4  O   -0.001086  -0.025003  -0.048269  -0.050582  -0.052287  -0.000245
     5  O    0.005750   0.066972  -0.000350   0.003242  -0.000323  -0.000099
     6  C    0.000531   0.007328   0.410066   0.416170   0.416826   0.000266
     7  C    5.016539  -0.001925  -0.000503   0.001255   0.001236   0.409703
     8  C   -0.001925   5.074769  -0.000069   0.001308  -0.000977   0.000112
     9  H   -0.000503  -0.000069   0.548763  -0.030812  -0.030934   0.000000
    10  H    0.001255   0.001308  -0.030812   0.555705  -0.037385   0.000010
    11  H    0.001236  -0.000977  -0.030934  -0.037385   0.537760   0.000003
    12  H    0.409703   0.000112   0.000000   0.000010   0.000003   0.547258
    13  H    0.421960  -0.000777   0.000000  -0.000019  -0.000001  -0.029991
    14  H    0.411164  -0.000336   0.000000   0.000000  -0.000011  -0.029808
    15  H    0.000791   0.407384   0.000000   0.000001   0.000000   0.000000
    16  H   -0.000712   0.423118   0.000008  -0.000030   0.000002   0.000000
    17  H    0.000155   0.414247   0.000000   0.000000   0.000000   0.000000
             13         14         15         16         17
     1  P   -0.014343   0.001717  -0.002458  -0.017489  -0.004854
     2  O   -0.001689   0.005012   0.000476  -0.001695   0.004559
     3  O   -0.054090  -0.051453  -0.000361   0.000147   0.000336
     4  O    0.000286  -0.000057  -0.000812   0.003739   0.000369
     5  O    0.003118  -0.001367  -0.048392  -0.055148  -0.050781
     6  C   -0.000423  -0.000034  -0.000207   0.001126   0.000436
     7  C    0.421960   0.411164   0.000791  -0.000712   0.000155
     8  C   -0.000777  -0.000336   0.407384   0.423118   0.414247
     9  H    0.000000   0.000000   0.000000   0.000008   0.000000
    10  H   -0.000019   0.000000   0.000001  -0.000030   0.000000
    11  H   -0.000001  -0.000011   0.000000   0.000002   0.000000
    12  H   -0.029991  -0.029808   0.000000   0.000000   0.000000
    13  H    0.542867  -0.034744   0.000009  -0.000006   0.000006
    14  H   -0.034744   0.509499  -0.000001   0.000000   0.000002
    15  H    0.000009  -0.000001   0.549182  -0.030218  -0.030127
    16  H   -0.000006   0.000000  -0.030218   0.547331  -0.035711
    17  H    0.000006   0.000002  -0.030127  -0.035711   0.511668
 Mulliken atomic charges:
              1
     1  P    1.748381
     2  O   -0.789755
     3  O   -0.532499
     4  O   -0.555700
     5  O   -0.532151
     6  C   -0.272558
     7  C   -0.285971
     8  C   -0.291993
     9  H    0.157155
    10  H    0.159750
    11  H    0.171030
    12  H    0.156091
    13  H    0.167836
    14  H    0.190416
    15  H    0.154734
    16  H    0.165538
    17  H    0.189695
 Sum of Mulliken atomic charges =   0.00000
 Mulliken charges with hydrogens summed into heavy atoms:
              1
     1  P    1.748381
     2  O   -0.789755
     3  O   -0.532499
     4  O   -0.555700
     5  O   -0.532151
     6  C    0.215377
     7  C    0.228372
     8  C    0.217974
 Sum of Mulliken charges with hydrogens summed into heavy atoms =   0.00000
 Electronic spatial extent (au):  <R**2>=           1159.0918
 Charge=              0.0000 electrons
 Dipole moment (field-independent basis, Debye):
    X=             -0.5465    Y=              0.6406    Z=             -3.5711  Tot=              3.6690
 Quadrupole moment (field-independent basis, Debye-Ang):
   XX=            -47.3335   YY=            -48.4047   ZZ=            -64.4745
   XY=              0.0484   XZ=             -0.6583   YZ=              0.5525
 Traceless Quadrupole moment (field-independent basis, Debye-Ang):
   XX=              6.0707   YY=              4.9995   ZZ=            -11.0702
   XY=              0.0484   XZ=             -0.6583   YZ=              0.5525
 Octapole moment (field-independent basis, Debye-Ang**2):
  XXX=             15.9940  YYY=              7.6149  ZZZ=            -13.9376  XYY=            -16.3769
  XXY=             -8.6309  XXZ=             -1.9666  XZZ=             -2.5213  YZZ=              4.0920
  YYZ=             -5.1178  XYZ=             -0.7080
 Hexadecapole moment (field-independent basis, Debye-Ang**3):
 XXXX=           -589.4458 YYYY=           -554.6234 ZZZZ=           -254.3766 XXXY=              2.7063
 XXXZ=             -7.1875 YYYX=             -0.5117 YYYZ=             -2.0820 ZZZX=             -2.0025
 ZZZY=              5.4959 XXYY=           -189.5811 XXZZ=           -145.6075 YYZZ=           -141.9131
 XXYZ=              5.5873 YYXZ=              2.0617 ZZXY=             -0.0755
 N-N= 5.335935820533D+02 E-N=-2.862851251790D+03  KE= 7.562827846046D+02
 Calling FoFJK, ICntrl=      2127 FMM=F ISym2X=0 I1Cent= 0 IOpClX= 0 NMat=1 NMatS=1 NMatT=0.
 ***** Axes restored to original set *****
 -------------------------------------------------------------------
 Center     Atomic                   Forces (Hartrees/Bohr)
 Number     Number              X              Y              Z
 -------------------------------------------------------------------
      1       15          -0.002944122    0.116512291    0.002294265
      2        8          -0.002461475   -0.093679238   -0.004356468
      3        8          -0.050658114   -0.008348419    0.003156397
      4        8           0.029032732   -0.002478056   -0.040882648
      5        8           0.026199112   -0.006387218    0.036651203
      6        6           0.003275932   -0.010490018    0.013703684
      7        6           0.010181923    0.005137565   -0.012765160
      8        6          -0.014039030    0.004475959   -0.003698403
      9        1          -0.003936073    0.002401310   -0.001508118
     10        1           0.001827116   -0.002307835    0.000404409
     11        1           0.001224467    0.000154458    0.000270001
     12        1          -0.000849179   -0.003497996    0.005242636
     13        1          -0.000621075   -0.000618743   -0.001101579
     14        1          -0.002101105    0.001446623    0.001518298
     15        1           0.004642165   -0.003415766   -0.001837234
     16        1          -0.000707953   -0.000674154    0.001607279
     17        1           0.001934681    0.001769236    0.001301437
 -------------------------------------------------------------------
 Cartesian Forces:  Max     0.116512291 RMS     0.024492094

 GradGradGradGradGradGradGradGradGradGradGradGradGradGradGradGradGradGrad
 Berny optimization.
 Internal  Forces:  Max     0.093776311 RMS     0.016968090
 Search for a local minimum.
 Step number   1 out of a maximum of   71
 All quantities printed in internal units (Hartrees-Bohrs-Radians)
 Mixed Optimization -- RFO/linear search
 Second derivative matrix not updated -- first step.
     Eigenvalues ---    0.01206   0.01210   0.01232   0.02239   0.02240
     Eigenvalues ---    0.02250   0.10038   0.10042   0.10065   0.10373
     Eigenvalues ---    0.10375   0.10385   0.11033   0.13690   0.13976
     Eigenvalues ---    0.16000   0.16000   0.16000   0.16000   0.16000
     Eigenvalues ---    0.16000   0.16000   0.16000   0.16000   0.22134
     Eigenvalues ---    0.22348   0.25000   0.25000   0.25000   0.34626
     Eigenvalues ---    0.34659   0.34663   0.34672   0.34707   0.34716
     Eigenvalues ---    0.34721   0.34744   0.34781   0.37280   0.37292
     Eigenvalues ---    0.37387   0.40040   0.40084   0.40317   0.50912
     Eigenvalues --- 1000.000001000.000001000.000001000.000001000.00000
     Eigenvalues --- 1000.000001000.000001000.000001000.000001000.00000
     Eigenvalues --- 1000.000001000.000001000.000001000.000001000.00000
     Eigenvalues --- 1000.00000
 RFO step:  Lambda=-4.84667963D-02 EMin= 1.20615263D-02
 Linear search not attempted -- first point.
 Maximum step size (   0.300) exceeded in Quadratic search.
    -- Step size scaled by   0.716
 Iteration  1 RMS(Cart)=  0.07002229 RMS(Int)=  0.00333379
 Iteration  2 RMS(Cart)=  0.00591881 RMS(Int)=  0.00123251
 Iteration  3 RMS(Cart)=  0.00000677 RMS(Int)=  0.00123250
 Iteration  4 RMS(Cart)=  0.00000000 RMS(Int)=  0.00123250
 Variable       Old X    -DE/DX   Delta X   Delta X   Delta X     New X
                                 (Linear)    (Quad)   (Total)
    R1        3.02656  -0.09378   0.00000  -0.12034  -0.12034   2.90623
    R2        3.19108  -0.03951   0.00000  -0.06709  -0.06709   3.12399
    R3        3.19126  -0.03378   0.00000  -0.05738  -0.05738   3.13388
    R4        3.18967  -0.03527   0.00000  -0.05975  -0.05975   3.12992
    R5        2.71499   0.00977   0.00000   0.01558   0.01558   2.73057
    R6        2.71125   0.01471   0.00000   0.02330   0.02330   2.73456
    R7        2.71439   0.00845   0.00000   0.01346   0.01346   2.72785
    R8        2.06226   0.00019   0.00000   0.00034   0.00034   2.06260
    R9        2.06032   0.00223   0.00000   0.00403   0.00403   2.06435
   R10        2.06286   0.00114   0.00000   0.00206   0.00206   2.06492
   R11        2.06131   0.00054   0.00000   0.00098   0.00098   2.06228
   R12        2.06231   0.00140   0.00000   0.00253   0.00253   2.06484
   R13        2.06152   0.00135   0.00000   0.00245   0.00245   2.06397
   R14        2.06138   0.00062   0.00000   0.00112   0.00112   2.06250
   R15        2.06211   0.00187   0.00000   0.00338   0.00338   2.06549
   R16        2.06093   0.00170   0.00000   0.00308   0.00308   2.06401
    A1        1.90367   0.01568   0.00000   0.06380   0.06503   1.96869
    A2        1.88664   0.01279   0.00000   0.05865   0.05937   1.94601
    A3        1.91194   0.00895   0.00000   0.04595   0.04657   1.95850
    A4        1.94463  -0.01756   0.00000  -0.06825  -0.07197   1.87266
    A5        1.90892  -0.01454   0.00000  -0.06210  -0.06607   1.84285
    A6        1.90775  -0.00455   0.00000  -0.03454  -0.03940   1.86836
    A7        1.93737   0.01578   0.00000   0.03782   0.03782   1.97519
    A8        1.95350   0.03279   0.00000   0.07861   0.07861   2.03210
    A9        1.93847   0.01608   0.00000   0.03855   0.03855   1.97703
   A10        1.89321  -0.00830   0.00000  -0.02977  -0.02976   1.86345
   A11        1.93266   0.00428   0.00000   0.01557   0.01555   1.94821
   A12        1.93148   0.00135   0.00000   0.00509   0.00502   1.93650
   A13        1.89363   0.00138   0.00000   0.00391   0.00397   1.89760
   A14        1.89395   0.00194   0.00000   0.00496   0.00492   1.89887
   A15        1.91792  -0.00079   0.00000  -0.00035  -0.00043   1.91748
   A16        1.89153  -0.00916   0.00000  -0.03232  -0.03240   1.85914
   A17        1.93370   0.00201   0.00000   0.00738   0.00736   1.94106
   A18        1.93453  -0.00189   0.00000  -0.00607  -0.00615   1.92838
   A19        1.89399   0.00291   0.00000   0.00918   0.00916   1.90315
   A20        1.89424   0.00469   0.00000   0.01516   0.01502   1.90926
   A21        1.91481   0.00149   0.00000   0.00675   0.00673   1.92153
   A22        1.89218  -0.00861   0.00000  -0.03024  -0.03031   1.86187
   A23        1.93387   0.00148   0.00000   0.00533   0.00531   1.93917
   A24        1.93345  -0.00131   0.00000  -0.00406  -0.00412   1.92934
   A25        1.89327   0.00283   0.00000   0.00883   0.00880   1.90207
   A26        1.89401   0.00454   0.00000   0.01509   0.01499   1.90900
   A27        1.91601   0.00113   0.00000   0.00514   0.00512   1.92114
    D1       -1.06780   0.00243   0.00000   0.01769   0.01768  -1.05012
    D2        3.13402  -0.01268   0.00000  -0.05394  -0.05082   3.08321
    D3        1.02292   0.01407   0.00000   0.07489   0.07179   1.09470
    D4       -2.09194  -0.00052   0.00000  -0.00270  -0.00235  -2.09429
    D5       -0.00048   0.01640   0.00000   0.07230   0.06996   0.06948
    D6        2.11131  -0.01617   0.00000  -0.07254  -0.07056   2.04075
    D7       -1.05051   0.00040   0.00000   0.00869   0.00844  -1.04207
    D8       -3.13614  -0.01535   0.00000  -0.05934  -0.05724   3.08981
    D9        1.01369   0.01850   0.00000   0.08649   0.08463   1.09832
   D10        3.14099  -0.00053   0.00000  -0.00595  -0.00585   3.13513
   D11       -1.06604  -0.00145   0.00000  -0.01035  -0.01035  -1.07639
   D12        1.06403   0.00053   0.00000  -0.00087  -0.00097   1.06306
   D13       -3.14158  -0.00046   0.00000  -0.00301  -0.00293   3.13868
   D14       -1.06544  -0.00137   0.00000  -0.00740  -0.00751  -1.07295
   D15        1.06578   0.00148   0.00000   0.00627   0.00630   1.07208
   D16        3.14022  -0.00019   0.00000  -0.00329  -0.00323   3.13699
   D17       -1.06718  -0.00118   0.00000  -0.00804  -0.00803  -1.07522
   D18        1.06379   0.00036   0.00000  -0.00064  -0.00070   1.06309
         Item               Value     Threshold  Converged?
 Maximum Force            0.093776     0.000450     NO 
 RMS     Force            0.016968     0.000300     NO 
 Maximum Displacement     0.216766     0.001800     NO 
 RMS     Displacement     0.071494     0.001200     NO 
 Predicted change in Energy=-2.422224D-02
 GradGradGradGradGradGradGradGradGradGradGradGradGradGradGradGradGradGrad

                          Input orientation:                          
 ---------------------------------------------------------------------
 Center     Atomic      Atomic             Coordinates (Angstroms)
 Number     Number       Type             X           Y           Z
 ---------------------------------------------------------------------
      1         15           0       -0.021625    0.304518    0.068935
      2          8           0       -0.020555    1.841785    0.113372
      3          8           0        1.501241   -0.335513    0.004626
      4          8           0       -0.772145   -0.341423    1.399235
      5          8           0       -0.807945   -0.282816   -1.265234
      6          6           0        0.032077   -1.205301    2.236458
      7          6           0        2.246713    0.086678   -1.158954
      8          6           0       -2.191074    0.124000   -1.337266
      9          1           0       -0.608934   -1.535322    3.055922
     10          1           0        0.382247   -2.083705    1.689526
     11          1           0        0.884478   -0.662927    2.652700
     12          1           0        3.226524   -0.388773   -1.089101
     13          1           0        1.757952   -0.237718   -2.080803
     14          1           0        2.369575    1.171951   -1.161192
     15          1           0       -2.599321   -0.314146   -2.249722
     16          1           0       -2.756414   -0.249642   -0.479681
     17          1           0       -2.268188    1.212137   -1.391793
 ---------------------------------------------------------------------
                    Distance matrix (angstroms):
                    1          2          3          4          5
     1  P    0.000000
     2  O    1.537910   0.000000
     3  O    1.653147   2.658631   0.000000
     4  O    1.658378   2.642863   2.667068   0.000000
     5  O    1.656281   2.652258   2.635841   2.665354   0.000000
     6  C    2.642081   3.714162   2.809990   1.447066   3.717319
     7  C    2.588537   3.136833   1.444955   3.980089   3.078759
     8  C    2.591621   3.125107   3.955378   3.117438   1.443515
     9  H    3.556971   4.517703   3.899075   2.048572   4.503417
    10  H    2.914282   4.249234   2.673427   2.110080   3.659285
    11  H    2.903930   3.679789   2.738593   2.102126   4.284738
    12  H    3.517410   4.118842   2.043448   4.709927   4.039702
    13  H    2.842935   3.507396   2.103444   4.303813   2.692770
    14  H    2.825507   2.790326   2.094179   4.326256   3.496256
    15  H    3.521851   4.108807   4.679439   4.080956   2.044316
    16  H    2.843791   3.494382   4.285971   2.734241   2.101125
    17  H    2.829230   2.777379   4.307412   3.527256   2.093612
                    6          7          8          9         10
     6  C    0.000000
     7  C    4.254721   0.000000
     8  C    4.413722   4.441525   0.000000
     9  H    1.091481   5.343294   4.955464   0.000000
    10  H    1.092405   4.037405   4.545043   1.774881   0.000000
    11  H    1.092709   4.116588   5.098833   1.775933   1.788449
    12  H    4.683007   1.091313   5.447467   5.762511   4.322439
    13  H    4.749063   1.092669   4.034662   5.802746   4.417647
    14  H    4.760173   1.092207   4.682812   5.829657   4.761866
    15  H    5.276762   4.983421   1.091427   5.796790   5.247739
    16  H    4.008288   5.060218   1.093009   4.331874   4.233254
    17  H    4.929445   4.658884   1.092228   5.484873   5.232773
                   11         12         13         14         15
    11  H    0.000000
    12  H    4.422829   0.000000
    13  H    4.832163   1.778481   0.000000
    14  H    4.485316   1.781970   1.790791   0.000000
    15  H    6.024304   5.940799   4.361216   5.299369   0.000000
    16  H    4.820654   6.015505   4.789909   5.362942   1.778169
    17  H    5.460136   5.731178   4.334353   4.643666   1.781918
                   16         17
    16  H    0.000000
    17  H    1.790841   0.000000
 Stoichiometry    C3H9O4P
 Framework group  C1[X(C3H9O4P)]
 Deg. of freedom    45
 Full point group                 C1      NOp   1
 Largest Abelian subgroup         C1      NOp   1
 Largest concise Abelian subgroup C1      NOp   1
                         Standard orientation:                         
 ---------------------------------------------------------------------
 Center     Atomic      Atomic             Coordinates (Angstroms)
 Number     Number       Type             X           Y           Z
 ---------------------------------------------------------------------
      1         15           0        0.036223   -0.025694    0.274143
      2          8           0        0.283039   -0.482076    1.721887
      3          8           0       -1.393801   -0.584576   -0.338699
      4          8           0        0.011262    1.628149    0.154145
      5          8           0        1.207724   -0.570155   -0.762398
      6          6           0       -1.212794    2.219577   -0.341739
      7          6           0       -1.475487   -2.026956   -0.366330
      8          6           0        2.532748   -0.114169   -0.415809
      9          1           0       -1.058358    3.300016   -0.353222
     10          1           0       -1.438030    1.886709   -1.357523
     11          1           0       -2.052766    1.990974    0.318717
     12          1           0       -2.454821   -2.274463   -0.779378
     13          1           0       -0.700131   -2.454705   -1.006471
     14          1           0       -1.394660   -2.433858    0.644023
     15          1           0        3.213074   -0.535321   -1.158104
     16          1           0        2.596170    0.976340   -0.453694
     17          1           0        2.813577   -0.471734    0.577289
 ---------------------------------------------------------------------
 Rotational constants (GHZ):      1.8381041      1.7431789      1.2023896
 Standard basis: 6-31+G(d,p) (6D, 7F)
 There are   201 symmetry adapted basis functions of A   symmetry.
 Integral buffers will be    131072 words long.
 Raffenetti 2 integral format.
 Two-electron integral symmetry is turned on.
   201 basis functions,   343 primitive gaussians,   201 cartesian basis functions
    37 alpha electrons       37 beta electrons
       nuclear repulsion energy       538.4506269150 Hartrees.
 NAtoms=   17 NActive=   17 NUniq=   17 SFac= 7.50D-01 NAtFMM=   80 NAOKFM=F Big=F
 One-electron integrals computed using PRISM.
 NBasis=   201 RedAO= T  NBF=   201
 NBsUse=   201 1.00D-06 NBFU=   201
 Initial guess read from the read-write file.
 B after Tr=     0.000000    0.000000    0.000000
         Rot=    1.000000    0.000000    0.000000    0.000000 Ang=   0.00 deg.
 Initial guess orbital symmetries:
       Occupied  (A) (A) (A) (A) (A) (A) (A) (A) (A) (A) (A) (A)
                 (A) (A) (A) (A) (A) (A) (A) (A) (A) (A) (A) (A)
                 (A) (A) (A) (A) (A) (A) (A) (A) (A) (A) (A) (A)
                 (A)
       Virtual   (A) (A) (A) (A) (A) (A) (A) (A) (A) (A) (A) (A)
                 (A) (A) (A) (A) (A) (A) (A) (A) (A) (A) (A) (A)
                 (A) (A) (A) (A) (A) (A) (A) (A) (A) (A) (A) (A)
                 (A) (A) (A) (A) (A) (A) (A) (A) (A) (A) (A) (A)
                 (A) (A) (A) (A) (A) (A) (A) (A) (A) (A) (A) (A)
                 (A) (A) (A) (A) (A) (A) (A) (A) (A) (A) (A) (A)
                 (A) (A) (A) (A) (A) (A) (A) (A) (A) (A) (A) (A)
                 (A) (A) (A) (A) (A) (A) (A) (A) (A) (A) (A) (A)
                 (A) (A) (A) (A) (A) (A) (A) (A) (A) (A) (A) (A)
                 (A) (A) (A) (A) (A) (A) (A) (A) (A) (A) (A) (A)
                 (A) (A) (A) (A) (A) (A) (A) (A) (A) (A) (A) (A)
                 (A) (A) (A) (A) (A) (A) (A) (A) (A) (A) (A) (A)
                 (A) (A) (A) (A) (A) (A) (A) (A) (A) (A) (A) (A)
                 (A) (A) (A) (A) (A) (A) (A) (A)
 Harris functional with IExCor=  402 diagonalized for initial guess.
 ExpMin= 3.48D-02 ExpMax= 1.94D+04 ExpMxC= 2.91D+03 IAcc=3 IRadAn=         0 AccDes= 0.00D+00
 HarFok:  IExCor=  402 AccDes= 0.00D+00 IRadAn=         0 IDoV= 1
 ScaDFX=  1.000000  1.000000  1.000000  1.000000
 FoFCou: FMM=F IPFlag=           0 FMFlag=      100000 FMFlg1=           0
         NFxFlg=           0 DoJE=T BraDBF=F KetDBF=T FulRan=T
         Omega=  0.000000  0.000000  1.000000  0.000000  0.000000 ICntrl=     500 IOpCl=  0
         NMat0=    1 NMatS0=    1 NMatT0=    0 NMatD0=    1 NMtDS0=    0 NMtDT0=    0
         I1Cent=           4 NGrid=           0.
 Petite list used in FoFCou.
 Requested convergence on RMS density matrix=1.00D-08 within 128 cycles.
 Requested convergence on MAX density matrix=1.00D-06.
 Requested convergence on             energy=1.00D-06.
 No special actions if energy rises.
 Keep R1 ints in memory in canonical form, NReq=210486906.
 SCF Done:  E(RB3LYP) =  -762.062040538     A.U. after   12 cycles
             Convg  =    0.2431D-08             -V/T =  2.0074
 Calling FoFJK, ICntrl=      2127 FMM=F ISym2X=0 I1Cent= 0 IOpClX= 0 NMat=1 NMatS=1 NMatT=0.
 ***** Axes restored to original set *****
 -------------------------------------------------------------------
 Center     Atomic                   Forces (Hartrees/Bohr)
 Number     Number              X              Y              Z
 -------------------------------------------------------------------
      1       15          -0.001109087    0.058973499    0.005174168
      2        8          -0.002185422   -0.054298411   -0.002858806
      3        8          -0.033346321   -0.001004486   -0.002203668
      4        8           0.024187359   -0.001516666   -0.024845068
      5        8           0.013392880   -0.000745368    0.025772537
      6        6          -0.001917062   -0.005069066    0.008040132
      7        6           0.009129420    0.001113883   -0.004296369
      8        6          -0.006849324    0.001062630   -0.006064644
      9        1          -0.002161351    0.001755956   -0.001086912
     10        1           0.000288411    0.000630921   -0.001271208
     11        1           0.000109203    0.000549921   -0.001015767
     12        1          -0.000706304   -0.000844033    0.001952620
     13        1          -0.001300977   -0.000471581    0.000621969
     14        1          -0.001120001    0.000517724    0.000687375
     15        1           0.001925580   -0.000885798   -0.000292732
     16        1           0.000804514   -0.000446051    0.000990219
     17        1           0.000858481    0.000676925    0.000696154
 -------------------------------------------------------------------
 Cartesian Forces:  Max     0.058973499 RMS     0.013964525

 GradGradGradGradGradGradGradGradGradGradGradGradGradGradGradGradGradGrad
 Berny optimization.
 Using GEDIIS/GDIIS optimizer.
 Internal  Forces:  Max     0.054359917 RMS     0.010138432
 Search for a local minimum.
 Step number   2 out of a maximum of   71
 All quantities printed in internal units (Hartrees-Bohrs-Radians)
 Mixed Optimization -- RFO/linear search
 Update second derivatives using D2CorX and points    1    2
 DE= -2.79D-02 DEPred=-2.42D-02 R= 1.15D+00
 SS=  1.41D+00  RLast= 3.00D-01 DXNew= 5.0454D-01 8.9861D-01
 Trust test= 1.15D+00 RLast= 3.00D-01 DXMaxT set to 5.05D-01
 Use linear search instead of GDIIS.
     Eigenvalues ---    0.01206   0.01211   0.01232   0.02235   0.02240
     Eigenvalues ---    0.02247   0.09897   0.10018   0.10046   0.10524
     Eigenvalues ---    0.10549   0.10562   0.11419   0.13136   0.13326
     Eigenvalues ---    0.15869   0.16000   0.16000   0.16000   0.16000
     Eigenvalues ---    0.16000   0.16000   0.16000   0.16798   0.21195
     Eigenvalues ---    0.21807   0.22609   0.25000   0.25196   0.32454
     Eigenvalues ---    0.34631   0.34662   0.34664   0.34678   0.34709
     Eigenvalues ---    0.34718   0.34726   0.34747   0.34806   0.37318
     Eigenvalues ---    0.37397   0.40046   0.40087   0.41156   0.46588
     Eigenvalues --- 1000.000001000.000001000.000001000.000001000.00000
     Eigenvalues --- 1000.000001000.000001000.000001000.000001000.00000
     Eigenvalues --- 1000.000001000.000001000.000001000.000001000.00000
     Eigenvalues --- 1000.00000
 RFO step:  Lambda=-3.46201267D-03 EMin= 1.20648018D-02
 Quartic linear search produced a step of  1.03958.
 Iteration  1 RMS(Cart)=  0.07959860 RMS(Int)=  0.00489984
 Iteration  2 RMS(Cart)=  0.00781699 RMS(Int)=  0.00230859
 Iteration  3 RMS(Cart)=  0.00002067 RMS(Int)=  0.00230855
 Iteration  4 RMS(Cart)=  0.00000002 RMS(Int)=  0.00230855
 Variable       Old X    -DE/DX   Delta X   Delta X   Delta X     New X
                                 (Linear)    (Quad)   (Total)
    R1        2.90623  -0.05436  -0.12510  -0.02582  -0.15092   2.75531
    R2        3.12399  -0.02478  -0.06974  -0.02210  -0.09185   3.03215
    R3        3.13388  -0.02403  -0.05965  -0.03439  -0.09404   3.03984
    R4        3.12992  -0.02171  -0.06212  -0.01748  -0.07960   3.05032
    R5        2.73057   0.00401   0.01619  -0.00546   0.01074   2.74130
    R6        2.73456   0.00192   0.02423  -0.02886  -0.00463   2.72993
    R7        2.72785   0.00348   0.01399  -0.00467   0.00932   2.73717
    R8        2.06260  -0.00007   0.00036  -0.00102  -0.00067   2.06193
    R9        2.06435   0.00022   0.00419  -0.00555  -0.00136   2.06298
   R10        2.06492  -0.00004   0.00214  -0.00372  -0.00158   2.06334
   R11        2.06228  -0.00014   0.00101  -0.00246  -0.00145   2.06083
   R12        2.06484   0.00020   0.00263  -0.00316  -0.00053   2.06432
   R13        2.06397   0.00038   0.00254  -0.00194   0.00060   2.06457
   R14        2.06250  -0.00012   0.00116  -0.00263  -0.00147   2.06103
   R15        2.06549   0.00051   0.00351  -0.00279   0.00073   2.06621
   R16        2.06401   0.00059   0.00320  -0.00181   0.00139   2.06541
    A1        1.96869   0.01023   0.06760   0.00404   0.07356   2.04226
    A2        1.94601   0.00718   0.06172  -0.01225   0.05064   1.99666
    A3        1.95850   0.00481   0.04841  -0.01367   0.03583   1.99433
    A4        1.87266  -0.01109  -0.07482   0.00702  -0.07427   1.79840
    A5        1.84285  -0.00957  -0.06869   0.00681  -0.06876   1.77409
    A6        1.86836  -0.00363  -0.04096   0.01012  -0.03942   1.82893
    A7        1.97519   0.01293   0.03932   0.03473   0.07405   2.04924
    A8        2.03210   0.01958   0.08172   0.01325   0.09497   2.12707
    A9        1.97703   0.01283   0.04008   0.03253   0.07261   2.04964
   A10        1.86345  -0.00383  -0.03094   0.01785  -0.01321   1.85024
   A11        1.94821  -0.00082   0.01617  -0.04465  -0.02879   1.91942
   A12        1.93650  -0.00054   0.00522  -0.01881  -0.01391   1.92260
   A13        1.89760   0.00249   0.00412   0.02536   0.02938   1.92698
   A14        1.89887   0.00215   0.00512   0.01929   0.02426   1.92313
   A15        1.91748   0.00060  -0.00045   0.00391   0.00297   1.92045
   A16        1.85914  -0.00265  -0.03368   0.03746   0.00367   1.86281
   A17        1.94106  -0.00154   0.00765  -0.03610  -0.02859   1.91247
   A18        1.92838  -0.00093  -0.00639   0.00084  -0.00576   1.92263
   A19        1.90315   0.00197   0.00952   0.00660   0.01607   1.91922
   A20        1.90926   0.00199   0.01561  -0.00400   0.01143   1.92069
   A21        1.92153   0.00115   0.00699  -0.00321   0.00355   1.92509
   A22        1.86187  -0.00259  -0.03151   0.03347   0.00187   1.86374
   A23        1.93917  -0.00125   0.00552  -0.02799  -0.02258   1.91659
   A24        1.92934  -0.00062  -0.00428   0.00061  -0.00381   1.92553
   A25        1.90207   0.00174   0.00915   0.00406   0.01315   1.91522
   A26        1.90900   0.00189   0.01559  -0.00559   0.00988   1.91888
   A27        1.92114   0.00083   0.00533  -0.00329   0.00189   1.92303
    D1       -1.05012   0.00195   0.01838   0.01626   0.03469  -1.01543
    D2        3.08321  -0.00590  -0.05283   0.02417  -0.02233   3.06088
    D3        1.09470   0.00759   0.07463   0.00638   0.07461   1.16932
    D4       -2.09429  -0.00084  -0.00244  -0.01992  -0.02184  -2.11613
    D5        0.06948   0.00896   0.07272  -0.01791   0.05012   0.11959
    D6        2.04075  -0.00886  -0.07335  -0.00209  -0.07126   1.96950
    D7       -1.04207   0.00119   0.00878   0.03520   0.04365  -0.99842
    D8        3.08981  -0.00793  -0.05951   0.03385  -0.02136   3.06845
    D9        1.09832   0.01069   0.08798   0.01826   0.10228   1.20059
   D10        3.13513  -0.00017  -0.00609   0.01734   0.01137  -3.13669
   D11       -1.07639  -0.00024  -0.01076   0.02809   0.01718  -1.05921
   D12        1.06306  -0.00049  -0.00101  -0.00038  -0.00135   1.06170
   D13        3.13868  -0.00008  -0.00305   0.01373   0.01072  -3.13379
   D14       -1.07295   0.00012  -0.00781   0.03049   0.02238  -1.05057
   D15        1.07208  -0.00008   0.00655  -0.00983  -0.00301   1.06907
   D16        3.13699  -0.00003  -0.00336   0.01097   0.00766  -3.13853
   D17       -1.07522  -0.00019  -0.00835   0.02060   0.01218  -1.06304
   D18        1.06309  -0.00042  -0.00073  -0.00250  -0.00321   1.05988
         Item               Value     Threshold  Converged?
 Maximum Force            0.054360     0.000450     NO 
 RMS     Force            0.010138     0.000300     NO 
 Maximum Displacement     0.211058     0.001800     NO 
 RMS     Displacement     0.082542     0.001200     NO 
 Predicted change in Energy=-1.540384D-02
 GradGradGradGradGradGradGradGradGradGradGradGradGradGradGradGradGradGrad

                          Input orientation:                          
 ---------------------------------------------------------------------
 Center     Atomic      Atomic             Coordinates (Angstroms)
 Number     Number       Type             X           Y           Z
 ---------------------------------------------------------------------
      1         15           0       -0.033109    0.411428    0.099310
      2          8           0       -0.062615    1.868426    0.146025
      3          8           0        1.408167   -0.285155   -0.010487
      4          8           0       -0.687230   -0.307911    1.380840
      5          8           0       -0.801236   -0.227350   -1.168546
      6          6           0        0.067504   -1.214627    2.214600
      7          6           0        2.236676    0.069839   -1.147103
      8          6           0       -2.199017    0.110642   -1.341656
      9          1           0       -0.620462   -1.552757    2.991087
     10          1           0        0.418580   -2.061540    1.621931
     11          1           0        0.916277   -0.694777    2.663517
     12          1           0        3.161330   -0.500461   -1.051902
     13          1           0        1.724296   -0.202245   -2.072711
     14          1           0        2.454026    1.140455   -1.134811
     15          1           0       -2.540529   -0.410465   -2.236829
     16          1           0       -2.772589   -0.229365   -0.475100
     17          1           0       -2.315460    1.189646   -1.471139
 ---------------------------------------------------------------------
                    Distance matrix (angstroms):
                    1          2          3          4          5
     1  P    0.000000
     2  O    1.458045   0.000000
     3  O    1.604544   2.612586   0.000000
     4  O    1.608615   2.579022   2.515353   0.000000
     5  O    1.614161   2.581847   2.495177   2.553205   0.000000
     6  C    2.669949   3.714990   2.759041   1.444615   3.629752
     7  C    2.611925   3.192778   1.450636   3.883609   3.052489
     8  C    2.618780   3.141212   3.865287   3.142080   1.448446
     9  H    3.544768   4.484425   3.838176   2.036417   4.369431
    10  H    2.939042   4.225456   2.607607   2.087141   3.555133
    11  H    2.949608   3.723709   2.749554   2.089536   4.225287
    12  H    3.515860   4.176179   2.050483   4.557052   3.973679
    13  H    2.860549   3.521862   2.087961   4.213507   2.682621
    14  H    2.870606   2.916155   2.095302   4.277120   3.531113
    15  H    3.524231   4.124487   4.534810   4.066050   2.049366
    16  H    2.871465   3.482884   4.206863   2.792741   2.089761
    17  H    2.877683   2.855043   4.263090   3.609376   2.095784
                    6          7          8          9         10
     6  C    0.000000
     7  C    4.201929   0.000000
     8  C    4.420453   4.440144   0.000000
     9  H    1.091129   5.284002   4.902182   0.000000
    10  H    1.091683   3.939010   4.511434   1.792500   0.000000
    11  H    1.091873   4.104744   5.137623   1.790251   1.789035
    12  H    4.555417   1.090546   5.402844   5.635161   4.136306
    13  H    4.706475   1.092389   4.003089   5.741413   4.337309
    14  H    4.739246   1.092525   4.770127   5.807659   4.689930
    15  H    5.221468   4.923401   1.090650   5.685296   5.135407
    16  H    4.033776   5.062987   1.093393   4.289227   4.235323
    17  H    5.004369   4.699032   1.092966   5.505021   5.254737
                   11         12         13         14         15
    11  H    0.000000
    12  H    4.345384   0.000000
    13  H    4.829839   1.787750   0.000000
    14  H    4.489994   1.788787   1.793044   0.000000
    15  H    6.003644   5.824375   4.273058   5.344659   0.000000
    16  H    4.865723   5.968047   4.772323   5.443265   1.786152
    17  H    5.575891   5.746951   4.314959   4.781582   1.788098
                   16         17
    16  H    0.000000
    17  H    1.792946   0.000000
 Stoichiometry    C3H9O4P
 Framework group  C1[X(C3H9O4P)]
 Deg. of freedom    45
 Full point group                 C1      NOp   1
 Largest Abelian subgroup         C1      NOp   1
 Largest concise Abelian subgroup C1      NOp   1
                         Standard orientation:                         
 ---------------------------------------------------------------------
 Center     Atomic      Atomic             Coordinates (Angstroms)
 Number     Number       Type             X           Y           Z
 ---------------------------------------------------------------------
      1         15           0        0.053241   -0.030904    0.348061
      2          8           0        0.354366   -0.432756    1.716905
      3          8           0       -1.261258   -0.659768   -0.323642
      4          8           0       -0.160322    1.551335    0.151710
      5          8           0        1.190517   -0.429594   -0.725794
      6          6           0       -1.392379    2.095759   -0.370352
      7          6           0       -1.340950   -2.105674   -0.409378
      8          6           0        2.531844    0.064475   -0.491843
      9          1           0       -1.253880    3.177605   -0.401800
     10          1           0       -1.576736    1.706266   -1.373388
     11          1           0       -2.225085    1.841495    0.288539
     12          1           0       -2.289970   -2.339665   -0.893009
     13          1           0       -0.511978   -2.482812   -1.012606
     14          1           0       -1.312143   -2.544303    0.590815
     15          1           0        3.149763   -0.300957   -1.312911
     16          1           0        2.529015    1.157864   -0.490201
     17          1           0        2.914885   -0.313033    0.459652
 ---------------------------------------------------------------------
 Rotational constants (GHZ):      1.8855078      1.7543186      1.2402670
 Standard basis: 6-31+G(d,p) (6D, 7F)
 There are   201 symmetry adapted basis functions of A   symmetry.
 Integral buffers will be    131072 words long.
 Raffenetti 2 integral format.
 Two-electron integral symmetry is turned on.
   201 basis functions,   343 primitive gaussians,   201 cartesian basis functions
    37 alpha electrons       37 beta electrons
       nuclear repulsion energy       546.8770480810 Hartrees.
 NAtoms=   17 NActive=   17 NUniq=   17 SFac= 7.50D-01 NAtFMM=   80 NAOKFM=F Big=F
 One-electron integrals computed using PRISM.
 NBasis=   201 RedAO= T  NBF=   201
 NBsUse=   201 1.00D-06 NBFU=   201
 Initial guess read from the read-write file.
 B after Tr=     0.000000    0.000000    0.000000
         Rot=    1.000000    0.000000    0.000000    0.000000 Ang=   0.00 deg.
 Initial guess orbital symmetries:
       Occupied  (A) (A) (A) (A) (A) (A) (A) (A) (A) (A) (A) (A)
                 (A) (A) (A) (A) (A) (A) (A) (A) (A) (A) (A) (A)
                 (A) (A) (A) (A) (A) (A) (A) (A) (A) (A) (A) (A)
                 (A)
       Virtual   (A) (A) (A) (A) (A) (A) (A) (A) (A) (A) (A) (A)
                 (A) (A) (A) (A) (A) (A) (A) (A) (A) (A) (A) (A)
                 (A) (A) (A) (A) (A) (A) (A) (A) (A) (A) (A) (A)
                 (A) (A) (A) (A) (A) (A) (A) (A) (A) (A) (A) (A)
                 (A) (A) (A) (A) (A) (A) (A) (A) (A) (A) (A) (A)
                 (A) (A) (A) (A) (A) (A) (A) (A) (A) (A) (A) (A)
                 (A) (A) (A) (A) (A) (A) (A) (A) (A) (A) (A) (A)
                 (A) (A) (A) (A) (A) (A) (A) (A) (A) (A) (A) (A)
                 (A) (A) (A) (A) (A) (A) (A) (A) (A) (A) (A) (A)
                 (A) (A) (A) (A) (A) (A) (A) (A) (A) (A) (A) (A)
                 (A) (A) (A) (A) (A) (A) (A) (A) (A) (A) (A) (A)
                 (A) (A) (A) (A) (A) (A) (A) (A) (A) (A) (A) (A)
                 (A) (A) (A) (A) (A) (A) (A) (A) (A) (A) (A) (A)
                 (A) (A) (A) (A) (A) (A) (A) (A)
 Harris functional with IExCor=  402 diagonalized for initial guess.
 ExpMin= 3.48D-02 ExpMax= 1.94D+04 ExpMxC= 2.91D+03 IAcc=3 IRadAn=         0 AccDes= 0.00D+00
 HarFok:  IExCor=  402 AccDes= 0.00D+00 IRadAn=         0 IDoV= 1
 ScaDFX=  1.000000  1.000000  1.000000  1.000000
 FoFCou: FMM=F IPFlag=           0 FMFlag=      100000 FMFlg1=           0
         NFxFlg=           0 DoJE=T BraDBF=F KetDBF=T FulRan=T
         Omega=  0.000000  0.000000  1.000000  0.000000  0.000000 ICntrl=     500 IOpCl=  0
         NMat0=    1 NMatS0=    1 NMatT0=    0 NMatD0=    1 NMtDS0=    0 NMtDT0=    0
         I1Cent=           4 NGrid=           0.
 Petite list used in FoFCou.
 Requested convergence on RMS density matrix=1.00D-08 within 128 cycles.
 Requested convergence on MAX density matrix=1.00D-06.
 Requested convergence on             energy=1.00D-06.
 No special actions if energy rises.
 Keep R1 ints in memory in canonical form, NReq=210486906.
 SCF Done:  E(RB3LYP) =  -762.073846610     A.U. after   11 cycles
             Convg  =    0.6473D-08             -V/T =  2.0068
 Calling FoFJK, ICntrl=      2127 FMM=F ISym2X=0 I1Cent= 0 IOpClX= 0 NMat=1 NMatS=1 NMatT=0.
 ***** Axes restored to original set *****
 -------------------------------------------------------------------
 Center     Atomic                   Forces (Hartrees/Bohr)
 Number     Number              X              Y              Z
 -------------------------------------------------------------------
      1       15          -0.001976172   -0.022362545    0.001198322
      2        8          -0.001340168    0.030359788    0.000546159
      3        8           0.002987071   -0.001719520   -0.004630737
      4        8           0.004834804   -0.001808378    0.001107977
      5        8          -0.005292089   -0.002505925   -0.000849311
      6        6          -0.002932350   -0.000312280   -0.000247134
      7        6           0.000048634   -0.000198370    0.001237088
      8        6           0.001875840    0.000292638   -0.000986592
      9        1           0.000213007    0.000328935   -0.000334717
     10        1           0.000691704   -0.001107604    0.001233674
     11        1           0.000368222   -0.000585795    0.000880451
     12        1          -0.000684467   -0.000345509    0.001257854
     13        1           0.000613491   -0.000109591   -0.000704388
     14        1          -0.000039264    0.000293274    0.000187634
     15        1           0.001266705   -0.000474598   -0.000017864
     16        1          -0.000816219   -0.000021526   -0.000089342
     17        1           0.000181251    0.000277005    0.000210929
 -------------------------------------------------------------------
 Cartesian Forces:  Max     0.030359788 RMS     0.005514560

 GradGradGradGradGradGradGradGradGradGradGradGradGradGradGradGradGradGrad
 Berny optimization.
 Using GEDIIS/GDIIS optimizer.
 Internal  Forces:  Max     0.030382582 RMS     0.004402311
 Search for a local minimum.
 Step number   3 out of a maximum of   71
 All quantities printed in internal units (Hartrees-Bohrs-Radians)
 Mixed Optimization -- RFO/linear search
 Update second derivatives using D2CorX and points    2    3
 DE= -1.18D-02 DEPred=-1.54D-02 R= 7.66D-01
 SS=  1.41D+00  RLast= 3.49D-01 DXNew= 8.4853D-01 1.0462D+00
 Trust test= 7.66D-01 RLast= 3.49D-01 DXMaxT set to 8.49D-01
 Use linear search instead of GDIIS.
     Eigenvalues ---    0.01207   0.01211   0.01232   0.02222   0.02240
     Eigenvalues ---    0.02244   0.10210   0.10238   0.10318   0.10578
     Eigenvalues ---    0.10595   0.10654   0.12455   0.12776   0.13783
     Eigenvalues ---    0.15937   0.16000   0.16000   0.16000   0.16000
     Eigenvalues ---    0.16000   0.16000   0.16003   0.16806   0.20342
     Eigenvalues ---    0.21451   0.21688   0.25002   0.25198   0.34631
     Eigenvalues ---    0.34656   0.34663   0.34677   0.34706   0.34718
     Eigenvalues ---    0.34720   0.34746   0.34804   0.35814   0.37321
     Eigenvalues ---    0.37433   0.40055   0.40152   0.41154   0.59085
     Eigenvalues --- 1000.000001000.000001000.000001000.000001000.00000
     Eigenvalues --- 1000.000001000.000001000.000001000.000001000.00000
     Eigenvalues --- 1000.000001000.000001000.000001000.000001000.00000
     Eigenvalues --- 1000.00000
 RFO step:  Lambda=-2.69178058D-03 EMin= 1.20653541D-02
 Quartic linear search produced a step of -0.09349.
 Iteration  1 RMS(Cart)=  0.03911344 RMS(Int)=  0.00073184
 Iteration  2 RMS(Cart)=  0.00124826 RMS(Int)=  0.00006869
 Iteration  3 RMS(Cart)=  0.00000136 RMS(Int)=  0.00006869
 Iteration  4 RMS(Cart)=  0.00000000 RMS(Int)=  0.00006869
 Variable       Old X    -DE/DX   Delta X   Delta X   Delta X     New X
                                 (Linear)    (Quad)   (Total)
    R1        2.75531   0.03038   0.01411   0.03248   0.04659   2.80190
    R2        3.03215   0.00372   0.00859  -0.00439   0.00420   3.03635
    R3        3.03984   0.00238   0.00879  -0.00774   0.00105   3.04089
    R4        3.05032   0.00365   0.00744  -0.00282   0.00462   3.05494
    R5        2.74130  -0.00168  -0.00100  -0.00210  -0.00310   2.73821
    R6        2.72993   0.00107   0.00043   0.00212   0.00256   2.73248
    R7        2.73717  -0.00230  -0.00087  -0.00370  -0.00457   2.73259
    R8        2.06193  -0.00047   0.00006  -0.00130  -0.00124   2.06069
    R9        2.06298   0.00041   0.00013   0.00095   0.00108   2.06406
   R10        2.06334   0.00037   0.00015   0.00077   0.00092   2.06426
   R11        2.06083  -0.00029   0.00014  -0.00092  -0.00078   2.06005
   R12        2.06432   0.00033   0.00005   0.00084   0.00089   2.06520
   R13        2.06457   0.00028  -0.00006   0.00085   0.00079   2.06537
   R14        2.06103  -0.00016   0.00014  -0.00058  -0.00044   2.06059
   R15        2.06621   0.00036  -0.00007   0.00109   0.00102   2.06724
   R16        2.06541   0.00023  -0.00013   0.00084   0.00071   2.06611
    A1        2.04226   0.00112  -0.00688   0.01814   0.01122   2.05348
    A2        1.99666   0.00077  -0.00473   0.01483   0.01005   2.00671
    A3        1.99433   0.00024  -0.00335   0.00938   0.00598   2.00031
    A4        1.79840  -0.00150   0.00694  -0.02183  -0.01469   1.78371
    A5        1.77409  -0.00121   0.00643  -0.02039  -0.01376   1.76033
    A6        1.82893   0.00021   0.00369  -0.00789  -0.00398   1.82495
    A7        2.04924   0.00610  -0.00692   0.03294   0.02602   2.07526
    A8        2.12707   0.01018  -0.00888   0.05144   0.04256   2.16963
    A9        2.04964   0.00487  -0.00679   0.02837   0.02158   2.07122
   A10        1.85024  -0.00116   0.00124  -0.01083  -0.00957   1.84067
   A11        1.91942   0.00267   0.00269   0.01213   0.01482   1.93424
   A12        1.92260   0.00119   0.00130   0.00507   0.00635   1.92895
   A13        1.92698  -0.00086  -0.00275  -0.00092  -0.00364   1.92334
   A14        1.92313  -0.00082  -0.00227  -0.00286  -0.00512   1.91800
   A15        1.92045  -0.00098  -0.00028  -0.00267  -0.00298   1.91747
   A16        1.86281  -0.00260  -0.00034  -0.01629  -0.01664   1.84617
   A17        1.91247   0.00182   0.00267   0.00705   0.00973   1.92220
   A18        1.92263  -0.00013   0.00054  -0.00152  -0.00100   1.92163
   A19        1.91922   0.00022  -0.00150   0.00333   0.00185   1.92106
   A20        1.92069   0.00055  -0.00107   0.00340   0.00230   1.92299
   A21        1.92509   0.00009  -0.00033   0.00350   0.00316   1.92825
   A22        1.86374  -0.00230  -0.00018  -0.01447  -0.01465   1.84910
   A23        1.91659   0.00154   0.00211   0.00598   0.00810   1.92470
   A24        1.92553  -0.00017   0.00036  -0.00140  -0.00106   1.92447
   A25        1.91522   0.00022  -0.00123   0.00294   0.00173   1.91694
   A26        1.91888   0.00073  -0.00092   0.00493   0.00398   1.92286
   A27        1.92303  -0.00006  -0.00018   0.00165   0.00147   1.92450
    D1       -1.01543   0.00116  -0.00324   0.04966   0.04641  -0.96902
    D2        3.06088   0.00063   0.00209   0.03583   0.03774   3.09862
    D3        1.16932   0.00123  -0.00698   0.05705   0.05025   1.21957
    D4       -2.11613  -0.00024   0.00204  -0.01531  -0.01326  -2.12939
    D5        0.11959   0.00055  -0.00469   0.00093  -0.00361   0.11598
    D6        1.96950  -0.00121   0.00666  -0.03107  -0.02455   1.94495
    D7       -0.99842   0.00112  -0.00408   0.06037   0.05629  -0.94213
    D8        3.06845   0.00044   0.00200   0.04678   0.04865   3.11709
    D9        1.20059   0.00241  -0.00956   0.07952   0.07009   1.27069
   D10       -3.13669  -0.00053  -0.00106  -0.01818  -0.01919   3.12731
   D11       -1.05921  -0.00078  -0.00161  -0.01974  -0.02136  -1.08057
   D12        1.06170   0.00043   0.00013  -0.01179  -0.01169   1.05001
   D13       -3.13379  -0.00026  -0.00100   0.00054  -0.00044  -3.13423
   D14       -1.05057  -0.00053  -0.00209  -0.00035  -0.00250  -1.05307
   D15        1.06907   0.00075   0.00028   0.00753   0.00785   1.07692
   D16       -3.13853  -0.00036  -0.00072  -0.01477  -0.01545   3.12921
   D17       -1.06304  -0.00059  -0.00114  -0.01637  -0.01752  -1.08056
   D18        1.05988   0.00023   0.00030  -0.01129  -0.01101   1.04886
         Item               Value     Threshold  Converged?
 Maximum Force            0.030383     0.000450     NO 
 RMS     Force            0.004402     0.000300     NO 
 Maximum Displacement     0.100168     0.001800     NO 
 RMS     Displacement     0.039340     0.001200     NO 
 Predicted change in Energy=-1.440592D-03
 GradGradGradGradGradGradGradGradGradGradGradGradGradGradGradGradGradGrad

                          Input orientation:                          
 ---------------------------------------------------------------------
 Center     Atomic      Atomic             Coordinates (Angstroms)
 Number     Number       Type             X           Y           Z
 ---------------------------------------------------------------------
      1         15           0       -0.043492    0.419123    0.101766
      2          8           0       -0.083227    1.900766    0.141201
      3          8           0        1.393625   -0.284813   -0.042678
      4          8           0       -0.651103   -0.311666    1.400299
      5          8           0       -0.833342   -0.242581   -1.143905
      6          6           0        0.085653   -1.232782    2.236695
      7          6           0        2.242582    0.078888   -1.159182
      8          6           0       -2.218063    0.115626   -1.356566
      9          1           0       -0.614441   -1.544833    3.012335
     10          1           0        0.420190   -2.098142    1.660279
     11          1           0        0.945207   -0.734304    2.690501
     12          1           0        3.154798   -0.506122   -1.040811
     13          1           0        1.753278   -0.176148   -2.102515
     14          1           0        2.472354    1.146830   -1.124069
     15          1           0       -2.536013   -0.431424   -2.244628
     16          1           0       -2.824124   -0.186826   -0.497551
     17          1           0       -2.309274    1.192190   -1.524146
 ---------------------------------------------------------------------
                    Distance matrix (angstroms):
                    1          2          3          4          5
     1  P    0.000000
     2  O    1.482700   0.000000
     3  O    1.606766   2.644175   0.000000
     4  O    1.609171   2.608192   2.502761   0.000000
     5  O    1.616605   2.609235   2.484726   2.551658   0.000000
     6  C    2.702478   3.773425   2.793738   1.445967   3.640536
     7  C    2.632847   3.227944   1.448996   3.882897   3.092715
     8  C    2.635830   3.160310   3.864058   3.199726   1.446025
     9  H    3.557320   4.516388   3.866922   2.029952   4.360976
    10  H    2.996763   4.307238   2.671292   2.099227   3.588578
    11  H    3.001578   3.807913   2.805956   2.095579   4.255314
    12  H    3.520031   4.204173   2.036413   4.525672   3.998167
    13  H    2.905441   3.566594   2.093822   4.250779   2.759338
    14  H    2.891662   2.949631   2.093481   4.272660   3.585873
    15  H    3.527274   4.140948   4.506899   4.105207   2.036257
    16  H    2.908310   3.504078   4.243338   2.887809   2.093823
    17  H    2.893958   2.868928   4.252969   3.682865   2.093210
                    6          7          8          9         10
     6  C    0.000000
     7  C    4.231406   0.000000
     8  C    4.476252   4.465161   0.000000
     9  H    1.090471   5.310425   4.941258   0.000000
    10  H    1.092254   4.001241   4.578482   1.790159   0.000000
    11  H    1.092361   4.143009   5.206478   1.786907   1.788032
    12  H    4.548596   1.090131   5.417924   5.631525   4.160348
    13  H    4.767199   1.092859   4.051311   5.800094   4.430553
    14  H    4.759582   1.092945   4.808061   5.820927   4.742764
    15  H    5.253338   4.926823   1.090418   5.706820   5.173528
    16  H    4.127581   5.116627   1.093935   4.364194   4.339923
    17  H    5.075440   4.700217   1.093340   5.562681   5.330743
                   11         12         13         14         15
    11  H    0.000000
    12  H    4.342470   0.000000
    13  H    4.892599   1.788954   0.000000
    14  H    4.519047   1.790227   1.795745   0.000000
    15  H    6.046994   5.817223   4.299230   5.369384   0.000000
    16  H    4.967018   6.012037   4.850632   5.497622   1.787489
    17  H    5.662710   5.742296   4.325644   4.798551   1.790706
                   16         17
    16  H    0.000000
    17  H    1.794618   0.000000
 Stoichiometry    C3H9O4P
 Framework group  C1[X(C3H9O4P)]
 Deg. of freedom    45
 Full point group                 C1      NOp   1
 Largest Abelian subgroup         C1      NOp   1
 Largest concise Abelian subgroup C1      NOp   1
                         Standard orientation:                         
 ---------------------------------------------------------------------
 Center     Atomic      Atomic             Coordinates (Angstroms)
 Number     Number       Type             X           Y           Z
 ---------------------------------------------------------------------
      1         15           0       -0.062078    0.025577    0.353037
      2          8           0       -0.416380    0.418018    1.738266
      3          8           0        1.185819    0.766909   -0.336076
      4          8           0        0.317015   -1.526652    0.162495
      5          8           0       -1.220480    0.298342   -0.741090
      6          6           0        1.578330   -1.998981   -0.363633
      7          6           0        1.185393    2.213849   -0.413231
      8          6           0       -2.538703   -0.247865   -0.506706
      9          1           0        1.503135   -3.086854   -0.366275
     10          1           0        1.738286   -1.629530   -1.378985
     11          1           0        2.403306   -1.684978    0.279849
     12          1           0        2.122976    2.485067   -0.898786
     13          1           0        0.339168    2.558337   -1.012874
     14          1           0        1.142705    2.643530    0.590801
     15          1           0       -3.148750    0.068002   -1.353512
     16          1           0       -2.495016   -1.340233   -0.467723
     17          1           0       -2.952556    0.148071    0.424612
 ---------------------------------------------------------------------
[...]
 ! A27   A(16,8,17)            109.7417         -DE/DX =    0.0                 !
 ! D1    D(2,1,3,7)            -51.4498         -DE/DX =    0.0                 !
 ! D2    D(4,1,3,7)           -176.2117         -DE/DX =    0.0                 !
 ! D3    D(5,1,3,7)             74.2359         -DE/DX =    0.0                 !
 ! D4    D(2,1,4,6)           -177.9375         -DE/DX =    0.0                 !
 ! D5    D(3,1,4,6)            -50.1218         -DE/DX =    0.0                 !
 ! D6    D(5,1,4,6)             55.0766         -DE/DX =    0.0                 !
 ! D7    D(2,1,5,8)            -34.1223         -DE/DX =    0.0                 !
 ! D8    D(3,1,5,8)           -162.1075         -DE/DX =    0.0                 !
 ! D9    D(4,1,5,8)             92.164          -DE/DX =    0.0                 !
 ! D10   D(1,3,7,12)           174.5677         -DE/DX =    0.0                 !
 ! D11   D(1,3,7,13)           -66.548          -DE/DX =    0.0                 !
 ! D12   D(1,3,7,14)            55.4409         -DE/DX =    0.0                 !
 ! D13   D(1,4,6,9)           -175.521          -DE/DX =    0.0                 !
 ! D14   D(1,4,6,10)           -56.4173         -DE/DX =    0.0                 !
 ! D15   D(1,4,6,11)            65.4233         -DE/DX =    0.0                 !
 ! D16   D(1,5,8,15)           167.8053         -DE/DX =    0.0                 !
 ! D17   D(1,5,8,16)           -73.4316         -DE/DX =    0.0                 !
 ! D18   D(1,5,8,17)            48.0979         -DE/DX =    0.0                 !
 --------------------------------------------------------------------------------
 GradGradGradGradGradGradGradGradGradGradGradGradGradGradGradGradGradGrad

                          Input orientation:                          
 ---------------------------------------------------------------------
 Center     Atomic      Atomic             Coordinates (Angstroms)
 Number     Number       Type             X           Y           Z
 ---------------------------------------------------------------------
      1         15           0        0.047965    0.530440    0.206994
      2          8           0       -0.179203    1.976514   -0.006552
      3          8           0        1.539842   -0.037441    0.017050
      4          8           0       -0.295738    0.044276    1.693807
      5          8           0       -0.778962   -0.438513   -0.796759
      6          6           0       -0.100466   -1.320949    2.117530
      7          6           0        2.270138    0.258600   -1.191724
      8          6           0       -2.096150   -0.043160   -1.237559
      9          1           0       -0.489688   -1.376658    3.134586
     10          1           0       -0.651506   -2.007609    1.468423
     11          1           0        0.963528   -1.569664    2.108022
     12          1           0        3.272590   -0.144308   -1.044612
     13          1           0        1.795231   -0.228338   -2.048431
     14          1           0        2.320321    1.338978   -1.350176
     15          1           0       -2.356204   -0.716580   -2.055298
     16          1           0       -2.819867   -0.154504   -0.423998
     17          1           0       -2.087221    0.992699   -1.584276
 ---------------------------------------------------------------------
                    Distance matrix (angstroms):
                    1          2          3          4          5
     1  P    0.000000
     2  O    1.479303   0.000000
     3  O    1.607565   2.647959   0.000000
     4  O    1.601593   2.576499   2.487477   0.000000
     5  O    1.621788   2.610842   2.489979   2.582539   0.000000
     6  C    2.664549   3.923161   2.958043   1.442744   3.119636
     7  C    2.639765   3.217939   1.442951   3.867291   3.152614
     8  C    2.648203   3.044528   3.846364   3.441225   1.444158
     9  H    3.535094   4.605097   3.953672   2.032859   4.052069
    10  H    2.919273   4.274560   3.284821   2.094659   2.758506
    11  H    2.977012   4.283998   2.655562   2.088571   3.571208
    12  H    3.524203   4.182143   2.034935   4.501940   4.069774
    13  H    2.952224   3.595696   2.089947   4.295441   2.870074
    14  H    2.870909   2.908504   2.091168   4.217328   3.615426
    15  H    3.528888   4.023612   4.464866   4.345136   2.036894
    16  H    3.015254   3.418861   4.383525   3.300884   2.094017
    17  H    2.825127   2.664139   4.096464   3.854185   2.092867
                    6          7          8          9         10
     6  C    0.000000
     7  C    4.366452   0.000000
     8  C    4.107569   4.376943   0.000000
     9  H    1.090413   5.385876   4.845058   0.000000
    10  H    1.093840   4.555007   3.642581   1.788961   0.000000
    11  H    1.092718   3.992255   4.783801   1.789671   1.791429
    12  H    4.770862   1.090361   5.373158   5.756658   5.018542
    13  H    4.705603   1.093888   3.979277   5.779547   4.639029
    14  H    4.996039   1.093089   4.629061   5.948439   5.289225
    15  H    4.781852   4.806223   1.090788   5.554681   4.121816
    16  H    3.900654   5.164127   1.094553   4.425711   3.423017
    17  H    4.796199   4.436166   1.092381   5.516667   4.514653
                   11         12         13         14         15
    11  H    0.000000
    12  H    4.159627   0.000000
    13  H    4.446008   1.788101   0.000000
    14  H    4.718074   1.788944   1.794369   0.000000
    15  H    5.392737   5.747374   4.180053   5.156783   0.000000
    16  H    4.767377   6.123994   4.893196   5.432295   1.786632
    17  H    5.431927   5.505596   4.096315   4.427317   1.793279
                   16         17
    16  H    0.000000
    17  H    1.788600   0.000000
 Stoichiometry    C3H9O4P
 Framework group  C1[X(C3H9O4P)]
 Deg. of freedom    45
 Full point group                 C1      NOp   1
 Largest Abelian subgroup         C1      NOp   1
 Largest concise Abelian subgroup C1      NOp   1
                         Standard orientation:                         
 ---------------------------------------------------------------------
 Center     Atomic      Atomic             Coordinates (Angstroms)
 Number     Number       Type             X           Y           Z
 ---------------------------------------------------------------------
      1         15           0       -0.055658   -0.035544    0.409198
      2          8           0       -0.320476   -0.794463    1.651072
      3          8           0       -1.287505    0.723843   -0.290908
      4          8           0        0.991899    1.160129    0.604366
      5          8           0        0.493741   -0.931782   -0.825758
      6          6           0        1.351676    2.047011   -0.475222
      7          6           0       -2.506082    0.003902   -0.571734
      8          6           0        1.353776   -2.059791   -0.554597
      9          1           0        2.130990    2.698842   -0.079262
     10          1           0        1.736633    1.479253   -1.327247
     11          1           0        0.485575    2.639132   -0.780665
     12          1           0       -3.213204    0.743503   -0.948371
     13          1           0       -2.325911   -0.760456   -1.333237
     14          1           0       -2.894916   -0.455147    0.340913
     15          1           0        1.411343   -2.626688   -1.484722
     16          1           0        2.353397   -1.717193   -0.269236
     17          1           0        0.933471   -2.676632    0.242991
 ---------------------------------------------------------------------
 Rotational constants (GHZ):      1.8397038      1.7288766      1.2698685

 **********************************************************************

            Population analysis using the SCF density.

 **********************************************************************

 Orbital symmetries:
       Occupied  (A) (A) (A) (A) (A) (A) (A) (A) (A) (A) (A) (A)
                 (A) (A) (A) (A) (A) (A) (A) (A) (A) (A) (A) (A)
                 (A) (A) (A) (A) (A) (A) (A) (A) (A) (A) (A) (A)
                 (A)
       Virtual   (A) (A) (A) (A) (A) (A) (A) (A) (A) (A) (A) (A)
                 (A) (A) (A) (A) (A) (A) (A) (A) (A) (A) (A) (A)
                 (A) (A) (A) (A) (A) (A) (A) (A) (A) (A) (A) (A)
                 (A) (A) (A) (A) (A) (A) (A) (A) (A) (A) (A) (A)
                 (A) (A) (A) (A) (A) (A) (A) (A) (A) (A) (A) (A)
                 (A) (A) (A) (A) (A) (A) (A) (A) (A) (A) (A) (A)
                 (A) (A) (A) (A) (A) (A) (A) (A) (A) (A) (A) (A)
                 (A) (A) (A) (A) (A) (A) (A) (A) (A) (A) (A) (A)
                 (A) (A) (A) (A) (A) (A) (A) (A) (A) (A) (A) (A)
                 (A) (A) (A) (A) (A) (A) (A) (A) (A) (A) (A) (A)
                 (A) (A) (A) (A) (A) (A) (A) (A) (A) (A) (A) (A)
                 (A) (A) (A) (A) (A) (A) (A) (A) (A) (A) (A) (A)
                 (A) (A) (A) (A) (A) (A) (A) (A) (A) (A) (A) (A)
                 (A) (A) (A) (A) (A) (A) (A) (A)
 The electronic state is 1-A.
 Alpha  occ. eigenvalues --  -77.24794 -19.19429 -19.19271 -19.19194 -19.11995
 Alpha  occ. eigenvalues --  -10.25512 -10.25451 -10.25276  -6.69266  -4.85682
 Alpha  occ. eigenvalues --   -4.85648  -4.85459  -1.10564  -1.04497  -1.04351
 Alpha  occ. eigenvalues --   -0.96925  -0.74493  -0.71470  -0.70908  -0.58662
 Alpha  occ. eigenvalues --   -0.53363  -0.53052  -0.48992  -0.47902  -0.47582
 Alpha  occ. eigenvalues --   -0.45995  -0.45621  -0.45228  -0.41467  -0.37913
 Alpha  occ. eigenvalues --   -0.36366  -0.35566  -0.33648  -0.33165  -0.31598
 Alpha  occ. eigenvalues --   -0.30261  -0.29637
 Alpha virt. eigenvalues --   -0.00239   0.01030   0.01257   0.01681   0.03475
 Alpha virt. eigenvalues --    0.03982   0.04896   0.05744   0.06337   0.07665
 Alpha virt. eigenvalues --    0.08702   0.09218   0.09939   0.10512   0.10830
 Alpha virt. eigenvalues --    0.11838   0.12580   0.13214   0.13565   0.15051
 Alpha virt. eigenvalues --    0.16470   0.17131   0.17499   0.18308   0.19215
 Alpha virt. eigenvalues --    0.19870   0.20486   0.21847   0.22364   0.24211
 Alpha virt. eigenvalues --    0.25375   0.25782   0.26962   0.28450   0.29132
 Alpha virt. eigenvalues --    0.29697   0.30159   0.30722   0.31976   0.32546
 Alpha virt. eigenvalues --    0.32769   0.33017   0.34256   0.34952   0.37252
 Alpha virt. eigenvalues --    0.40408   0.41181   0.44604   0.54317   0.55512
 Alpha virt. eigenvalues --    0.61173   0.63057   0.64609   0.65274   0.66650
 Alpha virt. eigenvalues --    0.67053   0.68701   0.71315   0.72162   0.72795
 Alpha virt. eigenvalues --    0.76450   0.79617   0.82785   0.91010   0.92076
 Alpha virt. eigenvalues --    0.92556   0.93856   0.94758   0.96157   1.00660
 Alpha virt. eigenvalues --    1.01835   1.06022   1.06841   1.07554   1.10682
 Alpha virt. eigenvalues --    1.18242   1.18933   1.19908   1.21466   1.22156
 Alpha virt. eigenvalues --    1.22715   1.27980   1.28464   1.32075   1.34359
 Alpha virt. eigenvalues --    1.34690   1.36262   1.38503   1.40924   1.44327
 Alpha virt. eigenvalues --    1.47051   1.49492   1.52439   1.55412   1.58354
 Alpha virt. eigenvalues --    1.60179   1.63643   1.66979   1.71282   1.78829
 Alpha virt. eigenvalues --    1.79703   1.83344   1.87524   1.88639   1.90640
 Alpha virt. eigenvalues --    1.92245   1.92742   1.93723   1.96140   1.96806
 Alpha virt. eigenvalues --    1.97794   2.00111   2.01361   2.01685   2.01879
 Alpha virt. eigenvalues --    2.02891   2.06301   2.07555   2.09612   2.10371
 Alpha virt. eigenvalues --    2.11160   2.12224   2.16016   2.21858   2.24127
 Alpha virt. eigenvalues --    2.38564   2.50454   2.53387   2.55201   2.57315
 Alpha virt. eigenvalues --    2.58481   2.59201   2.59392   2.59533   2.64444
 Alpha virt. eigenvalues --    2.65586   2.67034   2.77050   2.79037   2.82026
 Alpha virt. eigenvalues --    2.84662   2.85146   2.87142   2.88947   2.93953
 Alpha virt. eigenvalues --    2.97127   3.02355   3.22023   3.23213   3.23891
 Alpha virt. eigenvalues --    3.40245   3.40749   3.41458   3.41993   3.42815
 Alpha virt. eigenvalues --    3.43480   3.58600   4.16831   4.21458   4.24215
 Alpha virt. eigenvalues --    4.30929   4.53914   4.54876   4.55857
          Condensed to atoms (all electrons):
              1          2          3          4          5          6
     1  P   12.585142   0.560781  -0.050778   0.111196   0.053637  -0.047516
     2  O    0.560781   8.600797  -0.113725  -0.049662  -0.142197   0.007044
     3  O   -0.050778  -0.113725   8.795499  -0.012885   0.071056   0.011837
     4  O    0.111196  -0.049662  -0.012885   8.752015  -0.048064   0.018011
     5  O    0.053637  -0.142197   0.071056  -0.048064   8.841033  -0.003654
     6  C   -0.047516   0.007044   0.011837   0.018011  -0.003654   5.017191
     7  C   -0.102599  -0.060171   0.096000   0.001672   0.025510   0.003146
     8  C   -0.121167  -0.041134   0.033479  -0.017995   0.057706   0.023138
     9  H   -0.005082  -0.000104  -0.000545  -0.053293  -0.001268   0.414141
    10  H   -0.016828  -0.000233   0.002724  -0.050729   0.004356   0.415126
    11  H    0.000963  -0.000359  -0.005142  -0.047601   0.000186   0.412626
    12  H   -0.015719  -0.000509  -0.056014  -0.000724   0.000482   0.001426
    13  H   -0.006309  -0.000366  -0.052932   0.000360   0.002780  -0.000970
    14  H    0.005356   0.005527  -0.062023  -0.000424  -0.000674  -0.000192
    15  H   -0.008845  -0.000475  -0.000649  -0.000714  -0.056650  -0.000013
    16  H   -0.014781   0.000203  -0.000879   0.006214  -0.050975   0.001469
    17  H   -0.001017   0.006307   0.000468  -0.001258  -0.055593   0.000150
              7          8          9         10         11         12
     1  P   -0.102599  -0.121167  -0.005082  -0.016828   0.000963  -0.015719
     2  O   -0.060171  -0.041134  -0.000104  -0.000233  -0.000359  -0.000509
     3  O    0.096000   0.033479  -0.000545   0.002724  -0.005142  -0.056014
     4  O    0.001672  -0.017995  -0.053293  -0.050729  -0.047601  -0.000724
     5  O    0.025510   0.057706  -0.001268   0.004356   0.000186   0.000482
     6  C    0.003146   0.023138   0.414141   0.415126   0.412626   0.001426
     7  C    5.031692   0.017521   0.000102   0.001107  -0.003274   0.425358
     8  C    0.017521   5.063241   0.000278   0.001290  -0.000430   0.000774
     9  H    0.000102   0.000278   0.550389  -0.031026  -0.029746  -0.000001
    10  H    0.001107   0.001290  -0.031026   0.552456  -0.037061   0.000001
    11  H   -0.003274  -0.000430  -0.029746  -0.037061   0.539702   0.000013
    12  H    0.425358   0.000774  -0.000001   0.000001   0.000013   0.550846
    13  H    0.417839  -0.002166   0.000000   0.000001   0.000000  -0.031341
    14  H    0.411594  -0.000363   0.000000   0.000000  -0.000009  -0.029014
    15  H    0.001418   0.420770   0.000000   0.000013   0.000000   0.000000
    16  H   -0.000288   0.414214   0.000000  -0.000035   0.000006   0.000000
    17  H   -0.000510   0.414863   0.000000   0.000012   0.000000   0.000000
             13         14         15         16         17
     1  P   -0.006309   0.005356  -0.008845  -0.014781  -0.001017
     2  O   -0.000366   0.005527  -0.000475   0.000203   0.006307
     3  O   -0.052932  -0.062023  -0.000649  -0.000879   0.000468
     4  O    0.000360  -0.000424  -0.000714   0.006214  -0.001258
     5  O    0.002780  -0.000674  -0.056650  -0.050975  -0.055593
     6  C   -0.000970  -0.000192  -0.000013   0.001469   0.000150
     7  C    0.417839   0.411594   0.001418  -0.000288  -0.000510
     8  C   -0.002166  -0.000363   0.420770   0.414214   0.414863
     9  H    0.000000   0.000000   0.000000   0.000000   0.000000
    10  H    0.000001   0.000000   0.000013  -0.000035   0.000012
    11  H    0.000000  -0.000009   0.000000   0.000006   0.000000
    12  H   -0.031341  -0.029014   0.000000   0.000000   0.000000
    13  H    0.547563  -0.034427   0.000013   0.000002  -0.000006
    14  H   -0.034427   0.530416   0.000000   0.000000   0.000000
    15  H    0.000013   0.000000   0.555867  -0.033357  -0.028922
    16  H    0.000002   0.000000  -0.033357   0.558098  -0.033291
    17  H   -0.000006   0.000000  -0.028922  -0.033291   0.516929
 Mulliken atomic charges:
              1
     1  P    2.073565
     2  O   -0.771725
     3  O   -0.655492
     4  O   -0.606118
     5  O   -0.697672
     6  C   -0.272959
     7  C   -0.266117
     8  C   -0.264019
     9  H    0.156155
    10  H    0.158825
    11  H    0.170127
    12  H    0.154422
    13  H    0.159960
    14  H    0.174233
    15  H    0.151544
    16  H    0.153401
    17  H    0.181869
 Sum of Mulliken atomic charges =   0.00000
 Mulliken charges with hydrogens summed into heavy atoms:
              1
     1  P    2.073565
     2  O   -0.771725
     3  O   -0.655492
     4  O   -0.606118
     5  O   -0.697672
     6  C    0.212149
     7  C    0.222499
     8  C    0.222795
 Sum of Mulliken charges with hydrogens summed into heavy atoms =   0.00000
 Electronic spatial extent (au):  <R**2>=           1125.9997
 Charge=              0.0000 electrons
 Dipole moment (field-independent basis, Debye):
    X=              0.3879    Y=              0.2856    Z=             -3.8007  Tot=              3.8311
 Quadrupole moment (field-independent basis, Debye-Ang):
   XX=            -46.0547   YY=            -49.6147   ZZ=            -62.8835
   XY=             -0.2371   XZ=              0.3340   YZ=              1.5733
 Traceless Quadrupole moment (field-independent basis, Debye-Ang):
   XX=              6.7963   YY=              3.2362   ZZ=            -10.0325
   XY=             -0.2371   XZ=              0.3340   YZ=              1.5733
 Octapole moment (field-independent basis, Debye-Ang**2):
  XXX=            -13.1517  YYY=              1.0554  ZZZ=            -11.0483  XYY=             13.4207
  XXY=             -0.4085  XXZ=             -6.5008  XZZ=              0.3440  YZZ=              4.7581
  YYZ=             -7.8134  XYZ=             -1.8434
 Hexadecapole moment (field-independent basis, Debye-Ang**3):
 XXXX=           -564.9856 YYYY=           -527.9392 ZZZZ=           -285.7776 XXXY=             -0.4424
 XXXZ=              9.0122 YYYX=              1.5176 YYYZ=              4.6169 ZZZX=              2.7770
 ZZZY=             13.1728 XXYY=           -180.6272 XXZZ=           -145.5309 YYZZ=           -140.3941
 XXYZ=             -1.0056 YYXZ=             -4.5097 ZZXY=             -4.3266
 N-N= 5.452389690510D+02 E-N=-2.886960960072D+03  KE= 7.568136537072D+02
 1\1\GINC-ROCK\FOpt\RB3LYP\6-31+G(d,p)\C3H9O4P1\STYLIANAKIS\27-Mar-2016
 \0\\# opt b3lyp/6-31+g(d,p)\\Trimethylphosphate-ecl\\0,1\P,0.047964594
 8,0.5304401056,0.206993595\O,-0.1792027777,1.9765143857,-0.0065524053\
 O,1.5398416899,-0.0374406134,0.0170500866\O,-0.2957383497,0.0442755717
 ,1.6938065787\O,-0.7789620074,-0.4385130901,-0.7967587178\C,-0.1004659
 642,-1.3209487401,2.1175301956\C,2.2701375962,0.2585997963,-1.19172420
 19\C,-2.0961500852,-0.0431604843,-1.237559108\H,-0.4896876782,-1.37665
 78715,3.1345860674\H,-0.6515059358,-2.0076088388,1.4684233952\H,0.9635
 283287,-1.5696638829,2.1080218451\H,3.2725895155,-0.1443077392,-1.0446
 115171\H,1.7952306823,-0.2283377101,-2.048431271\H,2.3203210541,1.3389
 782228,-1.3501764587\H,-2.3562044926,-0.7165800635,-2.0552977291\H,-2.
 8198673686,-0.1545039536,-0.4239976418\H,-2.0872207721,0.9926986755,-1
 .5842756627\\Version=EM64L-G09RevA.01\State=1-A\HF=-762.0797877\RMSD=7
 .397e-09\RMSF=7.715e-06\Dipole=0.0280639,-1.4347513,-0.4610391\Quadrup
 ole=4.4615581,-6.4044081,1.94285,1.5556974,-0.5175916,-3.1468348\PG=C0
 1 [X(C3H9O4P1)]\\@


 NATURE GIVES TO EVERY TIME AND SEASON SOME BEAUTY OF ITS OWN.

                                                    --DICKENS
 Job cpu time:  0 days  2 hours 34 minutes  9.3 seconds.
 File lengths (MBytes):  RWF=     21 Int=      0 D2E=      0 Chk=      4 Scr=      1
 Normal termination of Gaussian 09 at Sun Mar 27 20:32:44 2016.
