 Entering Link 1 = C:\G03W\l1.exe PID=      3464.
  
 Copyright (c) 1988,1990,1992,1993,1995,1998,2003,2004, Gaussian, Inc.
                  All Rights Reserved.
  
 This is the Gaussian(R) 03 program.  It is based on the
 the Gaussian(R) 98 system (copyright 1998, Gaussian, Inc.),
 the Gaussian(R) 94 system (copyright 1995, Gaussian, Inc.),
 the Gaussian 92(TM) system (copyright 1992, Gaussian, Inc.),
 the Gaussian 90(TM) system (copyright 1990, Gaussian, Inc.),
 the Gaussian 88(TM) system (copyright 1988, Gaussian, Inc.),
 the Gaussian 86(TM) system (copyright 1986, Carnegie Mellon
 University), and the Gaussian 82(TM) system (copyright 1983,
 Carnegie Mellon University). Gaussian is a federally registered
 trademark of Gaussian, Inc.
  
 This software contains proprietary and confidential information,
 including trade secrets, belonging to Gaussian, Inc.
  
 This software is provided under written license and may be
 used, copied, transmitted, or stored only in accord with that
 written license.
  
 The following legend is applicable only to US Government
 contracts under FAR:
  
                    RESTRICTED RIGHTS LEGEND
  
 Use, reproduction and disclosure by the US Government is
 subject to restrictions as set forth in subparagraphs (a)
 and (c) of the Commercial Computer Software - Restricted
 Rights clause in FAR 52.227-19.
  
 Gaussian, Inc.
 340 Quinnipiac St., Bldg. 40, Wallingford CT 06492
  
  
 ---------------------------------------------------------------
 Warning -- This program may not be used in any manner that
 competes with the business of Gaussian, Inc. or will provide
 assistance to any competitor of Gaussian, Inc.  The licensee
 of this program is prohibited from giving any competitor of
 Gaussian, Inc. access to this program.  By using this program,
 the user acknowledges that Gaussian, Inc. is engaged in the
 business of creating and licensing software in the field of
 computational chemistry and represents and warrants to the
 licensee that it is not a competitor of Gaussian, Inc. and that
 it will not use this program in any manner prohibited above.
 ---------------------------------------------------------------
  

 Cite this work as:
 Gaussian 03, Revision D.01,
 M. J. Frisch, G. W. Trucks, H. B. Schlegel, G. E. Scuseria, 
 M. A. Robb, J. R. Cheeseman, J. A. Montgomery, Jr., T. Vreven, 
 K. N. Kudin, J. C. Burant, J. M. Millam, S. S. Iyengar, J. Tomasi, 
 V. Barone, B. Mennucci, M. Cossi, G. Scalmani, N. Rega, 
 G. A. Petersson, H. Nakatsuji, M. Hada, M. Ehara, K. Toyota, 
 R. Fukuda, J. Hasegawa, M. Ishida, T. Nakajima, Y. Honda, O. Kitao, 
 H. Nakai, M. Klene, X. Li, J. E. Knox, H. P. Hratchian, J. B. Cross, 
 V. Bakken, C. Adamo, J. Jaramillo, R. Gomperts, R. E. Stratmann, 
 O. Yazyev, A. J. Austin, R. Cammi, C. Pomelli, J. W. Ochterski, 
 P. Y. Ayala, K. Morokuma, G. A. Voth, P. Salvador, J. J. Dannenberg, 
 V. G. Zakrzewski, S. Dapprich, A. D. Daniels, M. C. Strain, 
 O. Farkas, D. K. Malick, A. D. Rabuck, K. Raghavachari, 
 J. B. Foresman, J. V. Ortiz, Q. Cui, A. G. Baboul, S. Clifford, 
 J. Cioslowski, B. B. Stefanov, G. Liu, A. Liashenko, P. Piskorz, 
 I. Komaromi, R. L. Martin, D. J. Fox, T. Keith, M. A. Al-Laham, 
 C. Y. Peng, A. Nanayakkara, M. Challacombe, P. M. W. Gill, 
 B. Johnson, W. Chen, M. W. Wong, C. Gonzalez, and J. A. Pople, 
 Gaussian, Inc., Wallingford CT, 2004.
 
 ******************************************
 Gaussian 03:  IA32W-G03RevD.01 13-Oct-2005
                15-Jan-2008 
 ******************************************
 --------------
 # opt dreiding
 --------------
 1/6=10,10=10,14=-1,18=4000020,38=1,56=1,64=1/1,3;
 2/9=110,17=6,18=5,40=1/2;
 3/5=30,11=9,16=1,25=1,30=1/1;
 4/20=9,22=1001,24=3/2;
 7/44=-1/16;
 1/6=10,10=10,14=-1,18=4000020,64=1/3(2);
 2/9=110/2;
 99//99;
 2/9=110/2;
 3/5=30,11=9,16=1,25=1,30=1/1;
 4/16=2,20=9,22=1001,24=3/2;
 7/44=-1/16;
 1/6=10,10=10,14=-1,18=4000020,64=1/3(-4);
 2/9=110/2;
 99//99;
 ------------------------------
 2-(1-Ad)-N-Me-piperidine-eq,ax
 ------------------------------
 Symbolic Z-matrix:
 Charge =  0 Multiplicity = 1
 C                    -2.4609   -1.97652  -1.12046 
 C                    -2.6649   -0.45452  -1.09646 
 C                    -1.8509    0.15748   0.05654 
 C                    -0.9659   -2.27252  -1.30646 
 C                    -0.1719   -1.65952  -0.14046 
 C                    -0.3269   -0.12052  -0.09246 
 C                    -2.1999    0.14848  -2.43046 
 C                    -0.7029   -0.14652  -2.61146 
 C                     0.0881    0.48548  -1.45246 
 C                    -0.4749   -1.66652  -2.63146 
 C                     0.4361    0.47048   1.14054 
 C                     0.5211    2.01248   1.15754 
 C                     1.0331    2.52848   2.50954 
 C                     2.3511    1.83948   2.87654 
 C                     2.1881    0.31648   2.77954 
 N                     1.7291   -0.14652   1.47054 
 C                     2.7811    0.02648   0.47654 
 H                    -3.0529   -2.43452  -1.94846 
 H                    -2.8299   -2.43052  -0.16946 
 H                    -3.7509   -0.23052  -0.94946 
 H                    -2.2329   -0.25952   1.01854 
 H                    -2.0549    1.25148   0.08654 
 H                    -0.8099   -3.37952  -1.32346 
 H                     0.8941   -1.95452  -0.26246 
 H                    -0.5109   -2.10752   0.82354 
 H                    -2.3809    1.25048  -2.44046 
 H                    -2.7859   -0.28152  -3.27646 
 H                    -0.3579    0.29148  -3.58146 
 H                    -0.0889    1.58548  -1.46046 
 H                     1.1711    0.34648  -1.65446 
 H                    -1.0209   -2.12652  -3.48846 
 H                     0.6081   -1.89052  -2.78046 
 H                    -0.2299    0.20348   1.99654 
 H                    -0.4769    2.47148   0.97254 
 H                     1.1881    2.38548   0.34754 
 H                     0.2731    2.31448   3.29854 
 H                     1.1701    3.63648   2.47954 
 H                     2.6531    2.12648   3.91354 
 H                     3.1661    2.19148   2.20254 
 H                     1.4621   -0.01952   3.55854 
 H                     3.1471   -0.18752   3.05154 
 H                     2.9451    1.08748   0.19054 
 H                     3.7481   -0.37952   0.85254 
 H                     2.5761   -0.56752  -0.43846 
 
 Include all MM classes
 MMInit generated parameter data with length LenPar=  5726.

 GradGradGradGradGradGradGradGradGradGradGradGradGradGradGradGradGradGrad
 Berny optimization.
 Initialization pass.
 No Z-matrix variables, so optimization will use Cartesian coordinates.
 Trust Radius=1.00D-01 FncErr=1.00D-07 GrdErr=1.00D-07
 Number of steps in this run=   2 maximum allowed number of steps=   2.
 GradGradGradGradGradGradGradGradGradGradGradGradGradGradGradGradGradGrad

                          Input orientation:                          
 ---------------------------------------------------------------------
 Center     Atomic     Atomic              Coordinates (Angstroms)
 Number     Number      Type              X           Y           Z
 ---------------------------------------------------------------------
    1          6      10061003       -2.460900   -1.976515   -1.120462
    2          6      10061003       -2.664900   -0.454515   -1.096462
    3          6      10061003       -1.850900    0.157485    0.056538
    4          6      10061003       -0.965900   -2.272515   -1.306462
    5          6      10061003       -0.171900   -1.659515   -0.140462
    6          6      10061003       -0.326900   -0.120515   -0.092462
    7          6      10061003       -2.199900    0.148485   -2.430462
    8          6      10061003       -0.702900   -0.146515   -2.611462
    9          6      10061003        0.088100    0.485485   -1.452462
   10          6      10061003       -0.474900   -1.666515   -2.631462
   11          6      10061003        0.436100    0.470485    1.140538
   12          6      10061003        0.521100    2.012485    1.157538
   13          6      10061003        1.033100    2.528485    2.509538
   14          6      10061003        2.351100    1.839485    2.876538
   15          6      10061003        2.188100    0.316485    2.779538
   16          7      10071003        1.729100   -0.146515    1.470538
   17          6      10061003        2.781100    0.026485    0.476538
   18          1      10011000       -3.052900   -2.434515   -1.948462
   19          1      10011000       -2.829900   -2.430515   -0.169462
   20          1      10011000       -3.750900   -0.230515   -0.949462
   21          1      10011000       -2.232900   -0.259515    1.018538
   22          1      10011000       -2.054900    1.251485    0.086538
   23          1      10011000       -0.809900   -3.379515   -1.323462
   24          1      10011000        0.894100   -1.954515   -0.262462
   25          1      10011000       -0.510900   -2.107515    0.823538
   26          1      10011000       -2.380900    1.250485   -2.440462
   27          1      10011000       -2.785900   -0.281515   -3.276462
   28          1      10011000       -0.357900    0.291485   -3.581462
   29          1      10011000       -0.088900    1.585485   -1.460462
   30          1      10011000        1.171100    0.346485   -1.654462
   31          1      10011000       -1.020900   -2.126515   -3.488462
   32          1      10011000        0.608100   -1.890515   -2.780462
   33          1      10011000       -0.229900    0.203485    1.996538
   34          1      10011000       -0.476900    2.471485    0.972538
   35          1      10011000        1.188100    2.385485    0.347538
   36          1      10011000        0.273100    2.314485    3.298538
   37          1      10011000        1.170100    3.636485    2.479538
   38          1      10011000        2.653100    2.126485    3.913538
   39          1      10011000        3.166100    2.191485    2.202538
   40          1      10011000        1.462100   -0.019515    3.558538
   41          1      10011000        3.147100   -0.187515    3.051538
   42          1      10011000        2.945100    1.087485    0.190538
   43          1      10011000        3.748100   -0.379515    0.852538
   44          1      10011000        2.576100   -0.567515   -0.438462
 ---------------------------------------------------------------------
                    Distance matrix (angstroms):
                    1          2          3          4          5
     1  C    0.000000
     2  C    1.535798   0.000000
     3  C    2.512247   1.538359   0.000000
     4  C    1.535330   2.497163   2.923336   0.000000
     5  C    2.510062   2.929336   2.481802   1.538103   0.000000
     6  C    3.009232   2.566284   1.556297   2.552101   1.547530
     7  C    2.509949   1.536031   2.511384   2.940642   3.553273
     8  C    2.943220   2.497906   2.920367   2.508400   2.945670
     9  C    3.559364   2.930758   2.478787   2.956145   2.527839
    10  C    2.514641   2.936200   3.527846   1.537512   2.509370
    11  C    4.415036   3.933954   2.550175   3.934141   2.558813
    12  C    5.476653   4.617055   3.206183   5.161753   3.955836
    13  C    6.758695   5.964623   4.467248   6.450384   5.100379
    14  C    7.327565   6.797604   5.332760   6.738585   5.264107
    15  C    6.486991   6.258548   4.873759   5.774602   4.242709
    16  N    5.255310   5.098195   3.861115   4.415272   2.915183
    17  C    5.834465   5.688990   4.652847   4.743891   3.455936
    18  H    1.116159   2.190171   3.490457   2.189515   3.488503
    19  H    1.116547   2.188865   2.776195   2.189116   2.767715
    20  H    2.177581   1.118562   2.184624   3.471806   3.937736
    21  H    2.752343   2.167458   1.115911   3.326121   2.747909
    22  H    3.470111   2.163799   1.113262   3.942708   3.474354
    23  H    2.176102   3.471049   3.936807   1.118067   2.182873
    24  H    3.463044   3.951207   3.478122   2.156539   1.112774
    25  H    2.756592   3.325436   2.741188   2.184296   1.115760
    26  H    3.487453   2.189524   2.776789   3.962286   4.317150
    27  H    2.761700   2.190199   3.489389   3.340267   4.308872
    28  H    3.952588   3.471886   3.934723   3.481291   3.959985
    29  H    4.292998   3.306036   2.728574   3.959420   3.504185
    30  H    4.344296   3.958265   3.477891   3.398093   2.849540
    31  H    2.775522   3.349624   4.297974   2.187571   3.485397
    32  H    3.490237   3.951010   4.276629   2.189995   2.762492
    33  H    4.409700   3.991095   2.528509   4.193099   2.835648
    34  H    5.301095   4.198759   2.842803   5.285688   4.289167
    35  H    5.873438   4.999634   3.779443   5.391882   4.295319
    36  H    6.739065   5.967850   4.435605   6.616775   5.274222
    37  H    7.592755   6.650660   5.205844   7.335705   6.059124
    38  H    8.266121   7.748728   6.248154   7.726368   6.224897
    39  H    7.750979   7.203144   5.823466   7.022379   5.609108
    40  H    6.411928   6.236215   4.824034   5.885526   4.363732
    41  H    7.214968   7.145386   5.836870   6.344774   4.834399
    42  H    6.350721   5.958711   4.887174   5.369034   4.167884
    43  H    6.707818   6.703044   5.680738   5.519649   4.241562
    44  H    5.274635   5.283353   4.513201   4.025694   2.971998
                    6          7          8          9         10
     6  C    0.000000
     7  C    3.007779   0.000000
     8  C    2.547040   1.536488   0.000000
     9  C    1.545659   2.510975   1.538956   0.000000
    10  C    2.976330   2.512021   1.537135   2.517561   0.000000
    11  C    1.565803   4.450193   3.969322   2.616291   4.429974
    12  C    2.613674   4.873611   4.512740   3.054721   5.374344
    13  C    3.954391   6.365555   6.032741   4.556788   6.804555
    14  C    4.452892   7.192728   6.587052   5.068997   7.114519
    15  C    3.842470   6.813726   6.134748   4.727408   6.348447
    16  N    2.582786   5.544535   4.751563   3.411192   4.898410
    17  C    3.163074   5.768526   4.658748   3.344244   4.809101
    18  H    4.028698   2.762575   3.346194   4.317209   2.775319
    19  H    3.406910   3.487157   3.962846   4.320170   3.491585
    20  H    3.531335   2.177752   3.472694   3.937459   3.952644
    21  H    2.210538   3.473205   3.940884   3.471010   4.288673
    22  H    2.213687   2.751894   3.325885   2.747313   4.289365
    23  H    3.517063   3.950232   3.481764   3.970047   2.181160
    24  H    2.209818   4.323849   3.367057   2.831843   2.751230
    25  H    2.195696   4.304738   3.960001   3.501803   3.483217
    26  H    3.407589   1.116810   2.190099   2.767188   3.489729
    27  H    4.026221   1.115353   2.190739   3.489289   2.770374
    28  H    3.513378   2.176744   1.118825   2.183848   2.179439
    29  H    2.199660   2.731701   2.168322   1.114178   3.477893
    30  H    2.214032   3.464826   2.161197   1.110412   2.777771
    31  H    4.004808   2.772189   2.188756   3.492524   1.115421
    32  H    3.351488   3.487820   2.188337   2.771166   1.115915
    33  H    2.116201   4.845849   4.645416   3.475090   4.997530
    34  H    2.806277   4.466035   4.444104   3.184972   5.487428
    35  H    2.961226   4.919349   4.329271   2.839014   5.297048
    36  H    4.217595   6.605204   6.475894   5.094258   7.181418
    37  H    4.792832   6.901532   6.613433   5.153654   7.546533
    38  H    5.475166   8.228635   7.681464   6.169770   8.185857
    39  H    4.776339   7.377838   6.603787   5.073810   7.176949
    40  H    4.067004   7.021865   6.540050   5.220443   6.691837
    41  H    4.685926   7.665222   6.847901   5.486021   6.899479
    42  H    3.499334   5.849990   4.762548   3.350269   5.219636
    43  H    4.191149   6.814365   5.644908   4.410992   5.623909
    44  H    2.957522   5.224069   3.956136   2.885680   3.914799
                   11         12         13         14         15
    11  C    0.000000
    12  C    1.544435   0.000000
    13  C    2.542820   1.535026   0.000000
    14  C    2.924907   2.516702   1.531840   0.000000
    15  C    2.404068   2.878574   2.509954   1.534766   0.000000
    16  N    1.470183   2.493695   2.952890   2.511556   1.462372
    17  C    2.477308   3.084730   3.667233   3.038399   2.395737
    18  H    5.491272   6.495885   7.823077   8.411356   7.575623
    19  H    4.560554   5.721047   6.833117   7.372501   6.436065
    20  H    4.731857   5.265024   6.516396   7.493836   7.033944
    21  H    2.769719   3.572929   4.545633   5.373176   4.793552
    22  H    2.815308   2.891702   4.127639   5.248112   5.111705
    23  H    4.737754   6.082811   7.279629   7.407421   6.283552
    24  H    2.838802   4.229967   5.272627   5.135232   4.010691
    25  H    2.764667   4.260397   5.169045   5.290053   4.121445
    26  H    4.622494   4.684853   6.147453   7.142075   6.999751
    27  H    5.518757   5.988242   7.480552   8.291370   7.859607
    28  H    4.791634   5.117871   6.636214   7.172221   6.851647
    29  H    2.878203   2.721829   4.231907   4.982739   4.977217
    30  H    2.892685   3.332477   4.703091   4.914408   4.549236
    31  H    5.504080   6.410491   7.865364   8.222698   7.453439
    32  H    4.580191   5.545162   6.905960   6.996613   6.187152
    33  H    1.116952   2.130822   2.695174   3.180009   2.544127
    34  H    2.205854   1.113961   2.155393   3.467308   3.874468
    35  H    2.204899   1.113606   2.172261   2.836640   3.345951
    36  H    2.843215   2.176371   1.116207   2.172969   2.815775
    37  H    3.515001   2.192319   1.116841   2.186682   3.485502
    38  H    3.917519   3.486252   2.181105   1.117561   2.185928
    39  H    3.397438   2.849577   2.181171   1.114632   2.192040
    40  H    2.671984   3.283185   2.788682   2.170559   1.116608
    41  H    3.381480   3.914475   3.484166   2.184713   1.116996
    42  H    2.752866   2.768843   3.333165   2.851830   2.805425
    43  H    3.431441   4.028426   4.309680   3.312423   2.575140
    44  H    2.854870   3.664238   4.544972   4.102865   3.359691
                   16         17         18         19         20
    16  N    0.000000
    17  C    1.457624   0.000000
    18  H    6.308092   6.780317   0.000000
    19  H    5.356373   6.159341   1.792927   0.000000
    20  H    5.991148   6.690781   2.518496   2.509311   0.000000
    21  H    3.989300   5.051312   3.769100   2.545780   2.485596
    22  H    4.264800   5.003961   4.327104   3.771377   2.479120
    23  H    4.970437   5.266509   2.512906   2.512512   4.324992
    24  H    2.639958   2.833946   4.318774   3.755450   5.002017
    25  H    3.046593   3.938481   3.775272   2.543254   4.142977
    26  H    5.842913   6.054198   3.777946   4.348425   2.508653
    27  H    6.552668   6.720964   2.543675   3.778040   2.519674
    28  H    5.483623   5.137208   4.166628   5.016155   4.325778
    29  H    3.859496   3.797282   5.018350   5.030708   4.119371
    30  H    3.212482   2.689918   5.065824   5.091655   5.005601
    31  H    6.006212   5.900156   2.568168   3.792184   4.182611
    32  H    4.729607   4.359457   3.793558   4.350720   5.010892
    33  H    2.058363   3.377551   5.521902   4.288299   4.611368
    34  H    3.459532   4.103487   6.263933   5.556112   4.659824
    35  H    2.822204   2.849416   6.818365   6.293288   5.737542
    36  H    3.393824   4.414600   7.819609   6.646101   6.380839
    37  H    3.954953   4.431640   8.619626   7.734707   7.136384
    38  H    3.462449   4.029808   9.366120   8.215864   8.379465
    39  H    2.840253   2.795447   8.792419   7.933554   7.977849
    40  H    2.108830   3.352701   7.519608   6.175125   6.895067
    41  H    2.124139   2.609670   8.275809   7.150554   7.974475
    42  H    2.154022   1.111041   7.277074   6.771746   6.919042
    43  H    2.124282   1.114137   7.636899   6.965714   7.713910
    44  H    2.130477   1.109994   6.119757   5.724331   6.356541
                   21         22         23         24         25
    21  H    0.000000
    22  H    1.784217   0.000000
    23  H    4.152625   4.998428   0.000000
    24  H    3.780491   4.369993   2.461699   0.000000
    25  H    2.533459   3.769614   2.513363   1.782366   0.000000
    26  H    3.777127   2.547942   5.015240   5.073592   5.042495
    27  H    4.330510   3.767522   4.161297   5.042373   5.031888
    28  H    4.997922   4.153990   4.333487   4.198545   5.018230
    29  H    3.761144   2.523870   5.018948   3.864336   4.362681
    30  H    4.370284   3.775868   4.232848   2.703515   3.871915
    31  H    5.026697   5.025999   2.510330   3.755514   4.342097
    32  H    5.016358   5.018309   2.520058   2.534998   3.779956
    33  H    2.276590   2.842011   4.919013   3.320154   2.606839
    34  H    3.247155   2.182540   6.294180   4.795242   4.581550
    35  H    4.376015   3.445450   6.326094   4.392509   4.827031
    36  H    4.254869   4.106884   7.413326   5.593811   5.127803
    37  H    5.375290   4.670685   8.222376   6.233299   6.209801
    38  H    6.160115   6.129993   8.350723   6.098165   6.122561
    39  H    6.046359   5.711383   7.699175   5.331747   5.822660
    40  H    4.490237   5.102893   6.347087   4.320520   3.966447
    41  H    5.751754   6.158145   6.707260   4.379600   4.693756
    42  H    5.414026   5.003770   6.028790   3.696698   4.748963
    43  H    5.984506   6.076325   5.874550   3.445166   4.596293
    44  H    5.034302   5.003054   4.489495   2.187206   3.673393
                   26         27         28         29         30
    26  H    0.000000
    27  H    1.791632   0.000000
    28  H    2.512786   2.513272   0.000000
    29  H    2.515132   3.749314   2.499087   0.000000
    30  H    3.748562   4.322397   2.460527   1.777739   0.000000
    31  H    3.788408   2.562068   2.508972   4.331322   3.779438
    32  H    4.349207   3.788685   2.517118   3.782960   2.566907
    33  H    5.040831   5.879872   5.580162   3.725675   3.913189
    34  H    4.094463   5.564575   5.050295   2.618211   3.759343
    35  H    4.668932   6.003244   4.712960   2.353634   2.857589
    36  H    6.411859   7.702423   7.198965   4.828102   5.404779
    37  H    6.519892   8.008258   7.089396   4.616848   5.283376
    38  H    8.153640   9.331521   8.283017   6.057320   6.030535
    39  H    7.294665   8.459402   7.034432   4.937594   4.718103
    40  H    7.236681   8.051793   7.374871   5.492903   5.233928
    41  H    7.923932   8.674843   7.517390   5.828668   5.131878
    42  H    5.942643   6.836564   5.076555   3.489837   2.664617
    43  H    7.146005   7.729903   6.080282   4.892215   3.667841
    44  H    5.646678   6.073474   4.384596   3.575209   2.070767
                   31         32         33         34         35
    31  H    0.000000
    32  H    1.791815   0.000000
    33  H    6.011639   5.282690   0.000000
    34  H    6.429468   5.855705   2.500682   0.000000
    35  H    6.320816   5.329630   3.080755   1.780518   0.000000
    36  H    8.213421   7.399222   2.530718   2.448964   3.090415
    37  H    8.580774   7.650567   3.738820   2.518111   2.471993
    38  H    9.293863   8.070189   3.960367   4.308759   3.863892
    39  H    8.280312   6.930828   3.940482   3.855224   2.718666
    40  H    7.763050   6.664299   2.313533   4.080710   4.021147
    41  H    7.993969   6.584752   3.559499   4.952363   4.215403
    42  H    6.292376   4.812161   3.758153   3.773203   2.190092
    43  H    6.681291   5.034025   4.180085   5.098355   3.801822
    44  H    4.967030   3.332914   3.794378   4.532908   3.356270
                   36         37         38         39         40
    36  H    0.000000
    37  H    1.795287   0.000000
    38  H    2.465354   2.556510   0.000000
    39  H    3.096093   2.479671   1.787433   0.000000
    40  H    2.632276   3.823067   2.479883   3.103365   0.000000
    41  H    3.818493   4.342659   2.518268   2.526025   1.767625
    42  H    4.278408   3.858438   3.876276   2.305602   3.842937
    43  H    5.031518   5.041971   4.104727   2.961632   3.560594
    44  H    5.251181   5.307087   5.118932   3.864591   4.185368
                   41         42         43         44
    41  H    0.000000
    42  H    3.138750   0.000000
    43  H    2.287721   1.798650   0.000000
    44  H    3.556760   1.808543   1.753741   0.000000
 Stoichiometry    C16H27N
 Framework group  C1[X(C16H27N)]
 Deg. of freedom   126
 Full point group                 C1
 Largest Abelian subgroup         C1      NOp   1
 Largest concise Abelian subgroup C1      NOp   1
                         Standard orientation:                         
 ---------------------------------------------------------------------
 Center     Atomic     Atomic              Coordinates (Angstroms)
 Number     Number      Type              X           Y           Z
 ---------------------------------------------------------------------
    1          6      10061003       -3.050642   -0.041833   -1.381996
    2          6      10061003       -2.545761   -1.279708   -0.626062
    3          6      10061003       -1.014468   -1.367877   -0.744039
    4          6      10061003       -2.395729    1.208339   -0.777514
    5          6      10061003       -0.867145    1.103802   -0.912661
    6          6      10061003       -0.309339   -0.117418   -0.143036
    7          6      10061003       -2.942009   -1.176179    0.854364
    8          6      10061003       -2.282044    0.073773    1.456743
    9          6      10061003       -0.752460   -0.045289    1.335985
   10          6      10061003       -2.768886    1.325674    0.709405
   11          6      10061003        1.237863   -0.238266   -0.351130
   12          6      10061003        1.920315   -1.294997    0.544893
   13          6      10061003        3.367936   -1.550716    0.102961
   14          6      10061003        4.139161   -0.229805    0.019653
   15          6      10061003        3.362168    0.774284   -0.842667
   16          7      10071003        1.997438    1.020201   -0.378374
   17          6      10061003        2.016834    1.770938    0.870900
   18          1      10011000       -4.162230    0.029811   -1.310924
   19          1      10011000       -2.800478   -0.123480   -2.467090
   20          1      10011000       -3.009708   -2.196336   -1.068473
   21          1      10011000       -0.749706   -1.486784   -1.821545
   22          1      10011000       -0.677392   -2.298387   -0.234251
   23          1      10011000       -2.758031    2.113737   -1.324384
   24          1      10011000       -0.426564    2.053914   -0.536574
   25          1      10011000       -0.587516    1.035814   -1.990671
   26          1      10011000       -2.615400   -2.090229    1.406725
   27          1      10011000       -4.051130   -1.117635    0.956521
   28          1      10011000       -2.566205    0.154015    2.535901
   29          1      10011000       -0.422863   -0.955546    1.887520
   30          1      10011000       -0.294068    0.817365    1.863923
   31          1      10011000       -3.873503    1.434594    0.819501
   32          1      10011000       -2.308127    2.240622    1.151940
   33          1      10011000        1.318515   -0.638362   -1.390841
   34          1      10011000        1.375141   -2.265699    0.507045
   35          1      10011000        1.914540   -0.978371    1.612523
   36          1      10011000        3.367009   -2.040907   -0.899850
   37          1      10011000        3.875033   -2.251835    0.809090
   38          1      10011000        5.151077   -0.408578   -0.419673
   39          1      10011000        4.307935    0.178528    1.042973
   40          1      10011000        3.325855    0.396552   -1.892816
   41          1      10011000        3.925672    1.736488   -0.908293
   42          1      10011000        2.344973    1.165070    1.742485
   43          1      10011000        2.696181    2.650353    0.790787
   44          1      10011000        1.024159    2.215547    1.092274
 ---------------------------------------------------------------------
 Rotational constants (GHZ):      1.0455892      0.3164180      0.2979053
 Standard basis: Dummy (5D, 7F)
 There are    44 symmetry adapted basis functions of A   symmetry.
 Integral buffers will be    262144 words long.
 Raffenetti 1 integral format.
 Two-electron integral symmetry is turned on.
    44 basis functions,    44 primitive gaussians,    44 cartesian basis functions
    30 alpha electrons       30 beta electrons
       nuclear repulsion energy       280.2373662340 Hartrees.
 NAtoms=   44 NActive=   44 NUniq=   44 SFac= 7.50D-01 NAtFMM=   80 NAOKFM=F Big=F
 Dreiding calculation of energy and first derivatives.
 MO and density RWFs will be updated without deorthogonalization.
 NRF= 0 NRA=   0 NVA=  44 HaveQM=F
 Convergence limit is  0.750E-04 MaxStp=  5000 StMxLn= 1.00D-04 StpMin= 1.00D-06.
 Convergence criteria           0.00011250 0.00007500 0.00045000 0.00030000
  Step  NS  ND Rises OKQ   Scale  Max. Force  RMS Force Max. Disp.  RMS Disp.     Energy   Flag
     1   0   0   F    T  1.00D+00 0.03633191 0.01403860 0.03633191 0.01403860    0.1261688 ----
     2   0   0   F    F  2.35D-01 0.03633191 0.01403860 0.03633191 0.01403860    0.1107290 ----
     3   0   0   F    T  5.10D+00 0.01101262 0.00330931 0.01170318 0.00340001    0.1101504 ----
     4   0   0   F    F -3.49D-01 0.01101262 0.00330931 0.05969805 0.01734349    0.1084423 ----
     5   0   0   F    T  2.22D+00 0.01569524 0.00346344 0.01859846 0.00508760    0.1077556 ----
     6   0   0   F    F  4.19D-01 0.01569524 0.00346344 0.04125253 0.01128460    0.1054920 ----
     7   0   0   F    T  3.47D+00 0.00994812 0.00288177 0.01412128 0.00462036    0.1052779 ----
     8   0   0   F    F -2.16D-01 0.00994812 0.00288177 0.04893460 0.01601097    0.1039018 ----
     9   0   0   F    T  3.44D+00 0.00729261 0.00224560 0.00978700 0.00364326    0.1037881 ----
    10   0   0   F    F -2.81D-01 0.00729261 0.00224560 0.03371011 0.01254877    0.1030901 ----
    11   0   0   F    T  3.40D+00 0.00644642 0.00167955 0.00659131 0.00265202    0.1029642 ----
    12   0   0   F    F  1.41D-02 0.00644642 0.00167955 0.02242063 0.00902095    0.1023221 ----
    13   0   0   F    T  3.27D+00 0.00500786 0.00156876 0.00734760 0.00280061    0.1023220 ----
    14   0   0   F    F -1.43D-01 0.00500786 0.00156876 0.02400073 0.00914810    0.1018802 ----
    15   0   0   F    T  2.70D+00 0.00492029 0.00147940 0.00836274 0.00289944    0.1018675 ----
    16   0   0   F    F  2.42D-01 0.00492029 0.00147940 0.02260653 0.00783788    0.1014013 ----
    17   0   0   F    T  3.23D+00 0.00495173 0.00141465 0.00864091 0.00301122    0.1013829 ----
    18   0   0   F    F -1.22D-01 0.00495173 0.00141465 0.02793858 0.00973613    0.1010155 ----
    19   0   0   F    T  3.70D+00 0.00398867 0.00114825 0.00714102 0.00230947    0.1010083 ----
    20   0   0   F    F -3.42D-01 0.00398867 0.00114825 0.02644078 0.00855119    0.1008538 ----
    21   0   0   F    T  5.07D+00 0.00213191 0.00069783 0.00399430 0.00111001    0.1007965 ----
    22   0   0   F    F -4.55D-01 0.00213191 0.00069783 0.02023851 0.00562423    0.1007697 ----
    23   0   0   F    T  2.69D+00 0.00200657 0.00064217 0.00448531 0.00113917    0.1007078 ----
    24   0   0   F    F  2.16D-01 0.00200657 0.00064217 0.01206548 0.00306435    0.1006216 ----
    25   0   0   F    T  3.23D+00 0.00168483 0.00059745 0.00483490 0.00115268    0.1006187 ----
    26   0   0   F    F -2.26D-01 0.00168483 0.00059745 0.01562827 0.00372590    0.1005648 ----
    27   0   0   F    T  4.08D+00 0.00124856 0.00041990 0.00334543 0.00070718    0.1005598 ----
    28   0   0   F    F -3.33D-01 0.00124856 0.00041990 0.01365095 0.00288565    0.1005360 ----
    29   0   0   F    T  3.89D+00 0.00105999 0.00030992 0.00254500 0.00049446    0.1005281 ----
    30   0   0   F    F  4.66D-01 0.00105999 0.00030992 0.00990857 0.00192511    0.1004956 ----
    31   0   0   F    T  3.52D+00 0.00138485 0.00037166 0.00393232 0.00080262    0.1004919 ----
    32   0   0   F    F -3.81D-01 0.00138485 0.00037166 0.01383025 0.00282288    0.1004796 ----
    33   0   0   F    T  3.70D+00 0.00084173 0.00026023 0.00207002 0.00047208    0.1004721 ----
    34   0   0   F    F -1.76D-01 0.00084173 0.00026023 0.00766053 0.00174704    0.1004591 ----
    35   0   0   F    T  4.02D+00 0.00086096 0.00020529 0.00139307 0.00035866    0.1004584 ----
    36   0   0   F    F -9.88D-02 0.00086096 0.00020529 0.00559318 0.00144004    0.1004485 ----
    37   0   0   F    T  3.27D+00 0.00085022 0.00020050 0.00125529 0.00039656    0.1004484 ----
    38   0   0   F    F -2.02D-01 0.00085022 0.00020050 0.00410818 0.00129782    0.1004419 ----
    39   0   0   F    T  2.68D+00 0.00059688 0.00018564 0.00102775 0.00038726    0.1004414 ----
    40   0   0   F    F  2.57D-01 0.00059688 0.00018564 0.00274957 0.00103605    0.1004341 ----
    41   0   0   F    T  3.63D+00 0.00061292 0.00016796 0.00096455 0.00035871    0.1004338 ----
    42   0   0   F    F -2.31D-01 0.00061292 0.00016796 0.00350169 0.00130227    0.1004291 ----
    43   0   0   F    T  3.20D+00 0.00039720 0.00014739 0.00095993 0.00031295    0.1004286 ----
    44   0   0   F    F  7.76D-02 0.00039720 0.00014739 0.00306991 0.00100085    0.1004237 ----
    45   0   0   F    T  3.64D+00 0.00048873 0.00013527 0.00105990 0.00029618    0.1004237 ---+
    46   0   0   F    F -2.57D-01 0.00048873 0.00013527 0.00385942 0.00107849    0.1004208 ----
    47   0   0   F    T  2.71D+00 0.00051098 0.00012818 0.00105392 0.00029534    0.1004204 ---+
    48   0   0   F    F  1.92D-01 0.00051098 0.00012818 0.00286073 0.00080166    0.1004170 ----
    49   0   0   F    T  4.57D+00 0.00028436 0.00010086 0.00060429 0.00020901    0.1004169 ---+
    50   0   0   F    F -9.94D-02 0.00028436 0.00010086 0.00276228 0.00095540    0.1004141 ----
    51   0   0   F    T  2.32D+00 0.00058958 0.00012990 0.00099350 0.00037019    0.1004141 ----
    52   0   0   F    F  6.17D-01 0.00058958 0.00012990 0.00230931 0.00086047    0.1004105 ----
    53   0   0   F    T  4.29D+00 0.00038355 0.00011736 0.00086085 0.00032408    0.1004099 ----
    54   0   0   F    F -4.56D-01 0.00038355 0.00011736 0.00369584 0.00139136    0.1004093 ----
    55   0   0   F    T  3.12D+00 0.00033680 0.00009728 0.00067426 0.00024295    0.1004078 ---+
    56   0   0   F    F  9.46D-01 0.00033680 0.00009728 0.00210079 0.00075695    0.1004049 ----
    57   0   0   F    T  2.90D+00 0.00038670 0.00013786 0.00149509 0.00050708    0.1004040 ----
    58   0   0   F    F  8.29D-02 0.00038670 0.00013786 0.00434235 0.00147276    0.1004001 ----
    59   0   0   F    T  3.58D+00 0.00034516 0.00012647 0.00136100 0.00044551    0.1004001 ----
    60   0   0   F    F  2.98D-01 0.00034516 0.00012647 0.00487217 0.00159486    0.1003954 ----
    61   0   0   F    T  4.53D+00 0.00035624 0.00012553 0.00145694 0.00045669    0.1003952 ----
    62   0   0   F    F -4.42D-01 0.00035624 0.00012553 0.00660299 0.00206977    0.1003942 ----
    63   0   0   F    T  3.20D+00 0.00036047 0.00010895 0.00109966 0.00036079    0.1003925 ----
    64   0   0   F    F  2.04D-01 0.00036047 0.00010895 0.00351991 0.00115486    0.1003896 ----
    65   0   0   F    T  3.88D+00 0.00037688 0.00010609 0.00096621 0.00035827    0.1003895 ----
    66   0   0   F    F -2.90D-01 0.00037688 0.00010609 0.00374889 0.00139010    0.1003878 ----
    67   0   0   F    T  2.48D+00 0.00042877 0.00010966 0.00107615 0.00039829    0.1003875 ----
    68   0   0   F    F  8.25D-01 0.00042877 0.00010966 0.00266773 0.00098734    0.1003846 ----
    69   0   0   F    T  3.41D+00 0.00038078 0.00012450 0.00163239 0.00052838    0.1003839 ----
    70   0   0   F    F -2.79D-01 0.00038078 0.00012450 0.00556786 0.00180223    0.1003817 ----
    71   0   0   F    T  4.00D+00 0.00030007 0.00009539 0.00114571 0.00032477    0.1003814 ----
    72   0   0   F    F -4.05D-02 0.00030007 0.00009539 0.00458620 0.00130001    0.1003791 ----
    73   0   0   F    T  3.72D+00 0.00031518 0.00009493 0.00121793 0.00033537    0.1003791 ----
    74   0   0   F    F -2.87D-02 0.00031518 0.00009493 0.00452985 0.00124733    0.1003769 ----
    75   0   0   F    T  2.51D+00 0.00041642 0.00011234 0.00173826 0.00048289    0.1003769 ----
    76   0   0   F    F  1.52D-01 0.00041642 0.00011234 0.00436108 0.00121152    0.1003745 ----
    77   0   0   F    T  5.16D+00 0.00031010 0.00008216 0.00095652 0.00027084    0.1003745 ---+
    78   0   0   F    F -4.18D-01 0.00031010 0.00008216 0.00493105 0.00139624    0.1003739 ----
    79   0   0   F    T  3.33D+00 0.00026465 0.00007597 0.00083667 0.00024364    0.1003732 ---+
    80   0   0   F    F -8.62D-02 0.00026465 0.00007597 0.00278975 0.00081240    0.1003720 ----
    81   0   0   F    T  4.84D+00 0.00015648 0.00005798 0.00051292 0.00015337    0.1003720 -+-+
    82   0   0   F    F -4.74D-01 0.00015648 0.00005798 0.00248259 0.00074233    0.1003719 -+--
    83   0   0   F    T  4.35D+00 0.00012780 0.00004172 0.00029366 0.00008974    0.1003714 -+++
    84   0   0   F    F -1.10D-01 0.00012780 0.00004172 0.00127809 0.00039060    0.1003710 -+--
    85   0   0   F    T  2.46D+00 0.00016023 0.00005064 0.00051539 0.00014156    0.1003710 -+-+
    86   0   0   F    F  6.94D-01 0.00016023 0.00005064 0.00126571 0.00034764    0.1003704 -+--
    87   0   0   F    T  5.18D+00 0.00013272 0.00004362 0.00038398 0.00011369    0.1003703 -+++
    88   0   0   F    F -4.93D-01 0.00013272 0.00004362 0.00198931 0.00058899    0.1003703 -+--
    89   0   0   F    T  2.59D+00 0.00012859 0.00004236 0.00047803 0.00011530    0.1003700 -+-+
    90   0   0   F    F  4.66D-01 0.00012859 0.00004236 0.00123835 0.00029869    0.1003696 -+-+
    91   0   0   F    T  3.62D+00 0.00010382 0.00004200 0.00053529 0.00012093    0.1003695 ++-+
    92   0   0   F    F  1.08D-01 0.00010382 0.00004200 0.00193845 0.00043793    0.1003690 ++--
    93   0   0   F    T  2.43D+00 0.00012746 0.00005295 0.00084511 0.00019937    0.1003690 -+-+
    94   0   0   F    F  3.04D-01 0.00012746 0.00005295 0.00205706 0.00048529    0.1003685 -+--
    95   0   0   F    T  4.95D+00 0.00013891 0.00004124 0.00049303 0.00012782    0.1003685 -+-+
    96   0   0   T    F  4.92D-01 0.00013891 0.00004124 0.00244031 0.00063268    0.1003685 -+--
    97   0   0   F    T  2.59D+00 0.00011692 0.00003889 0.00043500 0.00012008    0.1003682 -+++
    98   0   0   F    F  8.57D-01 0.00011692 0.00003889 0.00112755 0.00031124    0.1003678 -+--
    99   0   0   F    T  4.04D+00 0.00013771 0.00004152 0.00052908 0.00014302    0.1003677 -+-+
   100   0   0   F    F -3.89D-01 0.00013771 0.00004152 0.00213787 0.00057792    0.1003675 -+--
   101   0   0   F    T  4.21D+00 0.00008628 0.00003066 0.00028758 0.00008378    0.1003674 ====
 Energy=    0.100367421376 NIter=   0.
 Dipole moment=       0.000000       0.000000       0.000000
 ***** Axes restored to original set *****
 -------------------------------------------------------------------
 Center     Atomic                   Forces (Hartrees/Bohr)
 Number     Number              X              Y              Z
 -------------------------------------------------------------------
    1          6          -0.000026082    0.000088898    0.000023734
    2          6           0.000050946    0.000029516   -0.000008660
    3          6          -0.000018097   -0.000006682   -0.000026738
    4          6           0.000017196   -0.000005287   -0.000089365
    5          6          -0.000038699   -0.000046186    0.000027675
    6          6          -0.000005875   -0.000003589   -0.000025425
    7          6          -0.000024727   -0.000000721    0.000048499
    8          6           0.000035906   -0.000000648    0.000000495
    9          6           0.000002805    0.000014077    0.000096138
   10          6          -0.000036249    0.000053829    0.000003843
   11          6          -0.000059263    0.000023448    0.000044928
   12          6          -0.000071676   -0.000017075   -0.000044414
   13          6          -0.000019867    0.000003651   -0.000015040
   14          6           0.000069934   -0.000035983   -0.000030570
   15          6           0.000067844   -0.000015186    0.000074685
   16          7          -0.000039633    0.000002841   -0.000012189
   17          6          -0.000022489   -0.000005845   -0.000014678
   18          1           0.000015718   -0.000016273    0.000054436
   19          1           0.000012039   -0.000003508   -0.000014190
   20          1          -0.000002356   -0.000011161   -0.000007032
   21          1          -0.000001477    0.000028742   -0.000026276
   22          1          -0.000013516    0.000004137   -0.000027909
   23          1           0.000019151    0.000010622    0.000015667
   24          1          -0.000013923   -0.000001215    0.000001968
   25          1          -0.000015183    0.000025441   -0.000011798
   26          1           0.000030148   -0.000037180   -0.000001030
   27          1           0.000010736   -0.000003913   -0.000016405
   28          1           0.000019467   -0.000000080    0.000035290
   29          1          -0.000027923   -0.000037269   -0.000006874
   30          1          -0.000004758   -0.000024994   -0.000012809
   31          1           0.000021823   -0.000018697   -0.000012003
   32          1           0.000042673    0.000008986    0.000034914
   33          1           0.000018406   -0.000021499   -0.000046430
   34          1          -0.000022406   -0.000015552    0.000042256
   35          1          -0.000016858    0.000012023   -0.000014770
   36          1           0.000069446   -0.000006434   -0.000051371
   37          1          -0.000012863   -0.000026785    0.000005195
   38          1           0.000014916    0.000001968    0.000045999
   39          1          -0.000010598    0.000006245    0.000016419
   40          1           0.000022018    0.000015676   -0.000034574
   41          1          -0.000004145   -0.000002023    0.000010829
   42          1          -0.000008216    0.000003627   -0.000033288
   43          1          -0.000005103    0.000032497   -0.000037821
   44          1          -0.000019189   -0.000002436    0.000038692
 -------------------------------------------------------------------
 Cartesian Forces:  Max     0.000096138 RMS     0.000030658

 GradGradGradGradGradGradGradGradGradGradGradGradGradGradGradGradGradGrad
 Berny optimization.
 Search for a local minimum.
 Step number   1 out of a maximum of   2
 All quantities printed in internal units (Hartrees-Bohrs-Radians)
 Second derivative matrix not updated -- unit matrix used.
 RFO step:  Lambda=-1.24066690D-07.
 Linear search not attempted -- first point.
 TrRot=  0.000000  0.000000  0.000000  0.000000  0.000000  0.000000
 Variable       Old X    -DE/DX   Delta X   Delta X   Delta X     New X
                                 (Linear)    (Quad)   (Total)
    X1       -4.75170  -0.00003   0.00000  -0.00003  -0.00003  -4.75173
    Y1       -3.78620   0.00009   0.00000   0.00009   0.00009  -3.78612
    Z1       -2.14433   0.00002   0.00000   0.00002   0.00002  -2.14431
    X2       -5.15066   0.00005   0.00000   0.00005   0.00005  -5.15061
    Y2       -0.86658   0.00003   0.00000   0.00003   0.00003  -0.86655
    Z2       -2.13227  -0.00001   0.00000  -0.00001  -0.00001  -2.13228
    X3       -3.59812  -0.00002   0.00000  -0.00002  -0.00002  -3.59814
    Y3        0.33225  -0.00001   0.00000  -0.00001  -0.00001   0.33225
    Z3        0.07495  -0.00003   0.00000  -0.00003  -0.00003   0.07493
    X4       -1.88387   0.00002   0.00000   0.00002   0.00002  -1.88386
    Y4       -4.36356  -0.00001   0.00000  -0.00001  -0.00001  -4.36357
    Z4       -2.49821  -0.00009   0.00000  -0.00009  -0.00009  -2.49829
    X5       -0.35900  -0.00004   0.00000  -0.00004  -0.00004  -0.35904
    Y5       -3.16824  -0.00005   0.00000  -0.00005  -0.00005  -3.16829
    Z5       -0.27256   0.00003   0.00000   0.00003   0.00003  -0.27253
    X6       -0.66261  -0.00001   0.00000  -0.00001  -0.00001  -0.66262
    Y6       -0.20135   0.00000   0.00000   0.00000   0.00000  -0.20136
    Z6       -0.20092  -0.00003   0.00000  -0.00003  -0.00003  -0.20095
    X7       -4.24451  -0.00002   0.00000  -0.00002  -0.00002  -4.24453
    Y7        0.26864   0.00000   0.00000   0.00000   0.00000   0.26864
    Z7       -4.69746   0.00005   0.00000   0.00005   0.00005  -4.69741
    X8       -1.37496   0.00004   0.00000   0.00004   0.00004  -1.37492
    Y8       -0.30961   0.00000   0.00000   0.00000   0.00000  -0.30961
    Z8       -5.04923   0.00000   0.00000   0.00000   0.00000  -5.04923
    X9        0.15507   0.00000   0.00000   0.00000   0.00000   0.15507
    Y9        0.91839   0.00001   0.00000   0.00001   0.00001   0.91840
    Z9       -2.84159   0.00010   0.00000   0.00010   0.00010  -2.84150
   X10       -0.94562  -0.00004   0.00000  -0.00004  -0.00004  -0.94565
   Y10       -3.22857   0.00005   0.00000   0.00005   0.00005  -3.22851
   Z10       -5.05480   0.00000   0.00000   0.00000   0.00000  -5.05480
   X11        0.83981  -0.00006   0.00000  -0.00006  -0.00006   0.83975
   Y11        0.93716   0.00002   0.00000   0.00002   0.00002   0.93718
   Z11        2.14538   0.00004   0.00000   0.00004   0.00004   2.14542
   X12        0.96613  -0.00007   0.00000  -0.00007  -0.00007   0.96606
   Y12        3.89512  -0.00002   0.00000  -0.00002  -0.00002   3.89510
   Z12        2.27437  -0.00004   0.00000  -0.00004  -0.00004   2.27433
   X13        1.96176  -0.00002   0.00000  -0.00002  -0.00002   1.96174
   Y13        4.83375   0.00000   0.00000   0.00000   0.00000   4.83375
   Z13        4.87060  -0.00002   0.00000  -0.00002  -0.00002   4.87059
   X14        4.47088   0.00007   0.00000   0.00007   0.00007   4.47095
   Y14        3.53672  -0.00004   0.00000  -0.00004  -0.00004   3.53668
   Z14        5.63972  -0.00003   0.00000  -0.00003  -0.00003   5.63969
   X15        4.28514   0.00007   0.00000   0.00007   0.00007   4.28521
   Y15        0.62375  -0.00002   0.00000  -0.00002  -0.00002   0.62374
   Z15        5.36717   0.00007   0.00000   0.00007   0.00007   5.36725
   X16        3.42009  -0.00004   0.00000  -0.00004  -0.00004   3.42005
   Y16       -0.14842   0.00000   0.00000   0.00000   0.00000  -0.14842
   Z16        2.77272  -0.00001   0.00000  -0.00001  -0.00001   2.77271
   X17        5.49483  -0.00002   0.00000  -0.00002  -0.00002   5.49481
   Y17        0.01822  -0.00001   0.00000  -0.00001  -0.00001   0.01822
   Z17        0.85411  -0.00001   0.00000  -0.00001  -0.00001   0.85409
   X18       -5.84417   0.00002   0.00000   0.00002   0.00002  -5.84416
   Y18       -4.64705  -0.00002   0.00000  -0.00002  -0.00002  -4.64707
   Z18       -3.67384   0.00005   0.00000   0.00005   0.00005  -3.67379
   X19       -5.42989   0.00001   0.00000   0.00001   0.00001  -5.42987
   Y19       -4.60433   0.00000   0.00000   0.00000   0.00000  -4.60434
   Z19       -0.37108  -0.00001   0.00000  -0.00001  -0.00001  -0.37110
   X20       -7.15947   0.00000   0.00000   0.00000   0.00000  -7.15948
   Y20       -0.45131  -0.00001   0.00000  -0.00001  -0.00001  -0.45132
   Z20       -1.87069  -0.00001   0.00000  -0.00001  -0.00001  -1.87069
   X21       -4.30646   0.00000   0.00000   0.00000   0.00000  -4.30647
   Y21       -0.42405   0.00003   0.00000   0.00003   0.00003  -0.42402
   Z21        1.86502  -0.00003   0.00000  -0.00003  -0.00003   1.86499
   X22       -3.97942  -0.00001   0.00000  -0.00001  -0.00001  -3.97943
   Y22        2.36023   0.00000   0.00000   0.00000   0.00000   2.36024
   Z22        0.09585  -0.00003   0.00000  -0.00003  -0.00003   0.09582
   X23       -1.59640   0.00002   0.00000   0.00002   0.00002  -1.59638
   Y23       -6.41135   0.00001   0.00000   0.00001   0.00001  -6.41134
   Z23       -2.51031   0.00002   0.00000   0.00002   0.00002  -2.51029
   X24        1.61508  -0.00001   0.00000  -0.00001  -0.00001   1.61507
   Y24       -3.71163   0.00000   0.00000   0.00000   0.00000  -3.71163
   Z24       -0.49240   0.00000   0.00000   0.00000   0.00000  -0.49240
   X25       -1.00128  -0.00002   0.00000  -0.00002  -0.00002  -1.00130
   Y25       -3.99169   0.00003   0.00000   0.00003   0.00003  -3.99167
   Z25        1.51296  -0.00001   0.00000  -0.00001  -0.00001   1.51295
   X26       -4.56882   0.00003   0.00000   0.00003   0.00003  -4.56879
   Y26        2.31023  -0.00004   0.00000  -0.00004  -0.00004   2.31019
   Z26       -4.72597   0.00000   0.00000   0.00000   0.00000  -4.72597
   X27       -5.33003   0.00001   0.00000   0.00001   0.00001  -5.33002
   Y27       -0.54442   0.00000   0.00000   0.00000   0.00000  -0.54442
   Z27       -6.25758  -0.00002   0.00000  -0.00002  -0.00002  -6.25759
   X28       -0.73715   0.00002   0.00000   0.00002   0.00002  -0.73713
   Y28        0.47919   0.00000   0.00000   0.00000   0.00000   0.47919
   Z28       -6.85135   0.00004   0.00000   0.00004   0.00004  -6.85132
   X29       -0.15351  -0.00003   0.00000  -0.00003  -0.00003  -0.15354
   Y29        2.96079  -0.00004   0.00000  -0.00004  -0.00004   2.96075
   Z29       -2.88341  -0.00001   0.00000  -0.00001  -0.00001  -2.88342
   X30        2.15570   0.00000   0.00000   0.00000   0.00000   2.15569
   Y30        0.61942  -0.00002   0.00000  -0.00002  -0.00002   0.61939
   Z30       -3.20298  -0.00001   0.00000  -0.00001  -0.00001  -3.20299
   X31       -1.97128   0.00002   0.00000   0.00002   0.00002  -1.97126
   Y31       -4.09066  -0.00002   0.00000  -0.00002  -0.00002  -4.09068
   Z31       -6.62896  -0.00001   0.00000  -0.00001  -0.00001  -6.62898
   X32        1.05953   0.00004   0.00000   0.00004   0.00004   1.05957
   Y32       -3.65066   0.00001   0.00000   0.00001   0.00001  -3.65065
   Z32       -5.32710   0.00003   0.00000   0.00003   0.00003  -5.32707
   X33       -0.33564   0.00002   0.00000   0.00002   0.00002  -0.33562
   Y33        0.38341  -0.00002   0.00000  -0.00002  -0.00002   0.38339
   Z33        3.75952  -0.00005   0.00000  -0.00005  -0.00005   3.75947
   X34       -0.89856  -0.00002   0.00000  -0.00002  -0.00002  -0.89858
   Y34        4.72420  -0.00002   0.00000  -0.00002  -0.00002   4.72419
   Z34        1.98860   0.00004   0.00000   0.00004   0.00004   1.98864
   X35        2.19725  -0.00002   0.00000  -0.00002  -0.00002   2.19723
   Y35        4.61892   0.00001   0.00000   0.00001   0.00001   4.61893
   Z35        0.78595  -0.00001   0.00000  -0.00001  -0.00001   0.78593
   X36        0.53598   0.00007   0.00000   0.00007   0.00007   0.53605
   Y36        4.45073  -0.00001   0.00000  -0.00001  -0.00001   4.45072
   Z36        6.31833  -0.00005   0.00000  -0.00005  -0.00005   6.31828
   X37        2.24558  -0.00001   0.00000  -0.00001  -0.00001   2.24556
   Y37        6.87898  -0.00003   0.00000  -0.00003  -0.00003   6.87895
   Z37        4.79827   0.00001   0.00000   0.00001   0.00001   4.79828
   X38        4.92122   0.00001   0.00000   0.00001   0.00001   4.92123
   Y38        4.01861   0.00000   0.00000   0.00000   0.00000   4.01861
   Z38        7.59724   0.00005   0.00000   0.00005   0.00005   7.59729
   X39        6.00219  -0.00001   0.00000  -0.00001  -0.00001   6.00218
   Y39        4.24486   0.00001   0.00000   0.00001   0.00001   4.24487
   Z39        4.44824   0.00002   0.00000   0.00002   0.00002   4.44826
   X40        2.94983   0.00002   0.00000   0.00002   0.00002   2.94985
   Y40       -0.09903   0.00002   0.00000   0.00002   0.00002  -0.09901
   Z40        6.76977  -0.00003   0.00000  -0.00003  -0.00003   6.76974
   X41        6.11169   0.00000   0.00000   0.00000   0.00000   6.11168
   Y41       -0.22314   0.00000   0.00000   0.00000   0.00000  -0.22314
   Z41        5.83223   0.00001   0.00000   0.00001   0.00001   5.83225
   X42        5.76910  -0.00001   0.00000  -0.00001  -0.00001   5.76909
   Y42        1.94903   0.00000   0.00000   0.00000   0.00000   1.94903
   Z42        0.19000  -0.00003   0.00000  -0.00003  -0.00003   0.18997
   X43        7.28764  -0.00001   0.00000  -0.00001  -0.00001   7.28763
   Y43       -0.65166   0.00003   0.00000   0.00003   0.00003  -0.65163
   Z43        1.62545  -0.00004   0.00000  -0.00004  -0.00004   1.62541
   X44        5.10295  -0.00002   0.00000  -0.00002  -0.00002   5.10293
   Y44       -1.18701   0.00000   0.00000   0.00000   0.00000  -1.18701
   Z44       -0.75858   0.00004   0.00000   0.00004   0.00004  -0.75854
         Item               Value     Threshold  Converged?
 Maximum Force            0.000096     0.000450     YES
 RMS     Force            0.000031     0.000300     YES
 Maximum Displacement     0.000096     0.001800     YES
 RMS     Displacement     0.000031     0.001200     YES
 Predicted change in Energy=-6.203333D-08
 Optimization completed.
    -- Stationary point found.
 GradGradGradGradGradGradGradGradGradGradGradGradGradGradGradGradGradGrad

                          Input orientation:                          
 ---------------------------------------------------------------------
 Center     Atomic     Atomic              Coordinates (Angstroms)
 Number     Number      Type              X           Y           Z
 ---------------------------------------------------------------------
    1          6      10061003       -2.514491   -2.003573   -1.134732
    2          6      10061003       -2.725611   -0.458575   -1.128349
    3          6      10061003       -1.904044    0.175821    0.039663
    4          6      10061003       -0.996903   -2.309099   -1.321993
    5          6      10061003       -0.189976   -1.676561   -0.144233
    6          6      10061003       -0.350638   -0.106551   -0.106325
    7          6      10061003       -2.246098    0.142160   -2.485789
    8          6      10061003       -0.727597   -0.163836   -2.671936
    9          6      10061003        0.082059    0.485989   -1.503707
   10          6      10061003       -0.500398   -1.708484   -2.674886
   11          6      10061003        0.444408    0.495923    1.135284
   12          6      10061003        0.511256    2.061208    1.203547
   13          6      10061003        1.038120    2.557911    2.577412
   14          6      10061003        2.365886    1.871552    2.984410
   15          6      10061003        2.267599    0.330075    2.840186
   16          7      10071003        1.809835   -0.078540    1.467260
   17          6      10061003        2.907741    0.009642    0.451973
   18          1      10011000       -3.092603   -2.459113   -1.944114
   19          1      10011000       -2.873372   -2.436508   -0.196368
   20          1      10011000       -3.788631   -0.238825   -0.989924
   21          1      10011000       -2.278883   -0.224398    0.986924
   22          1      10011000       -2.105817    1.248982    0.050719
   23          1      10011000       -0.844777   -3.392739   -1.328398
   24          1      10011000        0.854664   -1.964110   -0.260569
   25          1      10011000       -0.529856   -2.112313    0.800624
   26          1      10011000       -2.417714    1.222522   -2.500874
   27          1      10011000       -2.820530   -0.288093   -3.311366
   28          1      10011000       -0.390081    0.253575   -3.625581
   29          1      10011000       -0.081233    1.566780   -1.525837
   30          1      10011000        1.140746    0.327783   -1.694942
   31          1      10011000       -1.043155   -2.164682   -3.507897
   32          1      10011000        0.560677   -1.931844   -2.818980
   33          1      10011000       -0.177612    0.202892    1.989451
   34          1      10011000       -0.475497    2.499941    1.052321
   35          1      10011000        1.162733    2.444228    0.415906
   36          1      10011000        0.283629    2.355224    3.343514
   37          1      10011000        1.188308    3.640200    2.539136
   38          1      10011000        2.604197    2.126555    4.020287
   39          1      10011000        3.176221    2.246286    2.353907
   40          1      10011000        1.560982   -0.052403    3.582410
   41          1      10011000        3.234165   -0.118079    3.086285
   42          1      10011000        3.052875    1.031381    0.100544
   43          1      10011000        3.856452   -0.344844    0.860149
   44          1      10011000        2.700362   -0.628137   -0.401421
 ---------------------------------------------------------------------
                    Distance matrix (angstroms):
                    1          2          3          4          5
     1  C    0.000000
     2  C    1.559369   0.000000
     3  C    2.549825   1.562588   0.000000
     4  C    1.559323   2.539757   2.975205   0.000000
     5  C    2.547822   2.980171   2.530449   1.561523   0.000000
     6  C    3.055908   2.609396   1.585597   2.597446   1.578665
     7  C    2.549817   1.559955   2.548733   2.987236   3.608084
     8  C    2.990087   2.541966   2.975258   2.548926   2.994437
     9  C    3.616094   2.985984   2.534324   3.001615   2.568811
    10  C    2.552591   2.984228   3.590209   1.561273   2.549820
    11  C    4.489492   4.010501   2.611145   3.997967   2.599864
    12  C    5.580783   4.718511   3.277649   5.268062   4.034743
    13  C    6.870821   6.082558   4.557505   6.560066   5.181343
    14  C    7.470074   6.947490   5.457045   6.879775   5.376797
    15  C    6.641857   6.426770   5.026861   5.911510   4.355803
    16  N    5.401473   5.239454   3.986933   4.542368   3.024868
    17  C    5.997605   5.869523   4.832276   4.875424   3.576953
    18  H    1.093997   2.191417   3.505841   2.191232   3.503884
    19  H    1.093963   2.191493   2.796350   2.191895   2.789418
    20  H    2.181453   1.094287   2.187155   3.491425   3.966434
    21  H    2.778921   2.174577   1.094524   3.364602   2.784210
    22  H    3.485889   2.165663   1.092020   3.971646   3.502464
    23  H    2.180650   3.490970   3.965887   1.094284   2.185469
    24  H    3.480937   3.979704   3.504271   2.161929   1.089720
    25  H    2.774204   3.358143   2.775431   2.182284   1.094602
    26  H    3.504768   2.191965   2.795312   3.985073   4.349857
    27  H    2.788238   2.191720   3.504933   3.371599   4.344927
    28  H    3.976451   3.492567   3.966376   3.498864   3.985630
    29  H    4.338333   3.354518   2.776364   3.987787   3.527026
    30  H    4.371478   3.985988   3.507520   3.414935   2.862327
    31  H    2.796909   3.376938   4.336389   2.191157   3.504341
    32  H    3.506922   3.978498   4.323072   2.193023   2.789789
    33  H    4.482188   4.080504   2.604415   4.236390   2.843432
    34  H    5.405770   4.309426   2.909942   5.388516   4.353899
    35  H    5.975734   5.092171   3.833061   5.502585   4.373155
    36  H    6.847136   6.080341   4.522294   6.720315   5.352006
    37  H    7.685064   6.750493   5.273702   7.421430   6.112944
    38  H    8.356623   7.848452   6.322577   7.821951   6.293991
    39  H    7.913034   7.367089   5.954129   7.188793   5.741142
    40  H    6.532073   6.382093   4.960802   5.973996   4.426242
    41  H    7.376932   7.307394   5.980759   6.491181   4.958816
    42  H    6.460063   6.092704   5.030580   5.439037   4.231896
    43  H    6.878942   6.876817   5.841884   5.672310   4.376737
    44  H    5.442818   5.477076   4.694834   4.164476   3.085351
                    6          7          8          9         10
     6  C    0.000000
     7  C    3.052290   0.000000
     8  C    2.593788   1.560169   0.000000
     9  C    1.578292   2.550101   1.562874   0.000000
    10  C    3.030861   2.551099   1.561270   2.554726   0.000000
    11  C    1.592691   4.525057   4.037796   2.663769   4.502162
    12  C    2.675407   4.989684   4.637343   3.161447   5.502386
    13  C    4.028703   6.500610   6.171006   4.675729   6.939437
    14  C    4.565636   7.360996   6.760672   5.222915   7.284220
    15  C    3.965821   6.983894   6.292744   4.865213   6.498734
    16  N    2.672939   5.667972   4.855799   3.482894   5.015104
    17  C    3.307905   5.933807   4.796309   3.469304   4.934026
    18  H    4.053441   2.788657   3.375096   4.352707   2.795889
    19  H    3.435258   3.504919   3.987208   4.357143   3.507717
    20  H    3.552188   2.182240   3.493525   3.971343   3.976364
    21  H    2.219731   3.492159   3.974595   3.504559   4.332940
    22  H    2.223237   2.771030   3.362796   2.790197   4.330461
    23  H    3.540715   3.974766   3.499233   3.991777   2.183653
    24  H    2.219700   4.359209   3.399886   2.853996   2.780371
    25  H    2.208565   4.339199   3.986770   3.526408   3.499016
    26  H    3.431196   1.094011   2.192657   2.790285   3.506733
    27  H    4.050384   1.093923   2.191958   3.505974   2.793855
    28  H    3.537854   2.180902   1.094344   2.186157   2.183041
    29  H    2.210798   2.763637   2.174020   1.093282   3.496193
    30  H    2.221841   3.482902   2.164928   1.087391   2.792853
    31  H    4.035613   2.795228   2.191299   3.508410   1.093897
    32  H    3.394214   3.505781   2.192515   2.793731   1.093862
    33  H    2.125552   4.930527   4.708025   3.514217   5.051097
    34  H    2.855145   4.605691   4.585778   3.301538   5.621702
    35  H    3.011560   5.033833   4.462075   2.947452   5.437280
    36  H    4.285326   6.728889   6.599536   5.199060   7.304078
    37  H    4.837867   7.020064   6.730279   5.245704   7.658078
    38  H    5.544974   8.354173   7.818733   6.290242   8.316933
    39  H    4.901767   7.566475   6.804968   5.249159   7.378786
    40  H    4.154996   7.166224   6.660845   5.324065   6.793059
    41  H    4.800386   7.819784   6.989618   5.600776   7.047513
    42  H    3.594661   5.963132   4.838094   3.420061   5.275947
    43  H    4.323247   6.976646   5.789809   4.530358   5.773917
    44  H    3.109299   5.422676   4.137840   3.051528   4.071935
                   11         12         13         14         15
    11  C    0.000000
    12  C    1.568198   0.000000
    13  C    2.585347   1.552998   0.000000
    14  C    3.000617   2.578196   1.549096   0.000000
    15  C    2.501644   2.959754   2.558109   1.551326   0.000000
    16  N    1.518094   2.516818   2.962913   2.532547   1.503808
    17  C    2.602190   3.242981   3.808759   3.189600   2.493195
    18  H    5.543047   6.582467   7.916918   8.534641   7.707195
    19  H    4.623864   5.800424   6.923716   7.491766   6.580594
    20  H    4.793222   5.347008   6.621566   7.624113   7.188276
    21  H    2.820848   3.613280   4.612309   5.473283   4.940902
    22  H    2.871763   2.972842   4.240496   5.384260   5.268043
    23  H    4.780525   6.164017   7.362803   7.524721   6.397133
    24  H    2.858055   4.297063   5.341953   5.246521   4.107840
    25  H    2.804297   4.320247   5.237032   5.387524   4.236841
    26  H    4.684158   4.796353   6.286099   7.307011   7.160694
    27  H    5.572001   6.083129   7.593854   8.437996   8.007045
    28  H    4.839518   5.234541   6.769552   7.342015   6.991084
    29  H    2.916264   2.836378   4.367143   5.140389   5.109658
    30  H    2.919476   3.435442   4.820478   5.077453   4.673028
    31  H    5.554349   6.517058   7.979070   8.370352   7.581758
    32  H    4.641528   5.668124   7.036114   7.169654   6.328983
    33  H    1.096530   2.132023   2.714740   3.200586   2.592100
    34  H    2.206626   1.090430   2.149487   3.493035   3.928021
    35  H    2.197587   1.091562   2.168078   2.893570   3.401103
    36  H    2.891216   2.172031   1.094190   2.167645   2.879358
    37  H    3.522877   2.176101   1.093331   2.170962   3.494628
    38  H    3.955615   3.509800   2.172684   1.093096   2.175610
    39  H    3.465778   2.908543   2.172221   1.092979   2.175758
    40  H    2.745146   3.350860   2.845548   2.169580   1.093844
    41  H    3.459212   3.963361   3.498927   2.173227   1.093461
    42  H    2.856834   2.955839   3.538983   3.081318   2.934983
    43  H    3.524860   4.134894   4.395222   3.412724   2.626884
    44  H    2.952000   3.821085   4.667697   4.221869   3.407854
                   16         17         18         19         20
    16  N    0.000000
    17  C    1.497992   0.000000
    18  H    6.429502   6.916655   0.000000
    19  H    5.500918   6.310726   1.761587   0.000000
    20  H    6.116066   6.854356   2.514879   2.509431   0.000000
    21  H    4.119419   5.219388   3.774530   2.578183   2.487464
    22  H    4.370496   5.180032   4.324705   3.772669   2.475555
    23  H    5.083953   5.369107   2.510674   2.512184   4.327588
    24  H    2.730040   2.935735   4.319753   3.758395   5.006871
    25  H    3.170929   4.054790   3.771145   2.567326   4.163609
    26  H    5.942308   6.208934   3.784163   4.348204   2.509565
    27  H    6.657286   6.860354   2.580064   3.784402   2.515699
    28  H    5.557604   5.249912   4.182061   5.016252   4.328890
    29  H    3.904081   3.907733   5.044911   5.058641   4.158391
    30  H    3.257653   2.798701   5.074458   5.099037   5.011672
    31  H    6.102764   6.001486   2.594676   3.793390   4.193656
    32  H    4.833941   4.469588   3.793397   4.350342   5.012808
    33  H    2.074086   3.452620   5.572825   4.360202   4.702260
    34  H    3.470372   4.243619   6.357680   5.628283   4.759040
    35  H    2.808638   2.995590   6.907991   6.362909   5.804407
    36  H    3.431157   4.555077   7.907958   6.742264   6.487764
    37  H    3.919725   4.526991   8.696399   7.804269   7.229870
    38  H    3.465747   4.160087   9.436947   8.282843   8.459639
    39  H    2.838656   2.948221   8.939347   8.064120   8.115796
    40  H    2.129899   3.408408   7.615155   6.294968   7.039841
    41  H    2.156739   2.657530   8.415067   7.311151   8.120943
    42  H    2.155223   1.090191   7.357382   6.872759   7.043347
    43  H    2.151312   1.091934   7.786102   7.126136   7.866467
    44  H    2.141744   1.085380   6.268239   5.863341   6.527246
                   21         22         23         24         25
    21  H    0.000000
    22  H    1.754217   0.000000
    23  H    4.178009   5.003774   0.000000
    24  H    3.794990   4.380103   2.463602   0.000000
    25  H    2.580315   3.787389   2.504277   1.750711   0.000000
    26  H    3.778569   2.570722   5.014924   5.087440   5.058164
    27  H    4.332752   3.765240   4.180261   5.061960   5.048112
    28  H    5.007118   4.177292   4.333521   4.217917   5.020782
    29  H    3.788397   2.585626   5.021833   3.865746   4.376004
    30  H    4.380773   3.799489   4.233077   2.718831   3.869474
    31  H    5.049271   5.044413   2.509520   3.766574   4.339306
    32  H    5.046125   5.046090   2.516217   2.575449   3.784623
    33  H    2.367061   2.927620   4.937792   3.289997   2.626320
    34  H    3.267798   2.286055   6.366150   4.839500   4.619437
    35  H    4.392305   3.499342   6.414271   4.470567   4.875955
    36  H    4.332947   4.216127   7.492605   5.654391   5.204510
    37  H    5.419030   4.770891   8.279703   6.273592   6.250273
    38  H    6.210696   6.221884   8.424159   6.174151   6.177096
    39  H    6.142563   5.848009   7.843876   5.472892   5.928328
    40  H    4.637962   5.254699   6.407929   4.349943   4.043905
    41  H    5.900196   6.292767   6.844749   4.502365   4.834156
    42  H    5.548900   5.163519   6.066828   3.733028   4.817560
    43  H    6.137826   6.224477   6.015060   3.590092   4.729396
    44  H    5.184919   5.179514   4.590241   2.282820   3.752599
                   26         27         28         29         30
    26  H    0.000000
    27  H    1.760998   0.000000
    28  H    2.512990   2.509824   0.000000
    29  H    2.555065   3.759311   2.495760   0.000000
    30  H    3.756691   4.322481   2.465016   1.748412   0.000000
    31  H    3.791656   2.592156   2.507653   4.333321   3.777382
    32  H    4.349946   3.791691   2.516069   3.784791   2.589567
    33  H    5.120618   5.943462   5.619279   3.771833   3.915152
    34  H    4.246082   5.684548   5.190012   2.770042   3.857197
    35  H    4.777005   6.101190   4.852196   2.467332   2.989231
    36  H    6.537366   7.804509   7.310205   4.946246   5.498292
    37  H    6.652088   8.107444   7.208625   4.736539   5.376038
    38  H    8.280243   9.434582   8.422176   6.187436   6.167748
    39  H    7.477240   8.630146   7.241801   5.111276   4.921076
    40  H    7.379825   8.171741   7.473648   5.604713   5.307692
    41  H    8.059609   8.810118   7.636913   5.924718   5.238447
    42  H    6.060632   6.919467   5.132537   3.571330   2.715705
    43  H    7.288229   7.873172   6.205878   4.985238   3.788928
    44  H    5.833297   6.250093   4.552303   3.717425   2.240398
                   31         32         33         34         35
    31  H    0.000000
    32  H    1.760993   0.000000
    33  H    6.047760   5.312549   0.000000
    34  H    6.548018   5.975061   2.498676   0.000000
    35  H    6.442377   5.475123   3.048960   1.758388   0.000000
    36  H    8.314550   7.512127   2.584330   2.418012   3.058045
    37  H    8.674254   7.755708   3.739382   2.505804   2.437029
    38  H    9.401672   8.211099   3.945027   4.293338   3.894907
    39  H    8.462891   7.145390   3.944171   3.885037   2.801636
    40  H    7.843195   6.746163   2.371794   4.130746   4.051977
    41  H    8.122025   6.731229   3.598095   4.975201   4.241129
    42  H    6.325593   4.849265   3.832807   3.938522   2.380803
    43  H    6.811592   5.188130   4.224809   5.186089   3.902870
    44  H    5.101478   3.481737   3.832703   4.688745   3.531537
                   36         37         38         39         40
    36  H    0.000000
    37  H    1.765399   0.000000
    38  H    2.428033   2.547484   0.000000
    39  H    3.059130   2.434976   1.765890   0.000000
    40  H    2.735940   3.855208   2.455177   3.066298   0.000000
    41  H    3.858633   4.313881   2.511494   2.475875   1.746423
    42  H    4.465214   4.028557   4.094521   2.562977   3.940016
    43  H    5.120794   5.081198   4.202669   3.067244   3.572872
    44  H    5.363356   5.399249   5.210478   4.010060   4.183368
                   41         42         43         44
    41  H    0.000000
    42  H    3.204493   0.000000
    43  H    2.322574   1.765427   0.000000
    44  H    3.564997   1.769247   1.734462   0.000000
 Stoichiometry    C16H27N
 Framework group  C1[X(C16H27N)]
 Deg. of freedom   126
 Full point group                 C1
 Largest Abelian subgroup         C1      NOp   1
 Largest concise Abelian subgroup C1      NOp   1
                         Standard orientation:                         
 ---------------------------------------------------------------------
 Center     Atomic     Atomic              Coordinates (Angstroms)
 Number     Number      Type              X           Y           Z
 ---------------------------------------------------------------------
    1          6      10061003       -3.102152   -0.102117   -1.412971
    2          6      10061003       -2.609094   -1.326464   -0.582609
    3          6      10061003       -1.054141   -1.437716   -0.689485
    4          6      10061003       -2.434744    1.192493   -0.856159
    5          6      10061003       -0.882673    1.070514   -0.976798
    6          6      10061003       -0.327385   -0.142883   -0.133292
    7          6      10061003       -3.014466   -1.143916    0.912654
    8          6      10061003       -2.345925    0.151427    1.468774
    9          6      10061003       -0.791873    0.021174    1.366155
   10          6      10061003       -2.826747    1.385902    0.642673
   11          6      10061003        1.249490   -0.264844   -0.321061
   12          6      10061003        1.961477   -1.324514    0.589663
   13          6      10061003        3.424988   -1.583652    0.139346
   14          6      10061003        4.235006   -0.272920   -0.020511
   15          6      10061003        3.461160    0.763721   -0.876752
   16          7      10071003        2.075254    1.008753   -0.346976
   17          6      10061003        2.075315    1.905773    0.852748
   18          1      10011000       -4.191350   -0.019965   -1.351918
   19          1      10011000       -2.845559   -0.234839   -2.468102
   20          1      10011000       -3.069304   -2.238751   -0.974275
   21          1      10011000       -0.788022   -1.606020   -1.737739
   22          1      10011000       -0.740457   -2.327401   -0.139419
   23          1      10011000       -2.779444    2.054404   -1.435597
   24          1      10011000       -0.445418    2.013033   -0.648232
   25          1      10011000       -0.611233    0.951528   -2.030514
   26          1      10011000       -2.697672   -2.012645    1.497300
   27          1      10011000       -4.102506   -1.073630    1.001511
   28          1      10011000       -2.632167    0.283340    2.516749
   29          1      10011000       -0.474723   -0.840718    1.959301
   30          1      10011000       -0.346114    0.898119    1.829498
   31          1      10011000       -3.911094    1.497566    0.733963
   32          1      10011000       -2.373061    2.300506    1.035361
   33          1      10011000        1.344663   -0.659327   -1.339738
   34          1      10011000        1.435231   -2.279114    0.560650
   35          1      10011000        1.965865   -0.985864    1.627355
   36          1      10011000        3.415373   -2.114659   -0.817310
   37          1      10011000        3.921303   -2.227708    0.870259
   38          1      10011000        5.194620   -0.494273   -0.494856
   39          1      10011000        4.440477    0.149330    0.966448
   40          1      10011000        3.392332    0.395855   -1.904580
   41          1      10011000        4.036795    1.692011   -0.927525
   42          1      10011000        2.328667    1.363178    1.763747
   43          1      10011000        2.789179    2.723987    0.737657
   44          1      10011000        1.107423    2.378906    0.984584
 ---------------------------------------------------------------------
 Rotational constants (GHZ):      1.0073104      0.3033337      0.2847280
 1|1|UNPC-UNK|FOpt|Dreiding|ZDO|C16H27N1|PCUSER|15-Jan-2008|0||# opt dr
 eiding||2-(1-Ad)-N-Me-piperidine-eq,ax||0,1|C,-2.5144912266,-2.0035733
 311,-1.1347317092|C,-2.7256106656,-0.4585748948,-1.1283487628|C,-1.904
 0444776,0.1758213132,0.0396628601|C,-0.9969030524,-2.3090989974,-1.321
 9933915|C,-0.189975697,-1.6765610029,-0.1442332004|C,-0.3506382899,-0.
 1065507417,-0.1063249096|C,-2.2460978815,0.1421604158,-2.4857892325|C,
 -0.7275972692,-0.1638364093,-2.6719356865|C,0.0820588035,0.4859885674,
 -1.5037066521|C,-0.5003982145,-1.7084836252,-2.6748855169|C,0.44440792
 66,0.4959232736,1.1352837584|C,0.5112556795,2.0612076383,1.2035472657|
 C,1.0381196188,2.5579106661,2.5774115777|C,2.3658859574,1.8715517998,2
 .9844099804|C,2.2675988589,0.330075284,2.8401856902|N,1.8098352466,-0.
 0785400346,1.4672601117|C,2.9077410109,0.0096422684,0.4519729503|H,-3.
 0926028853,-2.4591131592,-1.9441136981|H,-2.8733719488,-2.4365084235,-
 0.1963676039|H,-3.7886309846,-0.2388247101,-0.9899238883|H,-2.27888260
 68,-0.2243977881,0.9869238159|H,-2.1058167971,1.2489820469,0.050719274
 9|H,-0.8447766377,-3.3927386286,-1.3283978829|H,0.8546637113,-1.964109
 8844,-0.2605689567|H,-0.5298556896,-2.112312868,0.8006244338|H,-2.4177
 144278,1.2225217369,-2.5008743373|H,-2.820529798,-0.2880933859,-3.3113
 661957|H,-0.3900813223,0.2535751942,-3.6255807107|H,-0.0812328577,1.56
 67802019,-1.5258366456|H,1.1407463936,0.3277828743,-1.6949422279|H,-1.
 0431549883,-2.1646823185,-3.5078966747|H,0.5606772357,-1.9318439152,-2
 .8189804643|H,-0.1776117288,0.202891881,1.9894509038|H,-0.4754967873,2
 .4999414538,1.0523213963|H,1.1627332567,2.4442282011,0.4159056062|H,0.
 2836294688,2.3552235818,3.343514343|H,1.1883080284,3.6402002184,2.5391
 357234|H,2.6041974973,2.1265551848,4.0202867543|H,3.1762211367,2.24628
 57116,2.3539071611|H,1.5609823941,-0.0524028658,3.582410365|H,3.234164
 8146,-0.118078969,3.0862854267|H,3.0528746969,1.0313812668,0.100543916
 7|H,3.8564521002,-0.3448442089,0.8601485767|H,2.7003623979,-0.62813733
 78,-0.4014213044||Version=IA32W-G03RevD.01|HF=0.1003674|RMSD=0.000e+00
 0|RMSF=3.066e-005|Thermal=0.|Dipole=0.,0.,0.|PG=C01 [X(C16H27N1)]||@


 Discoveries are often made by not following instructions,
 by going off the main road, by trying the untried.
 -- Frank Tyger
 Job cpu time:  0 days  0 hours  0 minutes  3.0 seconds.
 File lengths (MBytes):  RWF=     11 Int=      0 D2E=      0 Chk=      4 Scr=      1
 Normal termination of Gaussian 03 at Tue Jan 15 16:33:53 2008.
