 Entering Link 1 = C:\G03W\l1.exe PID=      2708.
  
 Copyright (c) 1988,1990,1992,1993,1995,1998,2003,2004, Gaussian, Inc.
                  All Rights Reserved.
  
 This is the Gaussian(R) 03 program.  It is based on the
 the Gaussian(R) 98 system (copyright 1998, Gaussian, Inc.),
 the Gaussian(R) 94 system (copyright 1995, Gaussian, Inc.),
 the Gaussian 92(TM) system (copyright 1992, Gaussian, Inc.),
 the Gaussian 90(TM) system (copyright 1990, Gaussian, Inc.),
 the Gaussian 88(TM) system (copyright 1988, Gaussian, Inc.),
 the Gaussian 86(TM) system (copyright 1986, Carnegie Mellon
 University), and the Gaussian 82(TM) system (copyright 1983,
 Carnegie Mellon University). Gaussian is a federally registered
 trademark of Gaussian, Inc.
  
 This software contains proprietary and confidential information,
 including trade secrets, belonging to Gaussian, Inc.
  
 This software is provided under written license and may be
 used, copied, transmitted, or stored only in accord with that
 written license.
  
 The following legend is applicable only to US Government
 contracts under FAR:
  
                    RESTRICTED RIGHTS LEGEND
  
 Use, reproduction and disclosure by the US Government is
 subject to restrictions as set forth in subparagraphs (a)
 and (c) of the Commercial Computer Software - Restricted
 Rights clause in FAR 52.227-19.
  
 Gaussian, Inc.
 340 Quinnipiac St., Bldg. 40, Wallingford CT 06492
  
  
 ---------------------------------------------------------------
 Warning -- This program may not be used in any manner that
 competes with the business of Gaussian, Inc. or will provide
 assistance to any competitor of Gaussian, Inc.  The licensee
 of this program is prohibited from giving any competitor of
 Gaussian, Inc. access to this program.  By using this program,
 the user acknowledges that Gaussian, Inc. is engaged in the
 business of creating and licensing software in the field of
 computational chemistry and represents and warrants to the
 licensee that it is not a competitor of Gaussian, Inc. and that
 it will not use this program in any manner prohibited above.
 ---------------------------------------------------------------
  

 Cite this work as:
 Gaussian 03, Revision D.01,
 M. J. Frisch, G. W. Trucks, H. B. Schlegel, G. E. Scuseria, 
 M. A. Robb, J. R. Cheeseman, J. A. Montgomery, Jr., T. Vreven, 
 K. N. Kudin, J. C. Burant, J. M. Millam, S. S. Iyengar, J. Tomasi, 
 V. Barone, B. Mennucci, M. Cossi, G. Scalmani, N. Rega, 
 G. A. Petersson, H. Nakatsuji, M. Hada, M. Ehara, K. Toyota, 
 R. Fukuda, J. Hasegawa, M. Ishida, T. Nakajima, Y. Honda, O. Kitao, 
 H. Nakai, M. Klene, X. Li, J. E. Knox, H. P. Hratchian, J. B. Cross, 
 V. Bakken, C. Adamo, J. Jaramillo, R. Gomperts, R. E. Stratmann, 
 O. Yazyev, A. J. Austin, R. Cammi, C. Pomelli, J. W. Ochterski, 
 P. Y. Ayala, K. Morokuma, G. A. Voth, P. Salvador, J. J. Dannenberg, 
 V. G. Zakrzewski, S. Dapprich, A. D. Daniels, M. C. Strain, 
 O. Farkas, D. K. Malick, A. D. Rabuck, K. Raghavachari, 
 J. B. Foresman, J. V. Ortiz, Q. Cui, A. G. Baboul, S. Clifford, 
 J. Cioslowski, B. B. Stefanov, G. Liu, A. Liashenko, P. Piskorz, 
 I. Komaromi, R. L. Martin, D. J. Fox, T. Keith, M. A. Al-Laham, 
 C. Y. Peng, A. Nanayakkara, M. Challacombe, P. M. W. Gill, 
 B. Johnson, W. Chen, M. W. Wong, C. Gonzalez, and J. A. Pople, 
 Gaussian, Inc., Wallingford CT, 2004.
 
 ******************************************
 Gaussian 03:  IA32W-G03RevD.01 13-Oct-2005
                15-Jan-2008 
 ******************************************
 --------------
 # opt dreiding
 --------------
 1/6=10,10=10,14=-1,18=4000020,38=1,56=1,64=1/1,3;
 2/9=110,17=6,18=5,40=1/2;
 3/5=30,11=9,16=1,25=1,30=1/1;
 4/20=9,22=1001,24=3/2;
 7/44=-1/16;
 1/6=10,10=10,14=-1,18=4000020,64=1/3(2);
 2/9=110/2;
 99//99;
 2/9=110/2;
 3/5=30,11=9,16=1,25=1,30=1/1;
 4/16=2,20=9,22=1001,24=3/2;
 7/44=-1/16;
 1/6=10,10=10,14=-1,18=4000020,64=1/3(-4);
 2/9=110/2;
 99//99;
 -----------------------------
 2-SnBu3-N-Me-piperidine-ax,ax
 -----------------------------
 Symbolic Z-matrix:
 Charge =  0 Multiplicity = 1
 C                    -1.35969   0.68104  -2.07436 
 N                    -1.54569   2.13104  -2.05236 
 C                    -0.35369   2.85304  -2.48636 
 C                    -0.76669   0.14404  -3.39136 
 C                     0.19031   2.41704  -3.85436 
 C                     0.47831   0.91304  -3.84836 
 C                    -2.71369   2.53204  -2.82536 
 H                    -2.36169   0.20104  -1.96036 
 H                     0.45231   2.72304  -1.72836 
 H                    -0.55769   3.95104  -2.49336 
 H                    -1.53669   0.21304  -4.19636 
 H                    -0.52669  -0.94396  -3.31136 
 H                     1.12631   2.97904  -4.08836 
 H                    -0.53669   2.66404  -4.66336 
 H                     1.33031   0.69704  -3.16536 
 H                     0.79131   0.57604  -4.86636 
 Sn                   -0.35069  -0.03496  -0.27936 
 C                     1.62131   0.81504  -0.02036 
 C                     2.50731   0.00804   0.94264 
 C                     3.87431   0.68004   1.15364 
 C                     4.76431  -0.12696   2.10764 
 C                    -0.20569  -2.18496  -0.41936 
 C                    -0.02169  -2.87496   0.94264 
 C                     0.13831  -4.39596   0.79064 
 C                     0.31531  -5.08796   2.14864 
 C                    -1.58569   0.50304   1.40864 
 C                    -0.84769   0.42204   2.75564 
 C                    -1.77869   0.75504   3.93264 
 C                    -1.04269   0.68204   5.27764 
 H                    -2.63969   2.24304  -3.89736 
 H                    -3.63769   2.07104  -2.40436 
 H                    -2.86369   3.63504  -2.76836 
 H                     2.13131   0.87804  -1.00736 
 H                     1.51131   1.85604   0.36264 
 H                     2.01031  -0.10096   1.93564 
 H                     2.67531  -1.01696   0.53364 
 H                     4.39331   0.79004   0.17164 
 H                     3.72731   1.70604   1.56864 
 H                     5.75131   0.37004   2.25264 
 H                     4.28831  -0.23196   3.10964 
 H                     4.95531  -1.15096   1.71064 
 H                    -1.12869  -2.57596  -0.90536 
 H                     0.64931  -2.43996  -1.08736 
 H                     0.87931  -2.47396   1.46564 
 H                    -0.90769  -2.67396   1.59264 
 H                    -0.75769  -4.81796   0.27664 
 H                     1.02431  -4.61696   0.14864 
 H                     0.43031  -6.18996   2.02464 
 H                     1.22131  -4.70996   2.67764 
 H                    -0.56569  -4.91196   2.80764 
 H                    -1.96269   1.54104   1.25864 
 H                    -2.47369  -0.16896   1.42664 
 H                    -0.43069  -0.60096   2.91164 
 H                     0.00631   1.14104   2.76364 
 H                    -2.20069   1.78004   3.79964 
 H                    -2.63669   0.04104   3.94564 
 H                    -1.72869   0.92604   6.12264 
 H                    -0.63369  -0.33896   5.45664 
 H                    -0.19469   1.40404   5.31164 
 
 Include all MM classes
 MMInit generated parameter data with length LenPar=  6552.

 GradGradGradGradGradGradGradGradGradGradGradGradGradGradGradGradGradGrad
 Berny optimization.
 Initialization pass.
 No Z-matrix variables, so optimization will use Cartesian coordinates.
 Trust Radius=1.00D-01 FncErr=1.00D-07 GrdErr=1.00D-07
 Number of steps in this run=   2 maximum allowed number of steps=   2.
 GradGradGradGradGradGradGradGradGradGradGradGradGradGradGradGradGradGrad

 Stoichiometry    C18H39NSn
 Framework group  C1[X(C18H39NSn)]
 Deg. of freedom   171
 Full point group                 C1
 Largest Abelian subgroup         C1      NOp   1
 Largest concise Abelian subgroup C1      NOp   1
                         Standard orientation:                         
 ---------------------------------------------------------------------
 Center     Atomic     Atomic              Coordinates (Angstroms)
 Number     Number      Type              X           Y           Z
 ---------------------------------------------------------------------
    1          6      10061003        2.375211    0.320706   -0.933315
    2          7      10071003        3.132895    1.152236    0.000522
    3          6      10061003        3.595294    0.403794    1.165222
    4          6      10061003        3.068386   -1.006676   -1.296732
    5          6      10061003        4.393017   -0.864491    0.829741
    6          6      10061003        3.561977   -1.783162   -0.070488
    7          6      10061003        4.239581    1.828841   -0.662809
    8          1      10011000        2.259756    0.888404   -1.888191
    9          1      10011000        2.718870    0.114673    1.789234
   10          1      10011000        4.202789    1.068593    1.825723
   11          1      10011000        3.945053   -0.795595   -1.954445
   12          1      10011000        2.397148   -1.658007   -1.907429
   13          1      10011000        4.664648   -1.402881    1.769448
   14          1      10011000        5.353644   -0.603120    0.326851
   15          1      10011000        2.694231   -2.183025    0.500629
   16          1      10011000        4.169653   -2.665166   -0.387758
   17         50      10501003        0.292941    0.107033   -0.324006
   18          6      10061003        0.069560   -0.821132    1.616864
   19          6      10061003       -1.338424   -1.389346    1.858377
   20          6      10061003       -1.477539   -1.978509    3.271999
   21          6      10061003       -2.878915   -2.554024    3.513645
   22          6      10061003       -0.712005   -1.081400   -1.820947
   23          6      10061003       -2.237047   -0.883819   -1.835462
   24          6      10061003       -2.916636   -1.792520   -2.872075
   25          6      10061003       -4.437803   -1.592654   -2.893573
   26          6      10061003       -0.566077    2.087725   -0.269601
   27          6      10061003       -1.893196    2.156681    0.504747
   28          6      10061003       -2.497987    3.569421    0.467712
   29          6      10061003       -3.818942    3.642657    1.246020
   30          1      10011000        4.969680    1.119604   -1.112385
   31          1      10011000        3.860685    2.496435   -1.471693
   32          1      10011000        4.784295    2.487125    0.052947
   33          1      10011000        0.810295   -1.644805    1.722280
   34          1      10011000        0.302413   -0.063935    2.401021
   35          1      10011000       -2.110354   -0.594049    1.729665
   36          1      10011000       -1.554404   -2.194342    1.115772
   37          1      10011000       -0.719156   -2.784239    3.418423
   38          1      10011000       -1.270719   -1.185625    4.030334
   39          1      10011000       -2.967259   -2.977398    4.540851
   40          1      10011000       -3.660982   -1.767975    3.403633
   41          1      10011000       -3.109496   -3.369707    2.789656
   42          1      10011000       -0.300127   -0.820138   -2.822498
   43          1      10011000       -0.474798   -2.155176   -1.639253
   44          1      10011000       -2.669790   -1.106250   -0.830779
   45          1      10011000       -2.479730    0.178650   -2.080742
   46          1      10011000       -2.503141   -1.579326   -3.886307
   47          1      10011000       -2.690750   -2.860551   -2.639080
   48          1      10011000       -4.918420   -2.257056   -3.648942
   49          1      10011000       -4.888309   -1.826716   -1.900688
   50          1      10011000       -4.701761   -0.541309   -3.151289
   51          1      10011000        0.168588    2.782657    0.198812
   52          1      10011000       -0.724183    2.434397   -1.316154
   53          1      10011000       -2.634150    1.442226    0.074286
   54          1      10011000       -1.725378    1.869817    1.570527
   55          1      10011000       -1.774068    4.299628    0.902610
   56          1      10011000       -2.679876    3.871748   -0.591365
   57          1      10011000       -4.246726    4.672212    1.211758
   58          1      10011000       -4.576263    2.946167    0.818083
   59          1      10011000       -3.669929    3.374205    2.317128
 ---------------------------------------------------------------------
 Rotational constants (GHZ):      0.2661809      0.1556981      0.1521352
 Standard basis: Dummy (5D, 7F)
 There are    59 symmetry adapted basis functions of A   symmetry.
 Integral buffers will be    262144 words long.
 Raffenetti 1 integral format.
 Two-electron integral symmetry is turned on.
    59 basis functions,    59 primitive gaussians,    59 cartesian basis functions
    39 alpha electrons       39 beta electrons
       nuclear repulsion energy       373.9204350541 Hartrees.
 NAtoms=   59 NActive=   59 NUniq=   59 SFac= 7.50D-01 NAtFMM=   80 NAOKFM=F Big=F
 Dreiding calculation of energy and first derivatives.
 MO and density RWFs will be updated without deorthogonalization.
 NRF= 0 NRA=   0 NVA=  59 HaveQM=F
 Convergence limit is  0.750E-04 MaxStp=  5000 StMxLn= 1.00D-04 StpMin= 1.00D-06.
 Convergence criteria           0.00011250 0.00007500 0.00045000 0.00030000
  Step  NS  ND Rises OKQ   Scale  Max. Force  RMS Force Max. Disp.  RMS Disp.     Energy   Flag
     1   0   0   F    T  1.00D+00 0.04668822 0.01189996 0.04668822 0.01189996    0.0724090 ----
     2   0   0   F    F  2.06D-01 0.04668822 0.01189996 0.04668822 0.01189996    0.0577652 ----
     3   0   0   F    T  3.92D+00 0.01195310 0.00350933 0.01074265 0.00365874    0.0573258 ----
     4   0   0   F    F -3.16D-01 0.01195310 0.00350933 0.04214749 0.01435464    0.0550227 ----
     5   0   0   F    T  2.84D+00 0.01071603 0.00269599 0.01223139 0.00345727    0.0544013 ----
     6   0   0   F    F -5.01D-02 0.01071603 0.00269599 0.03475225 0.00982291    0.0526711 ----
     7   0   0   F    T  4.17D+00 0.00571227 0.00172391 0.00826096 0.00223808    0.0526663 ----
     8   0   0   F    F -2.93D-01 0.00571227 0.00172391 0.03444019 0.00933060    0.0520235 ----
     9   0   0   F    T  2.49D+00 0.00553341 0.00165558 0.01010230 0.00265132    0.0518909 ----
    10   0   0   F    F  3.30D-01 0.00553341 0.00165558 0.02514863 0.00660018    0.0511384 ----
    11   0   0   F    T  3.53D+00 0.00474391 0.00143973 0.00928955 0.00248448    0.0510893 ----
    12   0   0   F    F -2.93D-01 0.00474391 0.00143973 0.03280993 0.00877499    0.0507099 ----
    13   0   0   F    T  6.02D+00 0.00288127 0.00075701 0.00359163 0.00103038    0.0506314 ----
    14   0   0   F    F -4.98D-01 0.00288127 0.00075701 0.02162576 0.00620408    0.0506290 ----
    15   0   0   F    T  2.42D+00 0.00215389 0.00075950 0.00447570 0.00128649    0.0504782 ----
    16   0   0   F    F  1.23D+00 0.00215389 0.00075950 0.01083077 0.00311318    0.0502865 ----
    17   0   0   F    T  3.60D+00 0.00318335 0.00087697 0.00732124 0.00193006    0.0502028 ----
    18   0   0   F    F -1.65D-01 0.00318335 0.00087697 0.02633505 0.00694257    0.0500065 ----
    19   0   0   F    T  3.10D+00 0.00406469 0.00081689 0.00758581 0.00187165    0.0499986 ----
    20   0   0   F    F -1.86D-02 0.00406469 0.00081689 0.02350751 0.00580000    0.0498191 ----
    21   0   0   F    T  4.47D+00 0.00197117 0.00062582 0.00597038 0.00127264    0.0498191 ----
    22   0   0   F    F -3.25D-01 0.00197117 0.00062582 0.02670273 0.00569194    0.0497385 ----
    23   0   0   F    T  3.92D+00 0.00174971 0.00050707 0.00485502 0.00098003    0.0497144 ----
    24   0   0   F    F -1.13D-01 0.00174971 0.00050707 0.01904644 0.00384468    0.0496365 ----
    25   0   0   F    T  3.31D+00 0.00199915 0.00048763 0.00451179 0.00103056    0.0496352 ----
    26   0   0   F    F -2.05D-01 0.00199915 0.00048763 0.01493103 0.00341046    0.0495835 ----
    27   0   0   F    T  4.28D+00 0.00097744 0.00034872 0.00270586 0.00063447    0.0495799 ----
    28   0   0   F    F -7.03D-02 0.00097744 0.00034872 0.01156765 0.00271239    0.0495374 ----
    29   0   0   F    T  2.84D+00 0.00172447 0.00039033 0.00334975 0.00088647    0.0495371 ----
    30   0   0   F    F  3.69D-02 0.00172447 0.00039033 0.00952940 0.00252184    0.0494974 ----
    31   0   0   F    T  5.26D+00 0.00079736 0.00026788 0.00185718 0.00049688    0.0494973 ----
    32   0   0   F    F -3.38D-01 0.00079736 0.00026788 0.00977388 0.00261495    0.0494810 ----
    33   0   0   F    T  2.76D+00 0.00102661 0.00028400 0.00297955 0.00062656    0.0494752 ----
    34   0   0   F    F  6.81D-01 0.00102661 0.00028400 0.00823127 0.00173093    0.0494475 ----
    35   0   0   F    T  3.56D+00 0.00127473 0.00031170 0.00417546 0.00081666    0.0494421 ----
    36   0   0   F    F -1.79D-02 0.00127473 0.00031170 0.01487384 0.00290910    0.0494120 ----
    37   0   0   F    T  4.01D+00 0.00110902 0.00027882 0.00357331 0.00071209    0.0494120 ----
    38   0   0   F    F -5.68D-02 0.00110902 0.00027882 0.01433602 0.00285689    0.0493861 ----
    39   0   0   F    T  3.62D+00 0.00106548 0.00027462 0.00368385 0.00074509    0.0493860 ----
    40   0   0   F    F  5.22D-02 0.00106548 0.00027462 0.01332300 0.00269470    0.0493607 ----
    41   0   0   F    T  3.30D+00 0.00135985 0.00028621 0.00449049 0.00085894    0.0493606 ----
    42   0   0   F    F -1.27D-01 0.00135985 0.00028621 0.01482237 0.00283523    0.0493402 ----
    43   0   0   F    T  3.49D+00 0.00102672 0.00025148 0.00396927 0.00070930    0.0493397 ----
    44   0   0   F    F -1.55D-01 0.00102672 0.00025148 0.01385174 0.00247527    0.0493238 ----
    45   0   0   F    T  3.84D+00 0.00079189 0.00021137 0.00324119 0.00054426    0.0493232 ----
    46   0   0   F    F  3.62D-01 0.00079189 0.00021137 0.01244965 0.00209055    0.0493040 ----
    47   0   0   F    T  3.55D+00 0.00102389 0.00024994 0.00471809 0.00080207    0.0493025 ----
    48   0   0   F    F -2.13D-01 0.00102389 0.00024994 0.01675005 0.00284749    0.0492882 ----
    49   0   0   F    T  4.92D+00 0.00060758 0.00018018 0.00259165 0.00045509    0.0492871 ----
    50   0   0   F    F  3.07D-01 0.00060758 0.00018018 0.01275431 0.00223962    0.0492697 ----
    51   0   0   F    T  2.95D+00 0.00088138 0.00026099 0.00558436 0.00099054    0.0492686 ----
    52   0   0   F    F -1.20D-01 0.00088138 0.00026099 0.01649958 0.00292666    0.0492533 ----
    53   0   0   F    T  4.52D+00 0.00071649 0.00019204 0.00283391 0.00056911    0.0492530 ----
    54   0   0   F    F  2.08D-02 0.00071649 0.00019204 0.01282308 0.00257517    0.0492379 ----
    55   0   0   F    T  4.27D+00 0.00092794 0.00019490 0.00274393 0.00061618    0.0492379 ----
    56   0   0   F    F -1.92D-01 0.00092794 0.00019490 0.01170590 0.00262867    0.0492269 ----
    57   0   0   F    T  3.04D+00 0.00067591 0.00020320 0.00314951 0.00069920    0.0492263 ----
    58   0   0   F    F -1.04D-01 0.00067591 0.00020320 0.00957169 0.00212493    0.0492165 ----
    59   0   0   F    T  6.40D+00 0.00050584 0.00012611 0.00135086 0.00029781    0.0492163 ---+
    60   0   0   F    F -3.83D-01 0.00050584 0.00012611 0.00863944 0.00190461    0.0492129 ----
    61   0   0   F    T  2.47D+00 0.00076408 0.00015489 0.00220212 0.00047548    0.0492108 ----
    62   0   0   F    F  2.28D-01 0.00076408 0.00015489 0.00544029 0.00117466    0.0492046 ----
    63   0   0   F    T  5.71D+00 0.00040851 0.00010742 0.00119485 0.00025269    0.0492043 ---+
    64   0   0   F    F -4.18D-01 0.00040851 0.00010742 0.00682322 0.00144299    0.0492027 ----
    65   0   0   F    T  2.44D+00 0.00042300 0.00012120 0.00165782 0.00034372    0.0492009 ----
    66   0   0   F    F  8.41D-01 0.00042300 0.00012120 0.00405322 0.00084037    0.0491963 ----
    67   0   0   F    T  4.00D+00 0.00037566 0.00012516 0.00194021 0.00038678    0.0491951 ----
    68   0   0   F    F -7.85D-02 0.00037566 0.00012516 0.00776135 0.00154722    0.0491900 ----
    69   0   0   F    T  3.65D+00 0.00039810 0.00012258 0.00190050 0.00039044    0.0491900 ----
    70   0   0   F    F  1.06D-01 0.00039810 0.00012258 0.00693993 0.00142573    0.0491847 ----
    71   0   0   F    T  3.12D+00 0.00045792 0.00013682 0.00221044 0.00050577    0.0491846 ----
    72   0   0   F    F  3.97D-02 0.00045792 0.00013682 0.00689174 0.00157690    0.0491793 ----
    73   0   0   F    T  5.13D+00 0.00033225 0.00010546 0.00135112 0.00031961    0.0491792 ----
    74   0   0   F    T  2.62D+00 0.00049605 0.00014594 0.00264879 0.00062553    0.0491741 ----
    75   0   0   F    F  6.71D-02 0.00049605 0.00014594 0.00694228 0.00163947    0.0491688 ----
    76   0   0   F    T  4.20D+00 0.00037635 0.00011434 0.00166088 0.00041640    0.0491688 ----
    77   0   0   F    F -1.13D-01 0.00037635 0.00011434 0.00697832 0.00174954    0.0491645 ----
    78   0   0   F    T  3.92D+00 0.00043807 0.00010990 0.00156456 0.00039534    0.0491645 ----
    79   0   0   F    F -1.94D-01 0.00043807 0.00010990 0.00613937 0.00155133    0.0491613 ----
    80   0   0   F    T  3.16D+00 0.00060844 0.00010775 0.00146519 0.00039524    0.0491611 ----
    81   0   0   F    F  6.50D-01 0.00060844 0.00010775 0.00463509 0.00125032    0.0491566 ----
    82   0   0   F    T  3.80D+00 0.00040336 0.00012456 0.00191239 0.00054280    0.0491557 ----
    83   0   0   F    F  7.51D-02 0.00040336 0.00012456 0.00726783 0.00206284    0.0491501 ----
    84   0   0   F    T  5.58D+00 0.00029373 0.00010471 0.00131938 0.00039774    0.0491501 ----
    85   0   0   T    F  4.92D-01 0.00029373 0.00010471 0.00735665 0.00221772    0.0491503 ----
    86   0   0   F    T  2.97D+00 0.00043707 0.00009872 0.00124616 0.00036717    0.0491475 ----
    87   0   0   F    F  8.79D-01 0.00043707 0.00009872 0.00370486 0.00109160    0.0491437 ----
    88   0   0   F    T  3.43D+00 0.00055224 0.00012456 0.00211891 0.00059747    0.0491426 ----
    89   0   0   F    F -2.74D-01 0.00055224 0.00012456 0.00727345 0.00205090    0.0491397 ----
    90   0   0   F    T  4.83D+00 0.00030185 0.00008762 0.00109203 0.00030819    0.0491392 ----
    91   0   0   F    F -1.01D-01 0.00030185 0.00008762 0.00527490 0.00148868    0.0491363 ----
    92   0   0   F    T  2.72D+00 0.00031760 0.00010932 0.00163591 0.00049214    0.0491363 ----
    93   0   0   F    F  2.19D-01 0.00031760 0.00010932 0.00444719 0.00133788    0.0491329 ----
    94   0   0   F    T  3.62D+00 0.00038285 0.00010311 0.00125196 0.00044980    0.0491328 ----
    95   0   0   F    F  1.49D-01 0.00038285 0.00010311 0.00453835 0.00163051    0.0491289 ----
    96   0   0   F    T  3.81D+00 0.00047891 0.00010657 0.00138102 0.00049225    0.0491288 ----
    97   0   0   F    F -1.73D-01 0.00047891 0.00010657 0.00525592 0.00187342    0.0491258 ----
    98   0   0   F    T  3.68D+00 0.00028145 0.00009719 0.00135997 0.00042096    0.0491257 ----
    99   0   0   F    F  1.91D-01 0.00028145 0.00009719 0.00500677 0.00154979    0.0491221 ----
   100   0   0   F    T  3.99D+00 0.00027301 0.00010063 0.00153369 0.00046268    0.0491220 ----
   101   0   0   F    F -2.19D-01 0.00027301 0.00010063 0.00611960 0.00184616    0.0491194 ----
   102   0   0   F    T  5.16D+00 0.00021770 0.00007671 0.00091369 0.00027966    0.0491192 ---+
   103   0   0   F    F -3.80D-01 0.00021770 0.00007671 0.00471023 0.00144167    0.0491182 ----
   104   0   0   F    T  2.96D+00 0.00040740 0.00007838 0.00102502 0.00030232    0.0491176 ----
   105   0   0   F    F  2.91D-01 0.00040740 0.00007838 0.00302898 0.00089336    0.0491156 ----
   106   0   0   F    T  4.72D+00 0.00024472 0.00006898 0.00082963 0.00024422    0.0491155 -+-+
   107   0   0   F    F -2.63D-01 0.00024472 0.00006898 0.00391766 0.00115326    0.0491142 -+--
   108   0   0   F    T  2.62D+00 0.00026158 0.00007829 0.00102053 0.00032415    0.0491140 ----
   109   0   0   F    F  7.00D-01 0.00026158 0.00007829 0.00267450 0.00084950    0.0491120 ----
   110   0   0   F    T  5.12D+00 0.00028322 0.00007178 0.00089779 0.00028190    0.0491116 -+-+
   111   0   0   F    F -4.49D-01 0.00028322 0.00007178 0.00460023 0.00144442    0.0491112 -+--
   112   0   0   F    T  3.36D+00 0.00024827 0.00006457 0.00075043 0.00023712    0.0491103 -+-+
   113   0   0   F    F  2.58D-01 0.00024827 0.00006457 0.00251781 0.00079558    0.0491088 -+--
   114   0   0   F    T  2.41D+00 0.00027734 0.00008448 0.00125746 0.00041486    0.0491088 ----
   115   0   0   F    F  8.04D-01 0.00027734 0.00008448 0.00303286 0.00100059    0.0491066 ----
   116   0   0   F    T  6.03D+00 0.00027290 0.00007071 0.00085354 0.00029931    0.0491060 -+-+
   117   0   0   T    F  4.69D-01 0.00027290 0.00007071 0.00514642 0.00180467    0.0491064 -+--
   118   0   0   F    T  4.35D+00 0.00016256 0.00005586 0.00053757 0.00019486    0.0491048 -+-+
   119   0   0   F    F  5.48D-01 0.00016256 0.00005586 0.00233654 0.00084695    0.0491031 -+--
   120   0   0   F    T  3.21D+00 0.00032192 0.00008004 0.00107194 0.00040784    0.0491029 ----
   121   0   0   F    F -2.69D-01 0.00032192 0.00008004 0.00344579 0.00131101    0.0491018 ----
   122   0   0   F    T  4.01D+00 0.00017081 0.00006026 0.00071132 0.00023875    0.0491016 -+-+
   123   0   0   F    F  2.23D-01 0.00017081 0.00006026 0.00285431 0.00095802    0.0491000 -+--
   124   0   0   F    T  3.73D+00 0.00018926 0.00006826 0.00097824 0.00031397    0.0491000 -+--
   125   0   0   F    F -3.41D-01 0.00018926 0.00006826 0.00365179 0.00117207    0.0490993 -+--
   126   0   0   F    T  4.15D+00 0.00015654 0.00005148 0.00056756 0.00018598    0.0490990 -+-+
   127   0   0   F    F -1.31D-01 0.00015654 0.00005148 0.00235818 0.00077276    0.0490982 -+--
   128   0   0   F    T  4.26D+00 0.00015353 0.00004632 0.00046390 0.00015752    0.0490981 -+-+
   129   0   0   F    F -3.60D-01 0.00015353 0.00004632 0.00197766 0.00067151    0.0490978 -+--
   130   0   0   F    T  4.06D+00 0.00013044 0.00003681 0.00033890 0.00010599    0.0490976 -+++
   131   0   0   F    F  1.17D-01 0.00013044 0.00003681 0.00137438 0.00042983    0.0490971 -+--
   132   0   0   F    T  4.21D+00 0.00013094 0.00003712 0.00039360 0.00011400    0.0490971 -+++
   133   0   0   F    F -1.52D-01 0.00013094 0.00003712 0.00165729 0.00048002    0.0490967 -+--
   134   0   0   F    T  4.48D+00 0.00012637 0.00003205 0.00032113 0.00009087    0.0490966 -+++
   135   0   0   F    F -3.89D-01 0.00012637 0.00003205 0.00143863 0.00040707    0.0490965 -+--
   136   0   0   F    T  2.98D+00 0.00010955 0.00002969 0.00033655 0.00008343    0.0490964 ====
 Energy=    0.049096387639 NIter=   0.
 Dipole moment=       0.000000       0.000000       0.000000
 ***** Axes restored to original set *****
 -------------------------------------------------------------------
 Center     Atomic                   Forces (Hartrees/Bohr)
 Number     Number              X              Y              Z
 -------------------------------------------------------------------
    1          6           0.000011572   -0.000012795   -0.000024022
    2          7           0.000076850   -0.000002021    0.000049002
    3          6           0.000029787   -0.000008515   -0.000040454
    4          6           0.000041103    0.000000644   -0.000056733
    5          6          -0.000020108    0.000034494    0.000100813
    6          6          -0.000025205   -0.000128654   -0.000002285
    7          6          -0.000033125    0.000022628    0.000002464
    8          1          -0.000057479   -0.000017984    0.000020100
    9          1           0.000013202    0.000030924    0.000045648
   10          1          -0.000002581   -0.000035038    0.000000312
   11          1           0.000009527   -0.000016307   -0.000027960
   12          1          -0.000000519    0.000021347    0.000015986
   13          1           0.000032393    0.000004905   -0.000001492
   14          1          -0.000034017    0.000036072   -0.000021015
   15          1          -0.000039906    0.000020075    0.000048399
   16          1          -0.000031484    0.000014894    0.000039266
   17         50           0.000035821   -0.000030658    0.000041853
   18          6          -0.000023374    0.000015258   -0.000006300
   19          6          -0.000013559   -0.000007161   -0.000022162
   20          6           0.000020833   -0.000008438    0.000072906
   21          6          -0.000012745    0.000002253   -0.000001554
   22          6          -0.000030015   -0.000059207   -0.000025263
   23          6          -0.000005757    0.000002283   -0.000067065
   24          6           0.000026406   -0.000012183   -0.000001935
   25          6           0.000017271    0.000006150    0.000010925
   26          6           0.000011151    0.000013797   -0.000035654
   27          6           0.000026464    0.000007135   -0.000070849
   28          6          -0.000006354   -0.000045841    0.000026860
   29          6           0.000006204    0.000004890   -0.000025160
   30          1          -0.000000755   -0.000034016   -0.000032472
   31          1          -0.000043453   -0.000018223    0.000012279
   32          1          -0.000025785    0.000055684   -0.000003346
   33          1           0.000008421    0.000000332    0.000037776
   34          1           0.000023657    0.000006774   -0.000002787
   35          1          -0.000012035   -0.000030882    0.000027166
   36          1          -0.000008115    0.000000467    0.000017287
   37          1          -0.000005544   -0.000006557   -0.000057227
   38          1          -0.000005616   -0.000007840   -0.000048243
   39          1          -0.000024024    0.000038112   -0.000010291
   40          1           0.000004932   -0.000017640    0.000010437
   41          1           0.000019181   -0.000001356   -0.000003492
   42          1           0.000057745    0.000046488    0.000010961
   43          1          -0.000034301    0.000017805   -0.000010689
   44          1          -0.000014316    0.000010433    0.000003367
   45          1           0.000020700   -0.000002366   -0.000019870
   46          1           0.000001184   -0.000013696   -0.000021889
   47          1           0.000002000   -0.000000110    0.000003477
   48          1          -0.000001330    0.000030922   -0.000001803
   49          1          -0.000038712   -0.000023083    0.000016380
   50          1          -0.000006349   -0.000009314    0.000004760
   51          1           0.000028686   -0.000001295    0.000031041
   52          1           0.000009521    0.000045838    0.000013536
   53          1           0.000041281   -0.000019861    0.000006372
   54          1           0.000017319   -0.000002300    0.000024978
   55          1          -0.000018609   -0.000002337   -0.000026663
   56          1           0.000038635    0.000010464   -0.000026844
   57          1          -0.000011982    0.000015784   -0.000047433
   58          1          -0.000017658    0.000066614    0.000034222
   59          1          -0.000027031   -0.000007786    0.000014376
 -------------------------------------------------------------------
 Cartesian Forces:  Max     0.000128654 RMS     0.000029690

 GradGradGradGradGradGradGradGradGradGradGradGradGradGradGradGradGradGrad
 Berny optimization.
 Search for a local minimum.
 Step number   1 out of a maximum of   2
 All quantities printed in internal units (Hartrees-Bohrs-Radians)
 Second derivative matrix not updated -- unit matrix used.
 RFO step:  Lambda=-1.56019621D-07.
 Linear search not attempted -- first point.
 TrRot=  0.000000  0.000000  0.000000  0.000000  0.000000  0.000000
 Variable       Old X    -DE/DX   Delta X   Delta X   Delta X     New X
                                 (Linear)    (Quad)   (Total)
    X1       -2.53228   0.00001   0.00000   0.00001   0.00001  -2.53226
    Y1        1.17524  -0.00001   0.00000  -0.00001  -0.00001   1.17523
    Z1       -3.90822  -0.00002   0.00000  -0.00002  -0.00002  -3.90824
    X2       -2.85877   0.00008   0.00000   0.00008   0.00008  -2.85870
    Y2        3.99522   0.00000   0.00000   0.00000   0.00000   3.99522
    Z2       -3.88392   0.00005   0.00000   0.00005   0.00005  -3.88387
    X3       -0.58450   0.00003   0.00000   0.00003   0.00003  -0.58447
    Y3        5.45071  -0.00001   0.00000  -0.00001  -0.00001   5.45070
    Z3       -4.73322  -0.00004   0.00000  -0.00004  -0.00004  -4.73326
    X4       -1.37250   0.00004   0.00000   0.00004   0.00004  -1.37246
    Y4        0.15930   0.00000   0.00000   0.00000   0.00000   0.15931
    Z4       -6.41421  -0.00006   0.00000  -0.00006  -0.00006  -6.41426
    X5        0.45199  -0.00002   0.00000  -0.00002  -0.00002   0.45197
    Y5        4.55359   0.00003   0.00000   0.00003   0.00003   4.55363
    Z5       -7.32138   0.00010   0.00000   0.00010   0.00010  -7.32128
    X6        0.96210  -0.00003   0.00000  -0.00003  -0.00003   0.96207
    Y6        1.67321  -0.00013   0.00000  -0.00013  -0.00013   1.67308
    Z6       -7.31852   0.00000   0.00000   0.00000   0.00000  -7.31852
    X7       -5.28329  -0.00003   0.00000  -0.00003  -0.00003  -5.28332
    Y7        4.90570   0.00002   0.00000   0.00002   0.00002   4.90572
    Z7       -5.00230   0.00000   0.00000   0.00000   0.00000  -5.00229
    X8       -4.38641  -0.00006   0.00000  -0.00006  -0.00006  -4.38647
    Y8        0.27767  -0.00002   0.00000  -0.00002  -0.00002   0.27765
    Z8       -3.73122   0.00002   0.00000   0.00002   0.00002  -3.73120
    X9        0.89823   0.00001   0.00000   0.00001   0.00001   0.89824
    Y9        5.24964   0.00003   0.00000   0.00003   0.00003   5.24967
    Z9       -3.31997   0.00005   0.00000   0.00005   0.00005  -3.31993
   X10       -1.00070   0.00000   0.00000   0.00000   0.00000  -1.00070
   Y10        7.47213  -0.00004   0.00000  -0.00004  -0.00004   7.47210
   Z10       -4.83915   0.00000   0.00000   0.00000   0.00000  -4.83915
   X11       -2.81549   0.00001   0.00000   0.00001   0.00001  -2.81548
   Y11        0.26840  -0.00002   0.00000  -0.00002  -0.00002   0.26838
   Z11       -7.89025  -0.00003   0.00000  -0.00003  -0.00003  -7.89028
   X12       -0.86393   0.00000   0.00000   0.00000   0.00000  -0.86393
   Y12       -1.83095   0.00002   0.00000   0.00002   0.00002  -1.83093
   Z12       -6.20805   0.00002   0.00000   0.00002   0.00002  -6.20803
   X13        2.20593   0.00003   0.00000   0.00003   0.00003   2.20597
   Y13        5.55891   0.00000   0.00000   0.00000   0.00000   5.55891
   Z13       -7.74602   0.00000   0.00000   0.00000   0.00000  -7.74602
   X14       -0.91238  -0.00003   0.00000  -0.00003  -0.00003  -0.91241
   Y14        5.00868   0.00004   0.00000   0.00004   0.00004   5.00872
   Z14       -8.80376  -0.00002   0.00000  -0.00002  -0.00002  -8.80379
   X15        2.57134  -0.00004   0.00000  -0.00004  -0.00004   2.57130
   Y15        1.25480   0.00002   0.00000   0.00002   0.00002   1.25482
   Z15       -6.10127   0.00005   0.00000   0.00005   0.00005  -6.10122
   X16        1.46396  -0.00003   0.00000  -0.00003  -0.00003   1.46393
   Y16        1.07195   0.00001   0.00000   0.00001   0.00001   1.07197
   Z16       -9.23047   0.00004   0.00000   0.00004   0.00004  -9.23043
   X17       -0.62700   0.00004   0.00000   0.00004   0.00004  -0.62696
   Y17       -0.10387  -0.00003   0.00000  -0.00003  -0.00003  -0.10390
   Z17       -0.56438   0.00004   0.00000   0.00004   0.00004  -0.56434
   X18        3.03300  -0.00002   0.00000  -0.00002  -0.00002   3.03298
   Y18        1.55319   0.00002   0.00000   0.00002   0.00002   1.55320
   Z18       -0.07041  -0.00001   0.00000  -0.00001  -0.00001  -0.07041
   X19        4.73338  -0.00001   0.00000  -0.00001  -0.00001   4.73337
   Y19        0.01519  -0.00001   0.00000  -0.00001  -0.00001   0.01518
   Z19        1.74366  -0.00002   0.00000  -0.00002  -0.00002   1.74364
   X20        7.33857   0.00002   0.00000   0.00002   0.00002   7.33859
   Y20        1.28111  -0.00001   0.00000  -0.00001  -0.00001   1.28110
   Z20        2.19730   0.00007   0.00000   0.00007   0.00007   2.19738
   X21        9.04564  -0.00001   0.00000  -0.00001  -0.00001   9.04563
   Y21       -0.26201   0.00000   0.00000   0.00000   0.00000  -0.26201
   Z21        3.99460   0.00000   0.00000   0.00000   0.00000   3.99460
   X22       -0.32406  -0.00003   0.00000  -0.00003  -0.00003  -0.32409
   Y22       -4.12646  -0.00006   0.00000  -0.00006  -0.00006  -4.12652
   Z22       -0.83538  -0.00003   0.00000  -0.00003  -0.00003  -0.83541
   X23       -0.03802  -0.00001   0.00000  -0.00001  -0.00001  -0.03802
   Y23       -5.43086   0.00000   0.00000   0.00000   0.00000  -5.43086
   Z23        1.76545  -0.00007   0.00000  -0.00007  -0.00007   1.76539
   X24        0.28109   0.00003   0.00000   0.00003   0.00003   0.28112
   Y24       -8.33622  -0.00001   0.00000  -0.00001  -0.00001  -8.33624
   Z24        1.53956   0.00000   0.00000   0.00000   0.00000   1.53955
   X25        0.57320   0.00002   0.00000   0.00002   0.00002   0.57322
   Y25       -9.64599   0.00001   0.00000   0.00001   0.00001  -9.64598
   Z25        4.13260   0.00001   0.00000   0.00001   0.00001   4.13261
   X26       -3.01119   0.00001   0.00000   0.00001   0.00001  -3.01118
   Y26        0.90630   0.00001   0.00000   0.00001   0.00001   0.90631
   Z26        2.54023  -0.00004   0.00000  -0.00004  -0.00004   2.54020
   X27       -1.63215   0.00003   0.00000   0.00003   0.00003  -1.63213
   Y27        0.81606   0.00001   0.00000   0.00001   0.00001   0.81607
   Z27        5.11639  -0.00007   0.00000  -0.00007  -0.00007   5.11632
   X28       -3.39988  -0.00001   0.00000  -0.00001  -0.00001  -3.39988
   Y28        1.44424  -0.00005   0.00000  -0.00005  -0.00005   1.44420
   Z28        7.36898   0.00003   0.00000   0.00003   0.00003   7.36900
   X29       -2.02570   0.00001   0.00000   0.00001   0.00001  -2.02569
   Y29        1.34098   0.00000   0.00000   0.00000   0.00000   1.34098
   Z29        9.94336  -0.00003   0.00000  -0.00003  -0.00003   9.94333
   X30       -5.37620   0.00000   0.00000   0.00000   0.00000  -5.37620
   Y30        4.49536  -0.00003   0.00000  -0.00003  -0.00003   4.49532
   Z30       -7.02192  -0.00003   0.00000  -0.00003  -0.00003  -7.02195
   X31       -6.88509  -0.00004   0.00000  -0.00004  -0.00004  -6.88513
   Y31        4.00064  -0.00002   0.00000  -0.00002  -0.00002   4.00062
   Z31       -4.06967   0.00001   0.00000   0.00001   0.00001  -4.06966
   X32       -5.49170  -0.00003   0.00000  -0.00003  -0.00003  -5.49173
   Y32        6.93959   0.00006   0.00000   0.00006   0.00006   6.93965
   Z32       -4.72876   0.00000   0.00000   0.00000   0.00000  -4.72876
   X33        3.95585   0.00001   0.00000   0.00001   0.00001   3.95586
   Y33        1.66923   0.00000   0.00000   0.00000   0.00000   1.66923
   Z33       -1.90661   0.00004   0.00000   0.00004   0.00004  -1.90657
   X34        2.77330   0.00002   0.00000   0.00002   0.00002   2.77332
   Y34        3.46551   0.00001   0.00000   0.00001   0.00001   3.46551
   Z34        0.65799   0.00000   0.00000   0.00000   0.00000   0.65799
   X35        3.77519  -0.00001   0.00000  -0.00001  -0.00001   3.77518
   Y35       -0.20426  -0.00003   0.00000  -0.00003  -0.00003  -0.20429
   Z35        3.55707   0.00003   0.00000   0.00003   0.00003   3.55710
   X36        5.03540  -0.00001   0.00000  -0.00001  -0.00001   5.03539
   Y36       -1.86127   0.00000   0.00000   0.00000   0.00000  -1.86127
   Z36        0.93505   0.00002   0.00000   0.00002   0.00002   0.93506
   X37        8.31778  -0.00001   0.00000  -0.00001  -0.00001   8.31777
   Y37        1.50448  -0.00001   0.00000  -0.00001  -0.00001   1.50447
   Z37        0.39157  -0.00006   0.00000  -0.00006  -0.00006   0.39151
   X38        7.05611  -0.00001   0.00000  -0.00001  -0.00001   7.05610
   Y38        3.15901  -0.00001   0.00000  -0.00001  -0.00001   3.15901
   Z38        3.01216  -0.00005   0.00000  -0.00005  -0.00005   3.01211
   X39       10.85083  -0.00002   0.00000  -0.00002  -0.00002  10.85081
   Y39        0.70482   0.00004   0.00000   0.00004   0.00004   0.70486
   Z39        4.24415  -0.00001   0.00000  -0.00001  -0.00001   4.24414
   X40        8.14819   0.00000   0.00000   0.00000   0.00000   8.14820
   Y40       -0.46595  -0.00002   0.00000  -0.00002  -0.00002  -0.46597
   Z40        5.84128   0.00001   0.00000   0.00001   0.00001   5.84129
   X41        9.40670   0.00002   0.00000   0.00002   0.00002   9.40672
   Y41       -2.13681   0.00000   0.00000   0.00000   0.00000  -2.13681
   Z41        3.21237   0.00000   0.00000   0.00000   0.00000   3.21237
   X42       -2.03181   0.00006   0.00000   0.00006   0.00006  -2.03175
   Y42       -4.82287   0.00005   0.00000   0.00005   0.00005  -4.82283
   Z42       -1.76098   0.00001   0.00000   0.00001   0.00001  -1.76097
   X43        1.29483  -0.00003   0.00000  -0.00003  -0.00003   1.29480
   Y43       -4.56272   0.00002   0.00000   0.00002   0.00002  -4.56270
   Z43       -2.03767  -0.00001   0.00000  -0.00001  -0.00001  -2.03768
   X44        1.60360  -0.00001   0.00000  -0.00001  -0.00001   1.60358
   Y44       -4.65295   0.00001   0.00000   0.00001   0.00001  -4.65294
   Z44        2.74246   0.00000   0.00000   0.00000   0.00000   2.74247
   X45       -1.71934   0.00002   0.00000   0.00002   0.00002  -1.71932
   Y45       -5.03045   0.00000   0.00000   0.00000   0.00000  -5.03045
   Z45        2.89619  -0.00002   0.00000  -0.00002  -0.00002   2.89617
   X46       -1.36636   0.00000   0.00000   0.00000   0.00000  -1.36636
   Y46       -9.13481  -0.00001   0.00000  -0.00001  -0.00001  -9.13482
   Z46        0.58141  -0.00002   0.00000  -0.00002  -0.00002   0.58139
   X47        1.95339   0.00000   0.00000   0.00000   0.00000   1.95339
   Y47       -8.75638   0.00000   0.00000   0.00000   0.00000  -8.75638
   Z47        0.40071   0.00000   0.00000   0.00000   0.00000   0.40072
   X48        0.78589   0.00000   0.00000   0.00000   0.00000   0.78589
   Y48      -11.68067   0.00003   0.00000   0.00003   0.00003 -11.68064
   Z48        3.86626   0.00000   0.00000   0.00000   0.00000   3.86626
   X49        2.24203  -0.00004   0.00000  -0.00004  -0.00004   2.24200
   Y49       -8.93339  -0.00002   0.00000  -0.00002  -0.00002  -8.93341
   Z49        5.11491   0.00002   0.00000   0.00002   0.00002   5.11493
   X50       -1.09175  -0.00001   0.00000  -0.00001  -0.00001  -1.09175
   Y50       -9.30633  -0.00001   0.00000  -0.00001  -0.00001  -9.30634
   Z50        5.30293   0.00000   0.00000   0.00000   0.00000   5.30294
   X51       -3.70322   0.00003   0.00000   0.00003   0.00003  -3.70319
   Y51        2.82064   0.00000   0.00000   0.00000   0.00000   2.82064
   Z51        2.20265   0.00003   0.00000   0.00003   0.00003   2.20268
   X52       -4.62471   0.00001   0.00000   0.00001   0.00001  -4.62470
   Y52       -0.37942   0.00005   0.00000   0.00005   0.00005  -0.37937
   Z52        2.54573   0.00001   0.00000   0.00001   0.00001   2.54574
   X53       -0.83738   0.00004   0.00000   0.00004   0.00004  -0.83734
   Y53       -1.06656  -0.00002   0.00000  -0.00002  -0.00002  -1.06658
   Z53        5.39729   0.00001   0.00000   0.00001   0.00001   5.39729
   X54       -0.08141   0.00002   0.00000   0.00002   0.00002  -0.08140
   Y54        2.17975   0.00000   0.00000   0.00000   0.00000   2.17974
   Z54        5.08529   0.00002   0.00000   0.00002   0.00002   5.08532
   X55       -4.18535  -0.00002   0.00000  -0.00002  -0.00002  -4.18537
   Y55        3.33888   0.00000   0.00000   0.00000   0.00000   3.33887
   Z55        7.11751  -0.00003   0.00000  -0.00003  -0.00003   7.11749
   X56       -4.96739   0.00004   0.00000   0.00004   0.00004  -4.96735
   Y56        0.09821   0.00001   0.00000   0.00001   0.00001   0.09822
   Z56        7.40799  -0.00003   0.00000  -0.00003  -0.00003   7.40797
   X57       -3.34854  -0.00001   0.00000  -0.00001  -0.00001  -3.34855
   Y57        1.79595   0.00002   0.00000   0.00002   0.00002   1.79597
   Z57       11.45962  -0.00005   0.00000  -0.00005  -0.00005  11.45957
   X58       -1.26607  -0.00002   0.00000  -0.00002  -0.00002  -1.26609
   Y58       -0.54816   0.00007   0.00000   0.00007   0.00007  -0.54810
   Z58       10.27847   0.00003   0.00000   0.00003   0.00003  10.27850
   X59       -0.47827  -0.00003   0.00000  -0.00003  -0.00003  -0.47830
   Y59        2.70514  -0.00001   0.00000  -0.00001  -0.00001   2.70514
   Z59        9.98902   0.00001   0.00000   0.00001   0.00001   9.98904
         Item               Value     Threshold  Converged?
 Maximum Force            0.000129     0.000450     YES
 RMS     Force            0.000030     0.000300     YES
 Maximum Displacement     0.000129     0.001800     YES
 RMS     Displacement     0.000030     0.001200     YES
 Predicted change in Energy=-7.800979D-08
 Optimization completed.
    -- Stationary point found.
 GradGradGradGradGradGradGradGradGradGradGradGradGradGradGradGradGradGrad

 Stoichiometry    C18H39NSn
 Framework group  C1[X(C18H39NSn)]
 Deg. of freedom   171
 Full point group                 C1
 Largest Abelian subgroup         C1      NOp   1
 Largest concise Abelian subgroup C1      NOp   1
                         Standard orientation:                         
 ---------------------------------------------------------------------
 Center     Atomic     Atomic              Coordinates (Angstroms)
 Number     Number      Type              X           Y           Z
 ---------------------------------------------------------------------
    1          6      10061003        2.328683    0.304568   -0.974619
    2          7      10071003        3.123725    1.119971    0.005129
    3          6      10061003        3.629024    0.353028    1.188380
    4          6      10061003        3.016984   -1.037647   -1.360564
    5          6      10061003        4.400018   -0.932570    0.794910
    6          6      10061003        3.555329   -1.828425   -0.143229
    7          6      10061003        4.143279    2.016279   -0.615846
    8          1      10011000        2.221539    0.868399   -1.906110
    9          1      10011000        2.782438    0.076151    1.815181
   10          1      10011000        4.274154    0.978372    1.811785
   11          1      10011000        3.861470   -0.814676   -2.019079
   12          1      10011000        2.325668   -1.666612   -1.926282
   13          1      10011000        4.656753   -1.493694    1.697234
   14          1      10011000        5.332384   -0.658979    0.294444
   15          1      10011000        2.720882   -2.257708    0.412227
   16          1      10011000        4.172202   -2.658708   -0.497518
   17         50      10501003        0.292640    0.091387   -0.330535
   18          6      10061003        0.102928   -0.834714    1.591638
   19          6      10061003       -1.308758   -1.418200    1.837097
   20          6      10061003       -1.465024   -2.030610    3.253950
   21          6      10061003       -2.871525   -2.622246    3.497121
   22          6      10061003       -0.718906   -1.067322   -1.817689
   23          6      10061003       -2.248208   -0.833575   -1.831211
   24          6      10061003       -2.977202   -1.717911   -2.876714
   25          6      10061003       -4.505245   -1.489843   -2.891470
   26          6      10061003       -0.517928    2.069976   -0.261226
   27          6      10061003       -1.832478    2.156749    0.549752
   28          6      10061003       -2.444733    3.582090    0.547251
   29          6      10061003       -3.761486    3.667199    1.351346
   30          1      10011000        4.928309    1.440459   -1.109736
   31          1      10011000        3.673360    2.670468   -1.352492
   32          1      10011000        4.601252    2.658773    0.138461
   33          1      10011000        0.833091   -1.639744    1.663778
   34          1      10011000        0.334198   -0.085481    2.351031
   35          1      10011000       -2.052981   -0.629880    1.710072
   36          1      10011000       -1.499978   -2.195971    1.093350
   37          1      10011000       -0.725533   -2.824362    3.390597
   38          1      10011000       -1.278415   -1.258656    4.005664
   39          1      10011000       -2.926972   -3.041470    4.503552
   40          1      10011000       -3.633159   -1.845811    3.401174
   41          1      10011000       -3.080708   -3.416314    2.777527
   42          1      10011000       -0.304545   -0.793523   -2.790176
   43          1      10011000       -0.497899   -2.120212   -1.631799
   44          1      10011000       -2.655266   -1.048428   -0.841491
   45          1      10011000       -2.440346    0.217230   -2.062350
   46          1      10011000       -2.583370   -1.500926   -3.873461
   47          1      10011000       -2.785836   -2.771957   -2.657378
   48          1      10011000       -4.967088   -2.132390   -3.643578
   49          1      10011000       -4.935571   -1.729884   -1.917051
   50          1      10011000       -4.733201   -0.450104   -3.134557
   51          1      10011000        0.231641    2.719950    0.194761
   52          1      10011000       -0.683413    2.401207   -1.288283
   53          1      10011000       -2.560448    1.459264    0.131365
   54          1      10011000       -1.627254    1.862689    1.582150
   55          1      10011000       -1.727482    4.286273    0.977780
   56          1      10011000       -2.646680    3.889071   -0.482711
   57          1      10011000       -4.149451    4.687085    1.318043
   58          1      10011000       -4.510942    2.995867    0.927027
   59          1      10011000       -3.589423    3.394096    2.394439
 ---------------------------------------------------------------------
 Rotational constants (GHZ):      0.2637850      0.1566319      0.1523938
 1|1|UNPC-UNK|FOpt|Dreiding|ZDO|C18H39N1Sn1|PCUSER|15-Jan-2008|0||# opt
  dreiding||2-SnBu3-N-Me-piperidine-ax,ax||0,1|C,-1.3400228399,0.621910
 1723,-2.0681414662|N,-1.5127983021,2.1141782668,-2.0552829117|C,-0.309
 3045517,2.8843930786,-2.5047099351|C,-0.7262956291,0.0843005717,-3.394
 2522997|C,0.239184295,2.4096580261,-3.8743079927|C,0.5091198962,0.8854
 223009,-3.872791601|C,-2.795796139,2.59598286,-2.6471016658|H,-2.32118
 94018,0.1469372746,-1.9744781955|H,0.4753220486,2.7779900907,-1.756854
 7608|H,-0.5295458481,3.9540811365,-2.5607688736|H,-1.4898931438,0.1420
 296389,-4.1753413065|H,-0.457171724,-0.9688956535,-3.2851588063|H,1.16
 73293274,2.9416483895,-4.0990169072|H,-0.4828108356,2.6504787679,-4.65
 87516104|H,1.360693564,0.6640121858,-3.2286509552|H,0.7746954806,0.567
 2532161,-4.8845529159|Sn,-0.3317941036,-0.0549678623,-0.2986583688|C,1
 .6049962605,0.8219106577,-0.0372579667|C,2.5047993283,0.0080372924,0.9
 227036754|C,3.8834040925,0.6779317945,1.162762289|C,4.7867486415,-0.13
 86489427,2.1138534267|C,-0.1714857338,-2.1836283622,-0.4420661556|C,-0
 .0201171156,-2.8738891667,0.934237683|C,0.148746259,-4.4113397517,0.81
 46977728|C,0.3033239333,-5.1044362305,2.1868754586|C,-1.5934543962,0.4
 795927097,1.3442340289|C,-0.8636975801,0.4318407782,2.707476583|C,-1.7
 991379846,0.7642609629,3.8994952686|C,-1.0719536448,0.7096160482,5.261
 797599|H,-2.8449644882,2.3788410504,-3.7158393163|H,-3.6434321056,2.11
 70456242,-2.1535772531|H,-2.9060828727,3.6722735367,-2.5023528024|H,2.
 0933474286,0.8833175258,-1.0089352963|H,1.4675647586,1.8338670092,0.34
 81929896|H,1.997745789,-0.1080871868,1.8823197738|H,2.6646201855,-0.98
 49439232,0.4948048317|H,4.4015789646,0.7961366499,0.2072072909|H,3.733
 9317262,1.6716782134,1.5939640724|H,5.7420138861,0.372973285,2.2459089
 299|H,4.3118368859,-0.2465691417,3.0910719033|H,4.9778104661,-1.130751
 2158,1.6999139455|H,-1.0751851773,-2.5521551456,-0.931871133|H,0.68519
 42371,-2.4144849947,-1.0782891244|H,0.8485861777,-2.4622347618,1.45124
 89179|H,-0.9098380222,-2.6619982752,1.532596132|H,-0.7230481433,-4.833
 9330248,0.3076674748|H,1.0336882758,-4.6336785844,0.2120484983|H,0.415
 8732591,-6.1811445522,2.0459374944|H,1.1864335712,-4.7273439536,2.7066
 943336|H,-0.5777279141,-4.9246963076,2.8061917059|H,-1.9596605623,1.49
 26193076,1.1655902981|H,-2.4472887893,-0.2007787632,1.3471397879|H,-0.
 4431249258,-0.5644004791,2.8561213454|H,-0.0430816247,1.1534723748,2.6
 910211218|H,-2.2147928646,1.7668575775,3.7664267133|H,-2.6286311173,0.
 0519705294,3.9201411766|H,-1.7719711956,0.9503763187,6.0641707601|H,-0
 .6699774036,-0.2900760088,5.4391306399|H,-0.2530921778,1.4315010451,5.
 285963448||Version=IA32W-G03RevD.01|HF=0.0490964|RMSD=0.000e+000|RMSF=
 2.969e-005|Thermal=0.|Dipole=0.,0.,0.|PG=C01 [X(C18H39N1Sn1)]||@


 Discoveries are often made by not following instructions,
 by going off the main road, by trying the untried.
 -- Frank Tyger
 Job cpu time:  0 days  0 hours  0 minutes  3.0 seconds.
 File lengths (MBytes):  RWF=     12 Int=      0 D2E=      0 Chk=      4 Scr=      1
 Normal termination of Gaussian 03 at Tue Jan 15 16:34:15 2008.
