 Entering Link 1 = C:\G03W\l1.exe PID=       784.
  
 Copyright (c) 1988,1990,1992,1993,1995,1998,2003,2004, Gaussian, Inc.
                  All Rights Reserved.
  
 This is the Gaussian(R) 03 program.  It is based on the
 the Gaussian(R) 98 system (copyright 1998, Gaussian, Inc.),
 the Gaussian(R) 94 system (copyright 1995, Gaussian, Inc.),
 the Gaussian 92(TM) system (copyright 1992, Gaussian, Inc.),
 the Gaussian 90(TM) system (copyright 1990, Gaussian, Inc.),
 the Gaussian 88(TM) system (copyright 1988, Gaussian, Inc.),
 the Gaussian 86(TM) system (copyright 1986, Carnegie Mellon
 University), and the Gaussian 82(TM) system (copyright 1983,
 Carnegie Mellon University). Gaussian is a federally registered
 trademark of Gaussian, Inc.
  
 This software contains proprietary and confidential information,
 including trade secrets, belonging to Gaussian, Inc.
  
 This software is provided under written license and may be
 used, copied, transmitted, or stored only in accord with that
 written license.
  
 The following legend is applicable only to US Government
 contracts under FAR:
  
                    RESTRICTED RIGHTS LEGEND
  
 Use, reproduction and disclosure by the US Government is
 subject to restrictions as set forth in subparagraphs (a)
 and (c) of the Commercial Computer Software - Restricted
 Rights clause in FAR 52.227-19.
  
 Gaussian, Inc.
 340 Quinnipiac St., Bldg. 40, Wallingford CT 06492
  
  
 ---------------------------------------------------------------
 Warning -- This program may not be used in any manner that
 competes with the business of Gaussian, Inc. or will provide
 assistance to any competitor of Gaussian, Inc.  The licensee
 of this program is prohibited from giving any competitor of
 Gaussian, Inc. access to this program.  By using this program,
 the user acknowledges that Gaussian, Inc. is engaged in the
 business of creating and licensing software in the field of
 computational chemistry and represents and warrants to the
 licensee that it is not a competitor of Gaussian, Inc. and that
 it will not use this program in any manner prohibited above.
 ---------------------------------------------------------------
  

 Cite this work as:
 Gaussian 03, Revision D.01,
 M. J. Frisch, G. W. Trucks, H. B. Schlegel, G. E. Scuseria, 
 M. A. Robb, J. R. Cheeseman, J. A. Montgomery, Jr., T. Vreven, 
 K. N. Kudin, J. C. Burant, J. M. Millam, S. S. Iyengar, J. Tomasi, 
 V. Barone, B. Mennucci, M. Cossi, G. Scalmani, N. Rega, 
 G. A. Petersson, H. Nakatsuji, M. Hada, M. Ehara, K. Toyota, 
 R. Fukuda, J. Hasegawa, M. Ishida, T. Nakajima, Y. Honda, O. Kitao, 
 H. Nakai, M. Klene, X. Li, J. E. Knox, H. P. Hratchian, J. B. Cross, 
 V. Bakken, C. Adamo, J. Jaramillo, R. Gomperts, R. E. Stratmann, 
 O. Yazyev, A. J. Austin, R. Cammi, C. Pomelli, J. W. Ochterski, 
 P. Y. Ayala, K. Morokuma, G. A. Voth, P. Salvador, J. J. Dannenberg, 
 V. G. Zakrzewski, S. Dapprich, A. D. Daniels, M. C. Strain, 
 O. Farkas, D. K. Malick, A. D. Rabuck, K. Raghavachari, 
 J. B. Foresman, J. V. Ortiz, Q. Cui, A. G. Baboul, S. Clifford, 
 J. Cioslowski, B. B. Stefanov, G. Liu, A. Liashenko, P. Piskorz, 
 I. Komaromi, R. L. Martin, D. J. Fox, T. Keith, M. A. Al-Laham, 
 C. Y. Peng, A. Nanayakkara, M. Challacombe, P. M. W. Gill, 
 B. Johnson, W. Chen, M. W. Wong, C. Gonzalez, and J. A. Pople, 
 Gaussian, Inc., Wallingford CT, 2004.
 
 ******************************************
 Gaussian 03:  IA32W-G03RevD.01 13-Oct-2005
                15-Jan-2008 
 ******************************************
 --------------
 # opt dreiding
 --------------
 1/6=10,10=10,14=-1,18=4000020,38=1,56=1,64=1/1,3;
 2/9=110,17=6,18=5,40=1/2;
 3/5=30,11=9,16=1,25=1,30=1/1;
 4/20=9,22=1001,24=3/2;
 7/44=-1/16;
 1/6=10,10=10,14=-1,18=4000020,64=1/3(2);
 2/9=110/2;
 99//99;
 2/9=110/2;
 3/5=30,11=9,16=1,25=1,30=1/1;
 4/16=2,20=9,22=1001,24=3/2;
 7/44=-1/16;
 1/6=10,10=10,14=-1,18=4000020,64=1/3(-4);
 2/9=110/2;
 99//99;
 ---------------------
 3-methylpiperidine-ax
 ---------------------
 Symbolic Z-matrix:
 Charge =  0 Multiplicity = 1
 C                    -0.79588  -0.9545   -0.63373 
 N                    -0.04488  -1.4615    0.49627 
 C                     1.32913  -1.0045    0.49427 
 C                    -0.82088   0.5825   -0.67773 
 C                     1.42613   0.5265    0.49627 
 C                     0.62113   1.1195   -0.66773 
 H                    -0.05688  -2.4815    0.47327 
 H                    -1.83488  -1.3545   -0.57573 
 H                     1.84913  -1.4235   -0.39973 
 H                     1.84113  -1.4215    1.39327 
 H                    -1.30488   0.9025   -1.63473 
 H                     2.49513   0.8415    0.42127 
 H                     1.04313   0.9235    1.46527 
 H                     1.12013   0.8375   -1.62573 
 H                     0.62413   2.2335   -0.61773 
 C                    -1.66488   1.1615    0.47027 
 H                    -0.34888  -1.3605   -1.57273 
 H                    -1.66788   2.2755    0.44527 
 H                    -2.72388   0.8255    0.39527 
 H                    -1.28988   0.8465    1.46927 
 
 Include all MM classes
 MMInit generated parameter data with length LenPar=  2294.

 GradGradGradGradGradGradGradGradGradGradGradGradGradGradGradGradGradGrad
 Berny optimization.
 Initialization pass.
 No Z-matrix variables, so optimization will use Cartesian coordinates.
 Trust Radius=1.00D-01 FncErr=1.00D-07 GrdErr=1.00D-07
 Number of steps in this run=   2 maximum allowed number of steps=   2.
 GradGradGradGradGradGradGradGradGradGradGradGradGradGradGradGradGradGrad

                          Input orientation:                          
 ---------------------------------------------------------------------
 Center     Atomic     Atomic              Coordinates (Angstroms)
 Number     Number      Type              X           Y           Z
 ---------------------------------------------------------------------
    1          6      10061003       -0.795875   -0.954500   -0.633732
    2          7      10071003       -0.044875   -1.461500    0.496268
    3          6      10061003        1.329125   -1.004500    0.494268
    4          6      10061003       -0.820875    0.582500   -0.677732
    5          6      10061003        1.426125    0.526500    0.496268
    6          6      10061003        0.621125    1.119500   -0.667732
    7          1      10011000       -0.056875   -2.481500    0.473268
    8          1      10011000       -1.834875   -1.354500   -0.575732
    9          1      10011000        1.849125   -1.423500   -0.399732
   10          1      10011000        1.841125   -1.421500    1.393268
   11          1      10011000       -1.304875    0.902500   -1.634732
   12          1      10011000        2.495125    0.841500    0.421268
   13          1      10011000        1.043125    0.923500    1.465268
   14          1      10011000        1.120125    0.837500   -1.625732
   15          1      10011000        0.624125    2.233500   -0.617732
   16          6      10061003       -1.664875    1.161500    0.470268
   17          1      10011000       -0.348875   -1.360500   -1.572732
   18          1      10011000       -1.667875    2.275500    0.445268
   19          1      10011000       -2.723875    0.825500    0.395268
   20          1      10011000       -1.289875    0.846500    1.469268
 ---------------------------------------------------------------------
                    Distance matrix (angstroms):
                    1          2          3          4          5
     1  C    0.000000
     2  N    1.448430   0.000000
     3  C    2.406348   1.448009   0.000000
     4  C    1.537833   2.481610   2.917988   0.000000
     5  C    2.899577   2.473052   1.534071   2.535827   0.000000
     6  C    2.512075   2.908610   2.522476   1.538776   1.534461
     7  H    2.025660   1.020330   2.025578   3.361040   3.353786
     8  H    1.114848   2.089194   3.358317   2.188737   3.914264
     9  H    2.696431   2.095590   1.115884   3.351152   2.187292
    10  H    3.358659   2.088829   1.115452   3.923175   2.184385
    11  H    2.170145   3.423048   3.886804   1.119154   3.484379
    12  H    3.894781   3.429436   2.184628   3.502961   1.116965
    13  H    3.363719   2.794804   2.177572   2.860634   1.115015
    14  H    2.804707   3.338489   2.816211   2.175134   2.166389
    15  H    3.489986   3.916833   3.495456   2.194864   2.190445
    16  C    2.539967   3.083051   3.695425   1.538012   3.155659
    17  H    1.116408   2.093652   2.686058   2.190675   3.315442
    18  H    3.515327   4.074543   4.443288   2.201088   3.554495
    19  H    2.818586   3.523863   4.448091   2.198133   4.161983
    20  H    2.812516   2.797073   3.352012   2.213429   2.902720
                    6          7          8          9         10
     6  C    0.000000
     7  H    3.837807   0.000000
     8  H    3.487273   2.351981   0.000000
     9  H    2.836663   2.348261   3.688847   0.000000
    10  H    3.491819   2.360594   4.170663   1.793019   0.000000
    11  H    2.166023   4.177634   2.548810   4.108919   4.946421
    12  H    2.185196   4.190195   4.956342   2.494310   2.548268
    13  H    2.183160   3.713232   4.199744   3.104234   2.478107
    14  H    1.116373   4.099621   3.826145   2.673320   3.838917
    15  H    1.115126   4.887256   4.349964   3.862874   4.345599
    16  C    2.553939   3.982100   2.730068   4.448294   4.451500
    17  H    2.812530   2.351174   1.789481   2.492208   3.687408
    18  H    2.795465   5.022465   3.774550   5.173579   5.184553
    19  H    3.522134   4.249144   2.546677   5.157747   5.185001
    20  H    2.879795   3.686175   3.053433   4.301091   3.866880
                   11         12         13         14         15
    11  H    0.000000
    12  H    4.320979   0.000000
    13  H    3.888900   1.790241   0.000000
    14  H    2.425888   2.465938   3.093155   0.000000
    15  H    2.554778   2.553003   2.496107   1.791897   0.000000
    16  C    2.151210   4.172577   2.894811   3.500631   2.751808
    17  H    2.457427   4.112563   4.047686   2.644234   3.843903
    18  H    2.518590   4.403124   3.196533   3.758966   2.526855
    19  H    2.477981   5.219089   3.917243   4.342916   3.770641
    20  H    3.104541   3.927411   2.334274   3.922653   3.153210
                   16         17         18         19         20
    16  C    0.000000
    17  H    3.502312   0.000000
    18  H    1.114285   4.362635   0.000000
    19  H    1.113554   3.780509   1.794474   0.000000
    20  H    1.112588   3.874286   1.798194   1.791723   0.000000
 Stoichiometry    C6H13N
 Framework group  C1[X(C6H13N)]
 Deg. of freedom    54
 Full point group                 C1
 Largest Abelian subgroup         C1      NOp   1
 Largest concise Abelian subgroup C1      NOp   1
                         Standard orientation:                         
 ---------------------------------------------------------------------
 Center     Atomic     Atomic              Coordinates (Angstroms)
 Number     Number      Type              X           Y           Z
 ---------------------------------------------------------------------
    1          6      10061003        0.176055   -1.253581    0.586212
    2          7      10071003       -0.906585   -1.192668   -0.374064
    3          6      10061003       -1.725403   -0.010172   -0.206822
    4          6      10061003        1.106111   -0.032051    0.497950
    5          6      10061003       -0.903191    1.279831   -0.321864
    6          6      10061003        0.278439    1.255415    0.656770
    7          1      10011000       -1.492374   -2.021362   -0.268280
    8          1      10011000        0.753748   -2.190390    0.408608
    9          1      10011000       -2.232537   -0.057960    0.786017
   10          1      10011000       -2.527079   -0.023374   -0.982306
   11          1      10011000        1.838414   -0.081552    1.342809
   12          1      10011000       -1.551698    2.165645   -0.115993
   13          1      10011000       -0.530058    1.392715   -1.366512
   14          1      10011000       -0.120815    1.304114    1.698170
   15          1      10011000        0.922020    2.155011    0.515222
   16          6      10061003        1.920907   -0.042222   -0.806459
   17          1      10011000       -0.258078   -1.335133    1.611514
   18          1      10011000        2.581872    0.852239   -0.874984
   19          1      10011000        2.574432   -0.942167   -0.861280
   20          1      10011000        1.270745   -0.052439   -1.709253
 ---------------------------------------------------------------------
 Rotational constants (GHZ):      3.5494181      2.6156695      1.9701486
 Standard basis: Dummy (5D, 7F)
 There are    20 symmetry adapted basis functions of A   symmetry.
 Integral buffers will be    262144 words long.
 Raffenetti 1 integral format.
 Two-electron integral symmetry is turned on.
    20 basis functions,    20 primitive gaussians,    20 cartesian basis functions
    13 alpha electrons       13 beta electrons
       nuclear repulsion energy        69.4223194635 Hartrees.
 NAtoms=   20 NActive=   20 NUniq=   20 SFac= 7.50D-01 NAtFMM=   80 NAOKFM=F Big=F
 Dreiding calculation of energy and first derivatives.
 MO and density RWFs will be updated without deorthogonalization.
 NRF= 0 NRA=   0 NVA=  20 HaveQM=F
 Convergence limit is  0.750E-04 MaxStp=  5000 StMxLn= 1.00D-04 StpMin= 1.00D-06.
 Convergence criteria           0.00011250 0.00007500 0.00045000 0.00030000
  Step  NS  ND Rises OKQ   Scale  Max. Force  RMS Force Max. Disp.  RMS Disp.     Energy   Flag
     1   0   0   F    T  1.00D+00 0.04093813 0.01277360 0.04093813 0.01277360    0.0321739 ----
     2   0   0   F    F  2.09D-01 0.04093813 0.01277360 0.04093813 0.01277360    0.0264427 ----
     3   0   0   F    T  6.14D+00 0.00548280 0.00247175 0.00564555 0.00251760    0.0262662 ----
     4   0   0   T    F  4.43D-01 0.00548280 0.00247175 0.03464151 0.01544820    0.0265519 ----
     5   0   0   F    T  2.44D+00 0.00651161 0.00211651 0.00610983 0.00280782    0.0257679 ----
     6   0   0   F    F  2.32D-01 0.00651161 0.00211651 0.01490145 0.00684808    0.0253782 ----
     7   0   0   F    T  3.07D+00 0.00426414 0.00181180 0.00756243 0.00274732    0.0253639 ----
     8   0   0   F    F  1.16D-02 0.00426414 0.00181180 0.02322296 0.00843655    0.0250582 ----
     9   0   0   F    T  3.97D+00 0.00333630 0.00139756 0.00542491 0.00215176    0.0250582 ----
    10   0   0   F    F -3.59D-01 0.00333630 0.00139756 0.02151756 0.00853481    0.0249557 ----
    11   0   0   F    T  3.35D+00 0.00285895 0.00105765 0.00364352 0.00163190    0.0249092 ----
    12   0   0   F    F -5.00D-02 0.00285895 0.00105765 0.01222242 0.00547433    0.0248025 ----
    13   0   0   F    T  3.59D+00 0.00309635 0.00088548 0.00390179 0.00144706    0.0248022 ----
    14   0   0   F    F -1.89D-01 0.00309635 0.00088548 0.01402281 0.00520067    0.0247374 ----
    15   0   0   F    T  4.42D+00 0.00180545 0.00062401 0.00252377 0.00095320    0.0247337 ----
    16   0   0   F    F -5.31D-02 0.00180545 0.00062401 0.01116359 0.00421637    0.0246850 ----
    17   0   0   F    T  2.55D+00 0.00185713 0.00074848 0.00440622 0.00156395    0.0246848 ----
    18   0   0   F    F  8.28D-01 0.00185713 0.00074848 0.01124792 0.00399237    0.0246226 ----
    19   0   0   F    T  3.67D+00 0.00272168 0.00080585 0.00531172 0.00198821    0.0246065 ----
    20   0   0   F    F -3.43D-01 0.00272168 0.00080585 0.01949406 0.00729675    0.0245724 ----
    21   0   0   F    T  6.04D+00 0.00119066 0.00045552 0.00187820 0.00079311    0.0245596 ----
    22   0   0   F    F -4.51D-01 0.00119066 0.00045552 0.01135263 0.00479392    0.0245529 ----
    23   0   0   F    T  2.47D+00 0.00146844 0.00049601 0.00252000 0.00106482    0.0245390 ----
    24   0   0   F    F  2.80D-01 0.00146844 0.00049601 0.00622834 0.00263177    0.0245167 ----
    25   0   0   F    T  4.38D+00 0.00116082 0.00039075 0.00177792 0.00076893    0.0245156 ----
    26   0   0   F    F  3.02D-02 0.00116082 0.00039075 0.00778787 0.00336816    0.0244950 ----
    27   0   0   F    T  3.80D+00 0.00116621 0.00040335 0.00204624 0.00091257    0.0244949 ----
    28   0   0   F    F -2.74D-01 0.00116621 0.00040335 0.00778039 0.00346984    0.0244834 ----
    29   0   0   F    T  3.43D+00 0.00134467 0.00034040 0.00184483 0.00073410    0.0244815 ----
    30   0   0   F    F -6.55D-02 0.00134467 0.00034040 0.00632726 0.00251774    0.0244704 ----
    31   0   0   F    T  4.98D+00 0.00091940 0.00025107 0.00099603 0.00047292    0.0244703 ----
    32   0   0   T    F  4.50D-01 0.00091940 0.00025107 0.00495533 0.00235281    0.0244724 ----
    33   0   0   F    T  3.51D+00 0.00061740 0.00017985 0.00082504 0.00030220    0.0244661 ----
    34   0   0   F    T  3.18D+00 0.00064893 0.00017410 0.00104614 0.00033349    0.0244627 ----
    35   0   0   F    F  4.21D-01 0.00064893 0.00017410 0.00332322 0.00105937    0.0244590 ----
    36   0   0   F    T  5.82D+00 0.00040491 0.00014210 0.00083341 0.00025890    0.0244587 ---+
    37   0   0   T    F  4.84D-01 0.00040491 0.00014210 0.00484668 0.00150563    0.0244589 ----
    38   0   0   F    T  3.00D+00 0.00034688 0.00012693 0.00085344 0.00024307    0.0244569 ---+
    39   0   0   F    F  3.89D-01 0.00034688 0.00012693 0.00256046 0.00072924    0.0244551 ----
    40   0   0   F    T  3.94D+00 0.00035129 0.00012244 0.00090253 0.00025726    0.0244549 ---+
    41   0   0   F    F  2.98D-01 0.00035129 0.00012244 0.00355391 0.00101301    0.0244528 ----
    42   0   0   F    T  3.09D+00 0.00040969 0.00015196 0.00139462 0.00042471    0.0244526 ----
    43   0   0   F    F -8.11D-02 0.00040969 0.00015196 0.00431633 0.00131447    0.0244507 ----
    44   0   0   F    T  3.43D+00 0.00032965 0.00013295 0.00106668 0.00035165    0.0244507 ----
    45   0   0   F    F  8.25D-01 0.00032965 0.00013295 0.00366380 0.00120784    0.0244480 ----
    46   0   0   F    T  4.29D+00 0.00040219 0.00015684 0.00131919 0.00051334    0.0244473 ----
    47   0   0   F    F -4.46D-01 0.00040219 0.00015684 0.00566555 0.00220465    0.0244467 ----
    48   0   0   F    T  3.66D+00 0.00034921 0.00012218 0.00086882 0.00033402    0.0244456 ----
    49   0   0   F    F  9.15D-01 0.00034921 0.00012218 0.00317633 0.00122114    0.0244432 ----
    50   0   0   F    T  4.18D+00 0.00047733 0.00015497 0.00159407 0.00055941    0.0244424 ----
    51   0   0   T    F  3.96D-01 0.00047733 0.00015497 0.00666509 0.00233899    0.0244440 ----
    52   0   0   F    T  6.81D+00 0.00022398 0.00007051 0.00043622 0.00013587    0.0244413 -+++
    53   0   0   F    F -3.51D-01 0.00022398 0.00007051 0.00297052 0.00092522    0.0244408 -+--
    54   0   0   F    T  2.54D+00 0.00028653 0.00008940 0.00072086 0.00023609    0.0244406 ---+
    55   0   0   F    F  7.35D-01 0.00028653 0.00008940 0.00183331 0.00060044    0.0244397 ----
    56   0   0   F    T  5.33D+00 0.00023240 0.00007787 0.00054556 0.00019535    0.0244395 ---+
    57   0   0   F    F -3.86D-01 0.00023240 0.00007787 0.00290850 0.00104147    0.0244392 ----
    58   0   0   F    T  2.91D+00 0.00020672 0.00007977 0.00057997 0.00021986    0.0244389 ---+
    59   0   0   F    T  4.90D+00 0.00018023 0.00005937 0.00036518 0.00013045    0.0244384 -+++
    60   0   0   F    F -3.46D-01 0.00018023 0.00005937 0.00178903 0.00063906    0.0244381 -+--
    61   0   0   F    T  2.87D+00 0.00014152 0.00005866 0.00040009 0.00014537    0.0244380 -+++
    62   0   0   F    F  5.11D-01 0.00014152 0.00005866 0.00115004 0.00041787    0.0244376 -+--
    63   0   0   F    T  5.05D+00 0.00016998 0.00005306 0.00035960 0.00012507    0.0244376 -+++
    64   0   0   F    F -4.73D-01 0.00016998 0.00005306 0.00181561 0.00063147    0.0244375 -+--
    65   0   0   F    T  4.62D+00 0.00009480 0.00003729 0.00017310 0.00007213    0.0244374 ====
 Energy=    0.024437351840 NIter=   0.
 Dipole moment=       0.000000       0.000000       0.000000
 ***** Axes restored to original set *****
 -------------------------------------------------------------------
 Center     Atomic                   Forces (Hartrees/Bohr)
 Number     Number              X              Y              Z
 -------------------------------------------------------------------
    1          6           0.000016625   -0.000026141    0.000039089
    2          7          -0.000082360   -0.000003447   -0.000006938
    3          6          -0.000001279   -0.000038232   -0.000075577
    4          6           0.000034211    0.000012158    0.000080828
    5          6          -0.000017104    0.000125786    0.000055214
    6          6           0.000099961   -0.000028560   -0.000006561
    7          1           0.000038954   -0.000012720   -0.000042617
    8          1           0.000009659   -0.000035917   -0.000006023
    9          1           0.000011255    0.000017767    0.000006260
   10          1          -0.000008045   -0.000002202   -0.000027458
   11          1          -0.000004675    0.000015491   -0.000015079
   12          1           0.000011388    0.000011076   -0.000016893
   13          1          -0.000015786    0.000006563    0.000078869
   14          1          -0.000008088   -0.000010625    0.000002651
   15          1           0.000008343   -0.000052958   -0.000024121
   16          6          -0.000012338    0.000007075   -0.000032632
   17          1          -0.000067198   -0.000004595   -0.000006094
   18          1           0.000012910    0.000001235   -0.000030032
   19          1          -0.000020659   -0.000032086    0.000026597
   20          1          -0.000005773    0.000050331    0.000000518
 -------------------------------------------------------------------
 Cartesian Forces:  Max     0.000125786 RMS     0.000037286

 GradGradGradGradGradGradGradGradGradGradGradGradGradGradGradGradGradGrad
 Berny optimization.
 Search for a local minimum.
 Step number   1 out of a maximum of   2
 All quantities printed in internal units (Hartrees-Bohrs-Radians)
 Second derivative matrix not updated -- unit matrix used.
 RFO step:  Lambda=-8.34138589D-08.
 Linear search not attempted -- first point.
 TrRot=  0.000000  0.000000  0.000000  0.000000  0.000000  0.000000
 Variable       Old X    -DE/DX   Delta X   Delta X   Delta X     New X
                                 (Linear)    (Quad)   (Total)
    X1       -1.55974   0.00002   0.00000   0.00002   0.00002  -1.55973
    Y1       -1.83316  -0.00003   0.00000  -0.00003  -0.00003  -1.83319
    Z1       -1.21156   0.00004   0.00000   0.00004   0.00004  -1.21152
    X2       -0.06062  -0.00008   0.00000  -0.00008  -0.00008  -0.06070
    Y2       -2.80217   0.00000   0.00000   0.00000   0.00000  -2.80217
    Z2        0.95803  -0.00001   0.00000  -0.00001  -0.00001   0.95802
    X3        2.61385   0.00000   0.00000   0.00000   0.00000   2.61385
    Y3       -1.94832  -0.00004   0.00000  -0.00004  -0.00004  -1.94836
    Z3        0.94229  -0.00008   0.00000  -0.00008  -0.00008   0.94222
    X4       -1.58517   0.00003   0.00000   0.00003   0.00003  -1.58514
    Y4        1.11088   0.00001   0.00000   0.00001   0.00001   1.11090
    Z4       -1.27072   0.00008   0.00000   0.00008   0.00008  -1.27064
    X5        2.78755  -0.00002   0.00000  -0.00002  -0.00002   2.78753
    Y5        0.97447   0.00013   0.00000   0.00013   0.00013   0.97459
    Z5        0.93580   0.00006   0.00000   0.00006   0.00006   0.93585
    X6        1.17987   0.00010   0.00000   0.00010   0.00010   1.17997
    Y6        2.13368  -0.00003   0.00000  -0.00003  -0.00003   2.13365
    Z6       -1.22593  -0.00001   0.00000  -0.00001  -0.00001  -1.22594
    X7       -0.09398   0.00004   0.00000   0.00004   0.00004  -0.09394
    Y7       -4.74286  -0.00001   0.00000  -0.00001  -0.00001  -4.74287
    Z7        0.92285  -0.00004   0.00000  -0.00004  -0.00004   0.92280
    X8       -3.49483   0.00001   0.00000   0.00001   0.00001  -3.49482
    Y8       -2.54330  -0.00004   0.00000  -0.00004  -0.00004  -2.54333
    Z8       -1.06612  -0.00001   0.00000  -0.00001  -0.00001  -1.06612
    X9        3.59974   0.00001   0.00000   0.00001   0.00001   3.59975
    Y9       -2.70698   0.00002   0.00000   0.00002   0.00002  -2.70697
    Z9       -0.71115   0.00001   0.00000   0.00001   0.00001  -0.71114
   X10        3.55878  -0.00001   0.00000  -0.00001  -0.00001   3.55877
   Y10       -2.66956   0.00000   0.00000   0.00000   0.00000  -2.66957
   Z10        2.63165  -0.00003   0.00000  -0.00003  -0.00003   2.63162
   X11       -2.43942   0.00000   0.00000   0.00000   0.00000  -2.43942
   Y11        1.69759   0.00002   0.00000   0.00002   0.00002   1.69760
   Z11       -3.06194  -0.00002   0.00000  -0.00002  -0.00002  -3.06195
   X12        4.76001   0.00001   0.00000   0.00001   0.00001   4.76002
   Y12        1.54451   0.00001   0.00000   0.00001   0.00001   1.54452
   Z12        0.70819  -0.00002   0.00000  -0.00002  -0.00002   0.70817
   X13        2.12908  -0.00002   0.00000  -0.00002  -0.00002   2.12906
   Y13        1.70049   0.00001   0.00000   0.00001   0.00001   1.70049
   Z13        2.75349   0.00008   0.00000   0.00008   0.00008   2.75357
   X14        2.08521  -0.00001   0.00000  -0.00001  -0.00001   2.08520
   Y14        1.68011  -0.00001   0.00000  -0.00001  -0.00001   1.68010
   Z14       -3.02907   0.00000   0.00000   0.00000   0.00000  -3.02907
   X15        1.17593   0.00001   0.00000   0.00001   0.00001   1.17593
   Y15        4.19231  -0.00005   0.00000  -0.00005  -0.00005   4.19225
   Z15       -1.04831  -0.00002   0.00000  -0.00002  -0.00002  -1.04833
   X16       -3.25196  -0.00001   0.00000  -0.00001  -0.00001  -3.25197
   Y16        2.24161   0.00001   0.00000   0.00001   0.00001   2.24161
   Z16        0.86857  -0.00003   0.00000  -0.00003  -0.00003   0.86853
   X17       -0.77211  -0.00007   0.00000  -0.00007  -0.00007  -0.77218
   Y17       -2.55119   0.00000   0.00000   0.00000   0.00000  -2.55120
   Z17       -2.98596  -0.00001   0.00000  -0.00001  -0.00001  -2.98596
   X18       -3.23582   0.00001   0.00000   0.00001   0.00001  -3.23580
   Y18        4.30272   0.00000   0.00000   0.00000   0.00000   4.30272
   Z18        0.77621  -0.00003   0.00000  -0.00003  -0.00003   0.77618
   X19       -5.20463  -0.00002   0.00000  -0.00002  -0.00002  -5.20465
   Y19        1.60934  -0.00003   0.00000  -0.00003  -0.00003   1.60930
   Z19        0.65628   0.00003   0.00000   0.00003   0.00003   0.65630
   X20       -2.57819  -0.00001   0.00000  -0.00001  -0.00001  -2.57820
   Y20        1.65988   0.00005   0.00000   0.00005   0.00005   1.65993
   Z20        2.72864   0.00000   0.00000   0.00000   0.00000   2.72864
         Item               Value     Threshold  Converged?
 Maximum Force            0.000126     0.000450     YES
 RMS     Force            0.000037     0.000300     YES
 Maximum Displacement     0.000126     0.001800     YES
 RMS     Displacement     0.000037     0.001200     YES
 Predicted change in Energy=-4.170692D-08
 Optimization completed.
    -- Stationary point found.
 GradGradGradGradGradGradGradGradGradGradGradGradGradGradGradGradGradGrad

                          Input orientation:                          
 ---------------------------------------------------------------------
 Center     Atomic     Atomic              Coordinates (Angstroms)
 Number     Number      Type              X           Y           Z
 ---------------------------------------------------------------------
    1          6      10061003       -0.825381   -0.970068   -0.641131
    2          7      10071003       -0.032079   -1.482845    0.506965
    3          6      10061003        1.383192   -1.031006    0.498640
    4          6      10061003       -0.838836    0.587855   -0.672434
    5          6      10061003        1.475109    0.515666    0.495203
    6          6      10061003        0.624359    1.129093   -0.648733
    7          1      10011000       -0.049730   -2.509813    0.488350
    8          1      10011000       -1.849382   -1.345854   -0.564164
    9          1      10011000        1.904899   -1.432475   -0.376322
   10          1      10011000        1.883223   -1.412672    1.392610
   11          1      10011000       -1.290884    0.898324   -1.620308
   12          1      10011000        2.518890    0.817320    0.374757
   13          1      10011000        1.126658    0.899859    1.457085
   14          1      10011000        1.103445    0.889076   -1.602917
   15          1      10011000        0.622273    2.218472   -0.554741
   16          6      10061003       -1.720862    1.186207    0.459625
   17          1      10011000       -0.408585   -1.350033   -1.580101
   18          1      10011000       -1.712321    2.276902    0.410751
   19          1      10011000       -2.754169    0.851624    0.347288
   20          1      10011000       -1.364319    0.878368    1.443934
 ---------------------------------------------------------------------
                    Distance matrix (angstroms):
                    1          2          3          4          5
     1  C    0.000000
     2  N    1.486739   0.000000
     3  C    2.486078   1.485672   0.000000
     4  C    1.558295   2.515877   2.988233   0.000000
     5  C    2.964947   2.503158   1.549404   2.592861   0.000000
     6  C    2.551133   2.930660   2.560922   1.560269   1.551985
     7  H    2.061110   1.027288   2.059184   3.400831   3.388023
     8  H    1.093489   2.113924   3.417341   2.184527   3.954713
     9  H    2.781793   2.129464   1.094950   3.420160   2.177045
    10  H    3.415924   2.111320   1.093107   3.959308   2.165730
    11  H    2.160178   3.432179   3.919559   1.095082   3.503217
    12  H    3.925676   3.437395   2.172893   3.524711   1.093152
    13  H    3.421928   2.814726   2.170868   2.914681   1.092813
    14  H    2.846369   3.371502   2.860335   2.174624   2.163255
    15  H    3.502849   3.905784   3.499674   2.192625   2.174686
    16  C    2.581292   3.158808   3.814801   1.554848   3.265749
    17  H    1.095335   2.124910   2.762862   2.182748   3.366900
    18  H    3.526462   4.119244   4.531245   2.188412   3.642636
    19  H    2.831211   3.589571   4.548072   2.185843   4.245178
    20  H    2.838074   2.868467   3.476796   2.199896   3.015625
                    6          7          8          9         10
     6  C    0.000000
     7  H    3.871562   0.000000
     8  H    3.500273   2.387746   0.000000
     9  H    2.876738   2.393510   3.759975   0.000000
    10  H    3.494623   2.399523   4.214946   1.769176   0.000000
    11  H    2.159946   4.195510   2.542380   4.146463   4.949075
    12  H    2.175772   4.204821   4.964141   2.450037   2.532382
    13  H    2.176999   3.734729   4.240931   3.067054   2.433998
    14  H    1.094348   4.153993   3.846181   2.745262   3.857367
    15  H    1.093429   4.888385   4.337464   3.873807   4.308989
    16  C    2.594568   4.056362   2.734227   4.549994   4.540271
    17  H    2.842619   2.398407   1.762964   2.609231   3.754107
    18  H    2.810702   5.067827   3.754146   5.240538   5.244515
    19  H    3.533200   4.316613   2.545249   5.239049   5.265467
    20  H    2.897751   3.757800   3.035607   4.397854   3.974674
                   11         12         13         14         15
    11  H    0.000000
    12  H    4.301306   0.000000
    13  H    3.913421   1.765377   0.000000
    14  H    2.394410   2.433070   3.060109   0.000000
    15  H    2.557028   2.534631   2.457761   1.759969   0.000000
    16  C    2.143334   4.256616   3.030725   3.509854   2.754050
    17  H    2.415612   4.133884   4.079643   2.701919   3.853344
    18  H    2.490641   4.476028   3.324284   3.729538   2.527037
    19  H    2.452513   5.273243   4.036682   4.322718   3.752638
    20  H    3.065187   4.028174   2.491105   3.920877   3.120437
                   16         17         18         19         20
    16  C    0.000000
    17  H    3.509283   0.000000
    18  H    1.091823   4.337959   0.000000
    19  H    1.091920   3.750185   1.766606   0.000000
    20  H    1.091216   3.876079   1.773265   1.770602   0.000000
 Stoichiometry    C6H13N
 Framework group  C1[X(C6H13N)]
 Deg. of freedom    54
 Full point group                 C1
 Largest Abelian subgroup         C1      NOp   1
 Largest concise Abelian subgroup C1      NOp   1
                         Standard orientation:                         
 ---------------------------------------------------------------------
 Center     Atomic     Atomic              Coordinates (Angstroms)
 Number     Number      Type              X           Y           Z
 ---------------------------------------------------------------------
    1          6      10061003        0.235164   -1.276116    0.589991
    2          7      10071003       -0.888722   -1.228347   -0.382115
    3          6      10061003       -1.779888   -0.053533   -0.200856
    4          6      10061003        1.126477   -0.001667    0.491880
    5          6      10061003       -0.984938    1.271918   -0.309888
    6          6      10061003        0.241320    1.274491    0.641396
    7          1      10011000       -1.448178   -2.084177   -0.282689
    8          1      10011000        0.840565   -2.165141    0.392906
    9          1      10011000       -2.280715   -0.103192    0.771574
   10          1      10011000       -2.549796   -0.068604   -0.976678
   11          1      10011000        1.826597   -0.018921    1.333746
   12          1      10011000       -1.640687    2.110380   -0.060976
   13          1      10011000       -0.648786    1.407155   -1.340884
   14          1      10011000       -0.120955    1.332204    1.672426
   15          1      10011000        0.839134    2.171809    0.459667
   16          6      10061003        1.986486    0.010099   -0.803418
   17          1      10011000       -0.157831   -1.368700    1.608197
   18          1      10011000        2.600480    0.912060   -0.842873
   19          1      10011000        2.654436   -0.853555   -0.818668
   20          1      10011000        1.359071   -0.024037   -1.695571
 ---------------------------------------------------------------------
 Rotational constants (GHZ):      3.5110958      2.5136170      1.8889413
 1|1|UNPC-UNK|FOpt|Dreiding|ZDO|C6H13N1|PCUSER|15-Jan-2008|0||# opt dre
 iding||3-methylpiperidine-ax||0,1|C,-0.8253808379,-0.9700677158,-0.641
 1306352|N,-0.0320789985,-1.4828452968,0.5069650167|C,1.3831919121,-1.0
 310059153,0.4986402237|C,-0.8388360738,0.5878549842,-0.6724339134|C,1.
 4751086216,0.5156656828,0.4952026338|C,0.6243589601,1.1290928145,-0.64
 87334117|H,-0.0497297918,-2.5098129644,0.4883497086|H,-1.849382057,-1.
 3458543756,-0.5641640517|H,1.9048991548,-1.4324746475,-0.3763222001|H,
 1.8832229264,-1.4126720956,1.3926104652|H,-1.2908839235,0.8983241617,-
 1.6203084791|H,2.5188903116,0.8173196107,0.374757417|H,1.1266583698,0.
 8998592908,1.4570851848|H,1.103444852,0.8890764442,-1.6029165412|H,0.6
 222729113,2.2184723907,-0.5547408826|C,-1.7208619757,1.1862068196,0.45
 96248104|H,-0.4085845536,-1.3500333286,-1.5801011335|H,-1.7123209948,2
 .2769022174,0.4107514902|H,-2.7541694437,0.8516235898,0.3472875515|H,-
 1.3643193695,0.8783683332,1.4439339468||Version=IA32W-G03RevD.01|HF=0.
 0244374|RMSD=0.000e+000|RMSF=3.729e-005|Thermal=0.|Dipole=0.,0.,0.|PG=
 C01 [X(C6H13N1)]||@


 Discoveries are often made by not following instructions,
 by going off the main road, by trying the untried.
 -- Frank Tyger
 Job cpu time:  0 days  0 hours  0 minutes  2.0 seconds.
 File lengths (MBytes):  RWF=     11 Int=      0 D2E=      0 Chk=      4 Scr=      1
 Normal termination of Gaussian 03 at Tue Jan 15 16:34:22 2008.
