 Entering Link 1 = C:\G03W\l1.exe PID=      3736.
  
 Copyright (c) 1988,1990,1992,1993,1995,1998,2003,2004, Gaussian, Inc.
                  All Rights Reserved.
  
 This is the Gaussian(R) 03 program.  It is based on the
 the Gaussian(R) 98 system (copyright 1998, Gaussian, Inc.),
 the Gaussian(R) 94 system (copyright 1995, Gaussian, Inc.),
 the Gaussian 92(TM) system (copyright 1992, Gaussian, Inc.),
 the Gaussian 90(TM) system (copyright 1990, Gaussian, Inc.),
 the Gaussian 88(TM) system (copyright 1988, Gaussian, Inc.),
 the Gaussian 86(TM) system (copyright 1986, Carnegie Mellon
 University), and the Gaussian 82(TM) system (copyright 1983,
 Carnegie Mellon University). Gaussian is a federally registered
 trademark of Gaussian, Inc.
  
 This software contains proprietary and confidential information,
 including trade secrets, belonging to Gaussian, Inc.
  
 This software is provided under written license and may be
 used, copied, transmitted, or stored only in accord with that
 written license.
  
 The following legend is applicable only to US Government
 contracts under FAR:
  
                    RESTRICTED RIGHTS LEGEND
  
 Use, reproduction and disclosure by the US Government is
 subject to restrictions as set forth in subparagraphs (a)
 and (c) of the Commercial Computer Software - Restricted
 Rights clause in FAR 52.227-19.
  
 Gaussian, Inc.
 340 Quinnipiac St., Bldg. 40, Wallingford CT 06492
  
  
 ---------------------------------------------------------------
 Warning -- This program may not be used in any manner that
 competes with the business of Gaussian, Inc. or will provide
 assistance to any competitor of Gaussian, Inc.  The licensee
 of this program is prohibited from giving any competitor of
 Gaussian, Inc. access to this program.  By using this program,
 the user acknowledges that Gaussian, Inc. is engaged in the
 business of creating and licensing software in the field of
 computational chemistry and represents and warrants to the
 licensee that it is not a competitor of Gaussian, Inc. and that
 it will not use this program in any manner prohibited above.
 ---------------------------------------------------------------
  

 Cite this work as:
 Gaussian 03, Revision D.01,
 M. J. Frisch, G. W. Trucks, H. B. Schlegel, G. E. Scuseria, 
 M. A. Robb, J. R. Cheeseman, J. A. Montgomery, Jr., T. Vreven, 
 K. N. Kudin, J. C. Burant, J. M. Millam, S. S. Iyengar, J. Tomasi, 
 V. Barone, B. Mennucci, M. Cossi, G. Scalmani, N. Rega, 
 G. A. Petersson, H. Nakatsuji, M. Hada, M. Ehara, K. Toyota, 
 R. Fukuda, J. Hasegawa, M. Ishida, T. Nakajima, Y. Honda, O. Kitao, 
 H. Nakai, M. Klene, X. Li, J. E. Knox, H. P. Hratchian, J. B. Cross, 
 V. Bakken, C. Adamo, J. Jaramillo, R. Gomperts, R. E. Stratmann, 
 O. Yazyev, A. J. Austin, R. Cammi, C. Pomelli, J. W. Ochterski, 
 P. Y. Ayala, K. Morokuma, G. A. Voth, P. Salvador, J. J. Dannenberg, 
 V. G. Zakrzewski, S. Dapprich, A. D. Daniels, M. C. Strain, 
 O. Farkas, D. K. Malick, A. D. Rabuck, K. Raghavachari, 
 J. B. Foresman, J. V. Ortiz, Q. Cui, A. G. Baboul, S. Clifford, 
 J. Cioslowski, B. B. Stefanov, G. Liu, A. Liashenko, P. Piskorz, 
 I. Komaromi, R. L. Martin, D. J. Fox, T. Keith, M. A. Al-Laham, 
 C. Y. Peng, A. Nanayakkara, M. Challacombe, P. M. W. Gill, 
 B. Johnson, W. Chen, M. W. Wong, C. Gonzalez, and J. A. Pople, 
 Gaussian, Inc., Wallingford CT, 2004.
 
 ******************************************
 Gaussian 03:  IA32W-G03RevD.01 13-Oct-2005
                15-Jan-2008 
 ******************************************
 --------------
 # opt dreiding
 --------------
 1/6=10,10=10,14=-1,18=4000020,38=1,56=1,64=1/1,3;
 2/9=110,17=6,18=5,40=1/2;
 3/5=30,11=9,16=1,25=1,30=1/1;
 4/20=9,22=1001,24=3/2;
 7/44=-1/16;
 1/6=10,10=10,14=-1,18=4000020,64=1/3(2);
 2/9=110/2;
 99//99;
 2/9=110/2;
 3/5=30,11=9,16=1,25=1,30=1/1;
 4/16=2,20=9,22=1001,24=3/2;
 7/44=-1/16;
 1/6=10,10=10,14=-1,18=4000020,64=1/3(-4);
 2/9=110/2;
 99//99;
 ---------------------
 4-methylpiperidine-ax
 ---------------------
 Symbolic Z-matrix:
 Charge =  0 Multiplicity = 1
 C                    -1.40757  -0.47986   0.5235 
 N                    -1.37257   0.96714   0.5225 
 C                    -0.02157   1.48714   0.5205 
 C                    -0.65357  -1.07086  -0.6765 
 C                     0.78743   0.97514  -0.6785 
 C                     0.79543  -0.56086  -0.7555 
 H                    -1.86257   1.31314   1.3485 
 H                    -2.47457  -0.80386   0.4975 
 H                    -0.98357  -0.85686   1.4835 
 H                     0.47643   1.21714   1.4805 
 H                    -0.07657   2.60114   0.4935 
 H                    -1.19257  -0.77786  -1.6095 
 H                    -0.66957  -2.18586  -0.6325 
 H                     1.83143   1.36614  -0.6365 
 H                     0.32843   1.38214  -1.6115 
 H                     1.21943  -0.86086  -1.7475 
 C                     1.69743  -1.19486   0.3155 
 H                     1.71443  -2.30486   0.2175 
 H                     2.74843  -0.83686   0.2155 
 H                     1.36343  -0.95786   1.3495 
 
 Include all MM classes
 MMInit generated parameter data with length LenPar=  2294.

 GradGradGradGradGradGradGradGradGradGradGradGradGradGradGradGradGradGrad
 Berny optimization.
 Initialization pass.
 No Z-matrix variables, so optimization will use Cartesian coordinates.
 Trust Radius=1.00D-01 FncErr=1.00D-07 GrdErr=1.00D-07
 Number of steps in this run=   2 maximum allowed number of steps=   2.
 GradGradGradGradGradGradGradGradGradGradGradGradGradGradGradGradGradGrad

                          Input orientation:                          
 ---------------------------------------------------------------------
 Center     Atomic     Atomic              Coordinates (Angstroms)
 Number     Number      Type              X           Y           Z
 ---------------------------------------------------------------------
    1          6      10061003       -1.407571   -0.479857    0.523500
    2          7      10071003       -1.372571    0.967143    0.522500
    3          6      10061003       -0.021571    1.487143    0.520500
    4          6      10061003       -0.653571   -1.070857   -0.676500
    5          6      10061003        0.787429    0.975143   -0.678500
    6          6      10061003        0.795429   -0.560857   -0.755500
    7          1      10011000       -1.862571    1.313143    1.348500
    8          1      10011000       -2.474571   -0.803857    0.497500
    9          1      10011000       -0.983571   -0.856857    1.483500
   10          1      10011000        0.476429    1.217143    1.480500
   11          1      10011000       -0.076571    2.601143    0.493500
   12          1      10011000       -1.192571   -0.777857   -1.609500
   13          1      10011000       -0.669571   -2.185857   -0.632500
   14          1      10011000        1.831429    1.366143   -0.636500
   15          1      10011000        0.328429    1.382143   -1.611500
   16          1      10011000        1.219429   -0.860857   -1.747500
   17          6      10061003        1.697429   -1.194857    0.315500
   18          1      10011000        1.714429   -2.304857    0.217500
   19          1      10011000        2.748429   -0.836857    0.215500
   20          1      10011000        1.363429   -0.957857    1.349500
 ---------------------------------------------------------------------
                    Distance matrix (angstroms):
                    1          2          3          4          5
     1  C    0.000000
     2  N    1.447424   0.000000
     3  C    2.406261   1.447620   0.000000
     4  C    1.535512   2.471438   2.894062   0.000000
     5  C    2.894798   2.471450   1.534349   2.502519   0.000000
     6  C    2.548649   2.944196   2.547542   1.538162   1.537950
     7  H    2.025463   1.020829   2.026115   3.353470   3.353427
     8  H    1.115411   2.086018   3.356549   2.183027   3.897238
     9  H    1.115126   2.098051   2.710562   2.195517   3.341693
    10  H    2.710187   2.097395   1.114677   3.341331   2.194668
    11  H    3.356341   2.085764   1.115684   3.896847   2.182649
    12  H    2.164421   2.760951   3.322404   1.116628   2.803599
    13  H    2.188930   3.430691   3.903875   1.115983   3.480932
    14  H    3.904413   3.430466   2.187898   3.480775   1.115608
    15  H    3.322494   2.760359   2.163088   2.802813   1.116610
    16  H    3.493384   3.900378   3.492422   2.167780   2.168013
    17  C    3.193041   3.760584   3.192195   2.554729   2.554415
    18  H    3.629207   4.508722   4.181479   2.815922   3.524279
    19  H    4.182661   4.509025   3.628622   3.524773   2.815688
    20  H    2.930734   3.446048   2.929760   2.861072   2.860253
                    6          7          8          9         10
     6  C    0.000000
     7  H    3.873455   0.000000
     8  H    3.510265   2.362294   0.000000
     9  H    2.874992   2.345158   1.788319   0.000000
    10  H    2.874498   2.344688   3.709330   2.536353   0.000000
    11  H    3.509790   2.362153   4.164666   3.709517   1.787578
    12  H    2.174523   3.683876   2.466505   3.101060   4.039020
    13  H    2.191342   4.194116   2.538671   2.518391   4.166353
    14  H    2.191070   4.193885   4.953432   4.166576   2.517919
    15  H    2.173954   3.683319   4.133193   4.038996   3.099934
    16  H    1.119750   4.879571   4.323067   3.910574   3.910258
    17  C    1.537075   4.475573   4.194233   2.943846   2.943775
    18  H    2.198369   5.211911   4.458601   3.313407   3.941104
    19  H    2.198460   5.212246   5.230711   3.941579   3.313778
    20  H    2.216136   3.945189   3.934446   2.352991   2.352563
                   11         12         13         14         15
    11  H    0.000000
    12  H    4.133486   0.000000
    13  H    4.953271   1.791793   0.000000
    14  H    2.538226   3.832498   4.344159   0.000000
    15  H    2.465971   2.641788   3.832110   1.791617   0.000000
    16  H    4.322863   2.417370   2.562649   2.562888   2.417318
    17  C    4.193850   3.497372   2.735594   2.735504   3.496916
    18  H    5.229980   3.757700   2.533795   3.770842   4.342834
    19  H    4.458447   4.343453   3.771158   2.533772   3.757431
    20  H    3.933550   3.914233   3.093444   3.092603   3.913355
                   16         17         18         19         20
    16  H    0.000000
    17  C    2.143830   0.000000
    18  H    2.488250   1.114447   0.000000
    19  H    2.488330   1.114794   1.795601   0.000000
    20  H    3.101863   1.112152   1.794167   1.794108   0.000000
 Stoichiometry    C6H13N
 Framework group  C1[X(C6H13N)]
 Deg. of freedom    54
 Full point group                 C1
 Largest Abelian subgroup         C1      NOp   1
 Largest concise Abelian subgroup C1      NOp   1
                         Standard orientation:                         
 ---------------------------------------------------------------------
 Center     Atomic     Atomic              Coordinates (Angstroms)
 Number     Number      Type              X           Y           Z
 ---------------------------------------------------------------------
    1          6      10061003        0.978295   -1.202910   -0.285518
    2          7      10071003        1.756529    0.000615   -0.083243
    3          6      10061003        0.976576    1.203351   -0.284998
    4          6      10061003       -0.249596   -1.251301    0.635210
    5          6      10061003       -0.250575    1.251218    0.634803
    6          6      10061003       -1.132049   -0.000280    0.486326
    7          1      10011000        2.544898    0.000888   -0.731754
    8          1      10011000        1.635649   -2.081894   -0.086990
    9          1      10011000        0.674236   -1.268048   -1.356410
   10          1      10011000        0.673570    1.268304   -1.355732
   11          1      10011000        1.633966    2.082772   -0.086987
   12          1      10011000        0.105465   -1.321061    1.691583
   13          1      10011000       -0.847077   -2.172413    0.435244
   14          1      10011000       -0.848373    2.171747    0.435189
   15          1      10011000        0.104689    1.320727    1.691106
   16          1      10011000       -1.884322   -0.000772    1.315738
   17          6      10061003       -1.929648   -0.000615   -0.827613
   18          1      10011000       -2.586186   -0.898526   -0.896232
   19          1      10011000       -2.587098    0.897075   -0.895995
   20          1      10011000       -1.273133    0.000111   -1.725315
 ---------------------------------------------------------------------
 Rotational constants (GHZ):      3.6494055      2.5249029      1.9469584
 Standard basis: Dummy (5D, 7F)
 There are    20 symmetry adapted basis functions of A   symmetry.
 Integral buffers will be    262144 words long.
 Raffenetti 1 integral format.
 Two-electron integral symmetry is turned on.
    20 basis functions,    20 primitive gaussians,    20 cartesian basis functions
    13 alpha electrons       13 beta electrons
       nuclear repulsion energy        69.6184716734 Hartrees.
 NAtoms=   20 NActive=   20 NUniq=   20 SFac= 7.50D-01 NAtFMM=   80 NAOKFM=F Big=F
 Dreiding calculation of energy and first derivatives.
 MO and density RWFs will be updated without deorthogonalization.
 NRF= 0 NRA=   0 NVA=  20 HaveQM=F
 Convergence limit is  0.750E-04 MaxStp=  5000 StMxLn= 1.00D-04 StpMin= 1.00D-06.
 Convergence criteria           0.00011250 0.00007500 0.00045000 0.00030000
  Step  NS  ND Rises OKQ   Scale  Max. Force  RMS Force Max. Disp.  RMS Disp.     Energy   Flag
     1   0   0   F    T  1.00D+00 0.03458272 0.01302554 0.03458272 0.01302554    0.0330202 ----
     2   0   0   F    F  2.00D-01 0.03458272 0.01302554 0.03458272 0.01302554    0.0270940 ----
     3   0   0   F    T  6.09D+00 0.00615222 0.00252200 0.00556725 0.00256884    0.0269250 ----
     4   0   0   T    F  4.14D-01 0.00615222 0.00252200 0.03388098 0.01563333    0.0274101 ----
     5   0   0   F    T  2.26D+00 0.00534298 0.00215853 0.00836330 0.00286354    0.0264448 ----
     6   0   0   F    F  3.90D-01 0.00534298 0.00215853 0.01888197 0.00646507    0.0260407 ----
     7   0   0   F    T  2.81D+00 0.00534171 0.00200643 0.00959565 0.00319342    0.0260062 ----
     8   0   0   F    F -3.68D-02 0.00534171 0.00200643 0.02701083 0.00898916    0.0256793 ----
     9   0   0   F    T  4.52D+00 0.00374665 0.00132190 0.00502571 0.00191686    0.0256788 ----
    10   0   0   F    F -2.54D-01 0.00374665 0.00132190 0.02270096 0.00865839    0.0255226 ----
    11   0   0   F    T  3.95D+00 0.00280883 0.00106074 0.00386210 0.00163387    0.0255023 ----
    12   0   0   F    F -3.61D-01 0.00280883 0.00106074 0.01527433 0.00646185    0.0254442 ----
    13   0   0   F    T  3.88D+00 0.00168819 0.00072981 0.00238619 0.00106521    0.0254169 ----
    14   0   0   F    F  7.34D-02 0.00168819 0.00072981 0.00924912 0.00412888    0.0253507 ----
    15   0   0   F    T  4.22D+00 0.00274734 0.00064490 0.00258714 0.00105139    0.0253504 ----
    16   0   0   F    F -3.87D-01 0.00274734 0.00064490 0.01090514 0.00443175    0.0253311 ----
    17   0   0   F    T  2.01D+00 0.00220782 0.00067978 0.00385602 0.00135266    0.0253182 ----
    18   0   0   F    F  2.83D+00 0.00220782 0.00067978 0.00774030 0.00271523    0.0252699 ----
    19   0   0   F    T  1.40D+01 0.00162740 0.00044489 0.00158024 0.00074174    0.0252122 ----
    20   0   0   T    F  2.32D-01 0.00162740 0.00044489 0.02216241 0.01040273    0.0254044 ----
    21   0   0   F    T  2.23D+00 0.00140655 0.00050483 0.00226093 0.00108244    0.0251929 ----
    22   0   0   F    F  7.84D-01 0.00140655 0.00050483 0.00503426 0.00241018    0.0251684 ----
    23   0   0   F    T  8.22D+00 0.00064802 0.00031278 0.00131400 0.00052292    0.0251626 ----
    24   0   0   F    F -4.56D-01 0.00064802 0.00031278 0.01080478 0.00429985    0.0251587 ----
    25   0   0   F    T  2.55D+00 0.00098314 0.00039346 0.00238557 0.00091667    0.0251495 ----
    26   0   0   F    F  3.94D-01 0.00098314 0.00039346 0.00608808 0.00233939    0.0251343 ----
    27   0   0   F    T  4.04D+00 0.00133570 0.00035024 0.00197377 0.00080730    0.0251329 ----
    28   0   0   F    F -3.55D-01 0.00133570 0.00035024 0.00797149 0.00326044    0.0251262 ----
    29   0   0   F    T  4.43D+00 0.00082652 0.00024807 0.00131899 0.00047538    0.0251233 ----
    30   0   0   F    F -4.86D-01 0.00082652 0.00024807 0.00583761 0.00210394    0.0251229 ----
    31   0   0   F    T  3.08D+00 0.00059125 0.00019472 0.00096226 0.00035158    0.0251191 ----
    32   0   0   F    F  7.15D-01 0.00059125 0.00019472 0.00296255 0.00108242    0.0251142 ----
    33   0   0   F    T  5.19D+00 0.00043582 0.00018230 0.00099255 0.00035783    0.0251131 ----
    34   0   0   F    F -4.03D-01 0.00043582 0.00018230 0.00514943 0.00185644    0.0251115 ----
    35   0   0   F    T  3.65D+00 0.00045708 0.00015576 0.00084693 0.00030374    0.0251100 ----
    36   0   0   F    F  2.71D-01 0.00045708 0.00015576 0.00308955 0.00110804    0.0251068 ----
    37   0   0   F    T  3.27D+00 0.00052073 0.00017702 0.00117064 0.00043050    0.0251067 ----
    38   0   0   F    F -2.41D-01 0.00052073 0.00017702 0.00382903 0.00140811    0.0251046 ----
    39   0   0   F    T  4.27D+00 0.00033939 0.00012536 0.00068156 0.00025021    0.0251043 ---+
    40   0   0   F    F  3.22D-01 0.00033939 0.00012536 0.00291233 0.00106914    0.0251018 ----
    41   0   0   F    T  2.73D+00 0.00052568 0.00017494 0.00149492 0.00051795    0.0251017 ----
    42   0   0   F    F  6.21D-01 0.00052568 0.00017494 0.00407794 0.00141290    0.0250982 ----
    43   0   0   F    T  5.69D+00 0.00045057 0.00014873 0.00149559 0.00040267    0.0250976 ----
    44   0   0   F    F -4.86D-01 0.00045057 0.00014873 0.00850456 0.00228976    0.0250974 ----
    45   0   0   F    T  3.01D+00 0.00039977 0.00014139 0.00151013 0.00039024    0.0250957 ----
    46   0   0   F    F  5.88D-01 0.00039977 0.00014139 0.00455063 0.00117594    0.0250932 ----
    47   0   0   F    T  3.34D+00 0.00050710 0.00016545 0.00234378 0.00055961    0.0250928 ----
    48   0   0   F    F  1.01D-01 0.00050710 0.00016545 0.00782250 0.00186774    0.0250898 ----
    49   0   0   F    T  3.33D+00 0.00066050 0.00017031 0.00269771 0.00061683    0.0250898 ----
    50   0   0   F    F -1.40D-01 0.00066050 0.00017031 0.00898978 0.00205550    0.0250874 ----
    51   0   0   F    T  7.48D+00 0.00026355 0.00010027 0.00102457 0.00023637    0.0250873 ---+
    52   0   0   T    F  4.53D-01 0.00026355 0.00010027 0.00765955 0.00176709    0.0250878 ----
    53   0   0   F    T  2.82D+00 0.00028469 0.00010583 0.00120326 0.00028379    0.0250863 ---+
    54   0   0   F    T  4.55D+00 0.00020121 0.00007827 0.00078956 0.00017589    0.0250853 ---+
    55   0   0   F    F -4.08D-01 0.00020121 0.00007827 0.00359365 0.00080055    0.0250851 ----
    56   0   0   F    T  6.44D+00 0.00011390 0.00004583 0.00027332 0.00007363    0.0250848 -+++
    57   0   0   T    F  4.27D-01 0.00011390 0.00004583 0.00176017 0.00047418    0.0250850 -+--
    58   0   0   F    T  2.38D+00 0.00016521 0.00004528 0.00025707 0.00008515    0.0250847 -+++
    59   0   0   F    F  4.34D-01 0.00016521 0.00004528 0.00061119 0.00020246    0.0250845 -+-+
    60   0   0   F    T  5.38D+00 0.00010046 0.00003229 0.00015401 0.00005401    0.0250845 ====
 Energy=    0.025084465014 NIter=   0.
 Dipole moment=       0.000000       0.000000       0.000000
 ***** Axes restored to original set *****
 -------------------------------------------------------------------
 Center     Atomic                   Forces (Hartrees/Bohr)
 Number     Number              X              Y              Z
 -------------------------------------------------------------------
    1          6           0.000002717    0.000091272    0.000038976
    2          7           0.000007783    0.000035238    0.000022093
    3          6           0.000037268    0.000023049   -0.000030576
    4          6          -0.000011002   -0.000009553    0.000104718
    5          6           0.000006049   -0.000019964   -0.000024869
    6          6          -0.000073756   -0.000026628   -0.000014133
    7          1          -0.000028440   -0.000014110   -0.000020128
    8          1           0.000001015   -0.000026056   -0.000026721
    9          1           0.000019707    0.000004176   -0.000042046
   10          1          -0.000033676   -0.000020234   -0.000028592
   11          1          -0.000015400   -0.000042360   -0.000000693
   12          1           0.000014511    0.000045009   -0.000023522
   13          1           0.000003912    0.000004844   -0.000038568
   14          1          -0.000023293    0.000025072   -0.000008971
   15          1          -0.000023888   -0.000031034    0.000049713
   16          1           0.000016416    0.000018418    0.000008585
   17          6           0.000048576   -0.000020175    0.000010776
   18          1           0.000035312    0.000005222   -0.000020410
   19          1           0.000013453   -0.000039936   -0.000013174
   20          1           0.000002735   -0.000002251    0.000057540
 -------------------------------------------------------------------
 Cartesian Forces:  Max     0.000104718 RMS     0.000032290

 GradGradGradGradGradGradGradGradGradGradGradGradGradGradGradGradGradGrad
 Berny optimization.
 Search for a local minimum.
 Step number   1 out of a maximum of   2
 All quantities printed in internal units (Hartrees-Bohrs-Radians)
 Second derivative matrix not updated -- unit matrix used.
 RFO step:  Lambda=-6.25581686D-08.
 Linear search not attempted -- first point.
 TrRot=  0.000000  0.000000  0.000000  0.000000  0.000000  0.000000
 Variable       Old X    -DE/DX   Delta X   Delta X   Delta X     New X
                                 (Linear)    (Quad)   (Total)
    X1       -2.74268   0.00000   0.00000   0.00000   0.00000  -2.74267
    Y1       -0.94535   0.00009   0.00000   0.00009   0.00009  -0.94526
    Z1        1.01448   0.00004   0.00000   0.00004   0.00004   1.01451
    X2       -2.63876   0.00001   0.00000   0.00001   0.00001  -2.63875
    Y2        1.85894   0.00004   0.00000   0.00004   0.00004   1.85897
    Z2        0.98030   0.00002   0.00000   0.00002   0.00002   0.98032
    X3       -0.03372   0.00004   0.00000   0.00004   0.00004  -0.03368
    Y3        2.90236   0.00002   0.00000   0.00002   0.00002   2.90238
    Z3        1.01006  -0.00003   0.00000  -0.00003  -0.00003   1.01003
    X4       -1.25846  -0.00001   0.00000  -0.00001  -0.00001  -1.25847
    Y4       -2.07349  -0.00001   0.00000  -0.00001  -0.00001  -2.07350
    Z4       -1.24713   0.00010   0.00000   0.00010   0.00010  -1.24703
    X5        1.52646   0.00001   0.00000   0.00001   0.00001   1.52647
    Y5        1.88189  -0.00002   0.00000  -0.00002  -0.00002   1.88187
    Z5       -1.25158  -0.00002   0.00000  -0.00002  -0.00002  -1.25161
    X6        1.50683  -0.00007   0.00000  -0.00007  -0.00007   1.50675
    Y6       -1.06252  -0.00003   0.00000  -0.00003  -0.00003  -1.06254
    Z6       -1.40426  -0.00001   0.00000  -0.00001  -0.00001  -1.40427
    X7       -3.60133  -0.00003   0.00000  -0.00003  -0.00003  -3.60135
    Y7        2.53893  -0.00001   0.00000  -0.00001  -0.00001   2.53891
    Z7        2.52298  -0.00002   0.00000  -0.00002  -0.00002   2.52296
    X8       -4.71646   0.00000   0.00000   0.00000   0.00000  -4.71646
    Y8       -1.53909  -0.00003   0.00000  -0.00003  -0.00003  -1.53912
    Z8        0.87764  -0.00003   0.00000  -0.00003  -0.00003   0.87762
    X9       -1.98778   0.00002   0.00000   0.00002   0.00002  -1.98776
    Y9       -1.67561   0.00000   0.00000   0.00000   0.00000  -1.67561
    Z9        2.79533  -0.00004   0.00000  -0.00004  -0.00004   2.79529
   X10        0.91076  -0.00003   0.00000  -0.00003  -0.00003   0.91072
   Y10        2.44072  -0.00002   0.00000  -0.00002  -0.00002   2.44070
   Z10        2.79038  -0.00003   0.00000  -0.00003  -0.00003   2.79035
   X11       -0.13971  -0.00002   0.00000  -0.00002  -0.00002  -0.13973
   Y11        4.96070  -0.00004   0.00000  -0.00004  -0.00004   4.96066
   Z11        0.86970   0.00000   0.00000   0.00000   0.00000   0.86970
   X12       -2.25072   0.00001   0.00000   0.00001   0.00001  -2.25070
   Y12       -1.56841   0.00005   0.00000   0.00005   0.00005  -1.56837
   Z12       -2.98943  -0.00002   0.00000  -0.00002  -0.00002  -2.98945
   X13       -1.26315   0.00000   0.00000   0.00000   0.00000  -1.26314
   Y13       -4.13533   0.00000   0.00000   0.00000   0.00000  -4.13533
   Z13       -1.11412  -0.00004   0.00000  -0.00004  -0.00004  -1.11416
   X14        3.46638  -0.00002   0.00000  -0.00002  -0.00002   3.46635
   Y14        2.58116   0.00003   0.00000   0.00003   0.00003   2.58119
   Z14       -1.12219  -0.00001   0.00000  -0.00001  -0.00001  -1.12220
   X15        0.71464  -0.00002   0.00000  -0.00002  -0.00002   0.71461
   Y15        2.64279  -0.00003   0.00000  -0.00003  -0.00003   2.64276
   Z15       -2.99462   0.00005   0.00000   0.00005   0.00005  -2.99457
   X16        2.24841   0.00002   0.00000   0.00002   0.00002   2.24843
   Y16       -1.58723   0.00002   0.00000   0.00002   0.00002  -1.58721
   Z16       -3.26416   0.00001   0.00000   0.00001   0.00001  -3.26415
   X17        3.28962   0.00005   0.00000   0.00005   0.00005   3.28966
   Y17       -2.31569  -0.00002   0.00000  -0.00002  -0.00002  -2.31571
   Z17        0.56772   0.00001   0.00000   0.00001   0.00001   0.56773
   X18        3.29885   0.00004   0.00000   0.00004   0.00004   3.29888
   Y18       -4.36403   0.00001   0.00000   0.00001   0.00001  -4.36403
   Z18        0.31888  -0.00002   0.00000  -0.00002  -0.00002   0.31885
   X19        5.22090   0.00001   0.00000   0.00001   0.00001   5.22091
   Y19       -1.63436  -0.00004   0.00000  -0.00004  -0.00004  -1.63440
   Z19        0.31552  -0.00001   0.00000  -0.00001  -0.00001   0.31550
   X20        2.69722   0.00000   0.00000   0.00000   0.00000   2.69722
   Y20       -1.89618   0.00000   0.00000   0.00000   0.00000  -1.89619
   Z20        2.49613   0.00006   0.00000   0.00006   0.00006   2.49619
         Item               Value     Threshold  Converged?
 Maximum Force            0.000105     0.000450     YES
 RMS     Force            0.000032     0.000300     YES
 Maximum Displacement     0.000105     0.001800     YES
 RMS     Displacement     0.000032     0.001200     YES
 Predicted change in Energy=-3.127908D-08
 Optimization completed.
    -- Stationary point found.
 GradGradGradGradGradGradGradGradGradGradGradGradGradGradGradGradGradGrad

                          Input orientation:                          
 ---------------------------------------------------------------------
 Center     Atomic     Atomic              Coordinates (Angstroms)
 Number     Number      Type              X           Y           Z
 ---------------------------------------------------------------------
    1          6      10061003       -1.451362   -0.500259    0.536837
    2          7      10071003       -1.396369    0.983707    0.518750
    3          6      10061003       -0.017843    1.535862    0.534503
    4          6      10061003       -0.665947   -1.097245   -0.659953
    5          6      10061003        0.807768    0.995855   -0.662310
    6          6      10061003        0.797379   -0.562259   -0.743100
    7          1      10011000       -1.905739    1.343543    1.335103
    8          1      10011000       -2.495841   -0.814452    0.464428
    9          1      10011000       -1.051887   -0.886695    1.479225
   10          1      10011000        0.481951    1.291575    1.476604
   11          1      10011000       -0.073932    2.625089    0.460225
   12          1      10011000       -1.191028   -0.829967   -1.581937
   13          1      10011000       -0.668429   -2.188325   -0.589566
   14          1      10011000        1.834328    1.365892   -0.593837
   15          1      10011000        0.378169    1.398503   -1.584682
   16          1      10011000        1.189807   -0.839925   -1.727317
   17          6      10061003        1.740790   -1.225411    0.300425
   18          1      10011000        1.745674   -2.309347    0.168742
   19          1      10011000        2.762779   -0.864866    0.166964
   20          1      10011000        1.427305   -1.003417    1.320896
 ---------------------------------------------------------------------
                    Distance matrix (angstroms):
                    1          2          3          4          5
     1  C    0.000000
     2  N    1.485095   0.000000
     3  C    2.490135   1.485078   0.000000
     4  C    1.550992   2.500644   2.963109   0.000000
     5  C    2.963103   2.500654   1.551000   2.559865   0.000000
     6  C    2.588227   2.965604   2.588236   1.560271   1.560241
     7  H    2.059925   1.027313   2.059636   3.387444   3.387280
     8  H    1.093114   2.108357   3.416045   2.166268   3.931995
     9  H    1.094079   2.130631   2.798309   2.183887   3.404187
    10  H    2.798487   2.130811   1.094086   3.404263   2.183703
    11  H    3.416283   2.108649   1.093197   3.932054   2.166076
    12  H    2.160020   2.782888   3.384203   1.094167   2.859113
    13  H    2.175163   3.438030   3.944154   1.093351   3.510477
    14  H    3.944199   3.438214   2.175448   3.510383   1.093362
    15  H    3.384276   2.783068   2.160240   2.859031   1.094281
    16  H    3.495360   3.880562   3.495513   2.156224   2.156452
    17  C    3.282007   3.843129   3.282104   2.594443   2.594496
    18  H    3.691793   4.564992   4.246104   2.823445   3.534780
    19  H    4.246025   4.565029   3.691942   3.534679   2.823480
    20  H    3.025663   3.544748   3.025690   2.883447   2.883404
                    6          7          8          9         10
     6  C    0.000000
     7  H    3.906130   0.000000
     8  H    3.516678   2.400674   0.000000
     9  H    2.909256   2.392446   1.766362   0.000000
    10  H    2.909172   2.392444   3.785115   2.664119   0.000000
    11  H    3.516583   2.400686   4.206674   3.785154   1.766435
    12  H    2.174644   3.707301   2.427013   3.064848   4.080989
    13  H    2.194597   4.208250   2.517512   2.474101   4.207390
    14  H    2.194381   4.208255   4.962277   4.207371   2.474100
    15  H    2.174530   3.707345   4.166049   4.081019   3.064911
    16  H    1.095346   4.871176   4.288170   3.912709   3.912731
    17  C    1.555230   4.579002   4.259675   3.050138   3.050130
    18  H    2.187015   5.294981   4.506950   3.401125   4.034122
    19  H    2.186912   5.294968   5.267268   4.034128   3.401114
    20  H    2.202613   4.076470   4.019990   2.486983   2.486951
                   11         12         13         14         15
    11  H    0.000000
    12  H    4.166023   0.000000
    13  H    4.962302   1.761546   0.000000
    14  H    2.517554   3.866642   4.346984   0.000000
    15  H    2.427046   2.725521   3.866646   1.761600   0.000000
    16  H    4.288205   2.385290   2.562362   2.562385   2.385301
    17  C    4.259707   3.506453   2.742922   2.742865   3.506463
    18  H    5.267313   3.725273   2.533292   3.754566   4.323507
    19  H    4.506963   4.323478   3.754606   2.533204   3.725247
    20  H    4.020015   3.913079   3.073429   3.073352   3.913091
                   16         17         18         19         20
    16  H    0.000000
    17  C    2.136333   0.000000
    18  H    2.462362   1.091916   0.000000
    19  H    2.462349   1.091910   1.766644   0.000000
    20  H    3.061819   1.090374   1.770387   1.770381   0.000000
 Stoichiometry    C6H13N
 Framework group  C1[X(C6H13N)]
 Deg. of freedom    54
 Full point group                 C1
 Largest Abelian subgroup         C1      NOp   1
 Largest concise Abelian subgroup C1      NOp   1
                         Standard orientation:                         
 ---------------------------------------------------------------------
 Center     Atomic     Atomic              Coordinates (Angstroms)
 Number     Number      Type              X           Y           Z
 ---------------------------------------------------------------------
    1          6      10061003        0.999902   -1.245106   -0.294506
    2          7      10071003        1.780381   -0.000067   -0.079476
    3          6      10061003        1.000032    1.245029   -0.294537
    4          6      10061003       -0.249582   -1.279900    0.623730
    5          6      10061003       -0.249501    1.279965    0.623640
    6          6      10061003       -1.130993    0.000074    0.485067
    7          1      10011000        2.585321    0.000112   -0.717788
    8          1      10011000        1.634466   -2.103262   -0.058297
    9          1      10011000        0.698872   -1.331997   -1.342761
   10          1      10011000        0.698792    1.332122   -1.342723
   11          1      10011000        1.634369    2.103412   -0.058161
   12          1      10011000        0.089472   -1.362773    1.660733
   13          1      10011000       -0.839490   -2.173515    0.402651
   14          1      10011000       -0.839651    2.173468    0.402701
   15          1      10011000        0.089366    1.362748    1.660832
   16          1      10011000       -1.838583   -0.000084    1.321189
   17          6      10061003       -1.992761   -0.000016   -0.809574
   18          1      10011000       -2.634115   -0.883355   -0.835241
   19          1      10011000       -2.634152    0.883289   -0.835171
   20          1      10011000       -1.369917    0.000036   -1.704549
 ---------------------------------------------------------------------
 Rotational constants (GHZ):      3.5548125      2.4658935      1.8683967
 1|1|UNPC-UNK|FOpt|Dreiding|ZDO|C6H13N1|PCUSER|15-Jan-2008|0||# opt dre
 iding||4-methylpiperidine-ax||0,1|C,-1.4513622046,-0.5002591788,0.5368
 374973|N,-1.3963691656,0.98370747,0.5187498483|C,-0.0178426091,1.53586
 16264,0.5345025887|C,-0.6659471118,-1.0972448276,-0.6599528345|C,0.807
 7684457,0.9958548101,-0.6623096035|C,0.7973786457,-0.5622587733,-0.743
 09995|H,-1.9057394132,1.3435427225,1.3351027876|H,-2.4958414584,-0.814
 4521245,0.4644283459|H,-1.0518872348,-0.8866952575,1.4792253054|H,0.48
 19508689,1.2915750527,1.4766042259|H,-0.0739318527,2.6250891736,0.4602
 248573|H,-1.1910277404,-0.8299673868,-1.5819370141|H,-0.6684289919,-2.
 18832454,-0.5895655847|H,1.8343275454,1.36589228,-0.5938367017|H,0.378
 1694251,1.3985025132,-1.5846820289|H,1.1898067125,-0.8399253057,-1.727
 3172584|C,1.7407897583,-1.2254113221,0.3004246842|H,1.7456739148,-2.30
 93469192,0.1687415069|H,2.7627790659,-0.8648658733,0.1669635828|H,1.42
 73048005,-1.0034169396,1.3208957455||Version=IA32W-G03RevD.01|HF=0.025
 0845|RMSD=0.000e+000|RMSF=3.229e-005|Thermal=0.|Dipole=0.,0.,0.|PG=C01
  [X(C6H13N1)]||@


 Discoveries are often made by not following instructions,
 by going off the main road, by trying the untried.
 -- Frank Tyger
 Job cpu time:  0 days  0 hours  0 minutes  3.0 seconds.
 File lengths (MBytes):  RWF=     11 Int=      0 D2E=      0 Chk=      4 Scr=      1
 Normal termination of Gaussian 03 at Tue Jan 15 16:34:29 2008.
