 Entering Link 1 = C:\G03W\l1.exe PID=      2484.
  
 Copyright (c) 1988,1990,1992,1993,1995,1998,2003,2004, Gaussian, Inc.
                  All Rights Reserved.
  
 This is the Gaussian(R) 03 program.  It is based on the
 the Gaussian(R) 98 system (copyright 1998, Gaussian, Inc.),
 the Gaussian(R) 94 system (copyright 1995, Gaussian, Inc.),
 the Gaussian 92(TM) system (copyright 1992, Gaussian, Inc.),
 the Gaussian 90(TM) system (copyright 1990, Gaussian, Inc.),
 the Gaussian 88(TM) system (copyright 1988, Gaussian, Inc.),
 the Gaussian 86(TM) system (copyright 1986, Carnegie Mellon
 University), and the Gaussian 82(TM) system (copyright 1983,
 Carnegie Mellon University). Gaussian is a federally registered
 trademark of Gaussian, Inc.
  
 This software contains proprietary and confidential information,
 including trade secrets, belonging to Gaussian, Inc.
  
 This software is provided under written license and may be
 used, copied, transmitted, or stored only in accord with that
 written license.
  
 The following legend is applicable only to US Government
 contracts under FAR:
  
                    RESTRICTED RIGHTS LEGEND
  
 Use, reproduction and disclosure by the US Government is
 subject to restrictions as set forth in subparagraphs (a)
 and (c) of the Commercial Computer Software - Restricted
 Rights clause in FAR 52.227-19.
  
 Gaussian, Inc.
 340 Quinnipiac St., Bldg. 40, Wallingford CT 06492
  
  
 ---------------------------------------------------------------
 Warning -- This program may not be used in any manner that
 competes with the business of Gaussian, Inc. or will provide
 assistance to any competitor of Gaussian, Inc.  The licensee
 of this program is prohibited from giving any competitor of
 Gaussian, Inc. access to this program.  By using this program,
 the user acknowledges that Gaussian, Inc. is engaged in the
 business of creating and licensing software in the field of
 computational chemistry and represents and warrants to the
 licensee that it is not a competitor of Gaussian, Inc. and that
 it will not use this program in any manner prohibited above.
 ---------------------------------------------------------------
  

 Cite this work as:
 Gaussian 03, Revision D.01,
 M. J. Frisch, G. W. Trucks, H. B. Schlegel, G. E. Scuseria, 
 M. A. Robb, J. R. Cheeseman, J. A. Montgomery, Jr., T. Vreven, 
 K. N. Kudin, J. C. Burant, J. M. Millam, S. S. Iyengar, J. Tomasi, 
 V. Barone, B. Mennucci, M. Cossi, G. Scalmani, N. Rega, 
 G. A. Petersson, H. Nakatsuji, M. Hada, M. Ehara, K. Toyota, 
 R. Fukuda, J. Hasegawa, M. Ishida, T. Nakajima, Y. Honda, O. Kitao, 
 H. Nakai, M. Klene, X. Li, J. E. Knox, H. P. Hratchian, J. B. Cross, 
 V. Bakken, C. Adamo, J. Jaramillo, R. Gomperts, R. E. Stratmann, 
 O. Yazyev, A. J. Austin, R. Cammi, C. Pomelli, J. W. Ochterski, 
 P. Y. Ayala, K. Morokuma, G. A. Voth, P. Salvador, J. J. Dannenberg, 
 V. G. Zakrzewski, S. Dapprich, A. D. Daniels, M. C. Strain, 
 O. Farkas, D. K. Malick, A. D. Rabuck, K. Raghavachari, 
 J. B. Foresman, J. V. Ortiz, Q. Cui, A. G. Baboul, S. Clifford, 
 J. Cioslowski, B. B. Stefanov, G. Liu, A. Liashenko, P. Piskorz, 
 I. Komaromi, R. L. Martin, D. J. Fox, T. Keith, M. A. Al-Laham, 
 C. Y. Peng, A. Nanayakkara, M. Challacombe, P. M. W. Gill, 
 B. Johnson, W. Chen, M. W. Wong, C. Gonzalez, and J. A. Pople, 
 Gaussian, Inc., Wallingford CT, 2004.
 
 ******************************************
 Gaussian 03:  IA32W-G03RevD.01 13-Oct-2005
                28-Mar-2008 
 ******************************************
 --------------
 # opt dreiding
 --------------
 1/6=10,10=10,14=-1,18=4000020,38=1,56=1,64=1/1,3;
 2/9=110,17=6,18=5,40=1/2;
 3/5=30,11=9,16=1,25=1,30=1/1;
 4/20=9,22=1001,24=3/2;
 7/44=-1/16;
 1/6=10,10=10,14=-1,18=4000020,64=1/3(2);
 2/9=110/2;
 99//99;
 2/9=110/2;
 3/5=30,11=9,16=1,25=1,30=1/1;
 4/16=2,20=9,22=1001,24=3/2;
 7/44=-1/16;
 1/6=10,10=10,14=-1,18=4000020,64=1/3(-4);
 2/9=110/2;
 99//99;
 -----------
 EtdiMeNH+-g
 -----------
 Symbolic Z-matrix:
 Charge =  1 Multiplicity = 1
 C                     1.22674  -1.42921   0.07453 
 C                     1.13574   0.11679  -0.00947 
 N                    -0.24526   0.68479  -0.03647 
 C                    -1.01726   0.28179  -1.24247 
 H                     2.27774  -1.72621   0.08853 
 H                     0.75174  -1.79121   0.98653 
 H                     0.74774  -1.88821  -0.79047 
 H                     1.67074   0.53379   0.84953 
 H                     1.66674   0.43779  -0.91047 
 C                    -1.01026   0.41679   1.20953 
 H                    -1.95026   0.84879  -1.29247 
 H                    -0.44126   0.49079  -2.14647 
 H                    -1.25926  -0.78221  -1.21447 
 H                    -0.13126   1.70279  -0.09247 
 H                    -0.43026   0.72279   2.08253 
 H                    -1.25226  -0.64421   1.29953 
 H                    -1.94326   0.98479   1.20253 
 
 I=    3 IAn=  7 Valence= 4.
          JB=  1 J=    2 IAn=  6 IBT= 1 Dist= 1.49D+00
          JB=  2 J=    4 IAn=  6 IBT= 1 Dist= 1.49D+00
          JB=  3 J=   10 IAn=  6 IBT= 1 Dist= 1.49D+00
          JB=  4 J=   14 IAn=  1 IBT= 1 Dist= 1.03D+00
 Include all MM classes
 MMInit generated parameter data with length LenPar=  1745.

 GradGradGradGradGradGradGradGradGradGradGradGradGradGradGradGradGradGrad
 Berny optimization.
 Initialization pass.
 No Z-matrix variables, so optimization will use Cartesian coordinates.
 Trust Radius=1.00D-01 FncErr=1.00D-07 GrdErr=1.00D-07
 Number of steps in this run=   2 maximum allowed number of steps=   2.
 GradGradGradGradGradGradGradGradGradGradGradGradGradGradGradGradGradGrad

                          Input orientation:                          
 ---------------------------------------------------------------------
 Center     Atomic     Atomic              Coordinates (Angstroms)
 Number     Number      Type              X           Y           Z
 ---------------------------------------------------------------------
    1          6      10061003        1.226744   -1.429209    0.074535
    2          6      10061003        1.135744    0.116791   -0.009465
    3          7      10071000       -0.245256    0.684791   -0.036465
    4          6      10061003       -1.017256    0.281791   -1.242465
    5          1      10011000        2.277744   -1.726209    0.088535
    6          1      10011000        0.751744   -1.791209    0.986535
    7          1      10011000        0.747744   -1.888209   -0.790465
    8          1      10011000        1.670744    0.533791    0.849535
    9          1      10011000        1.666744    0.437791   -0.910465
   10          6      10061003       -1.010256    0.416791    1.209535
   11          1      10011000       -1.950256    0.848791   -1.292465
   12          1      10011000       -0.441256    0.490791   -2.146465
   13          1      10011000       -1.259256   -0.782209   -1.214465
   14          1      10011000       -0.131256    1.702791   -0.092465
   15          1      10011000       -0.430256    0.722791    2.082535
   16          1      10011000       -1.252256   -0.644209    1.299535
   17          1      10011000       -1.943256    0.984791    1.202535
 ---------------------------------------------------------------------
                    Distance matrix (angstroms):
                    1          2          3          4          5
     1  C    0.000000
     2  C    1.550952   0.000000
     3  N    2.578391   1.493491   0.000000
     4  C    3.114088   2.486548   1.487558   0.000000
     5  H    1.092248   2.170350   3.492002   4.081746   0.000000
     6  H    1.090144   2.186306   2.858516   3.520672   1.771808
     7  H    1.090113   2.186442   2.859177   2.833448   1.771944
     8  H    2.156648   1.094530   2.116330   3.415452   2.460726
     9  H    2.156273   1.093985   2.116750   2.708951   2.460532
    10  C    3.114500   2.486217   1.486461   2.455724   4.081670
    11  H    4.141413   3.421302   2.124019   1.092922   5.139433
    12  H    3.376606   2.682084   2.127945   1.092096   4.159721
    13  H    2.874078   2.827764   2.137281   1.091533   3.885784
    14  H    3.417818   2.031643   1.025893   2.031437   4.194530
    15  H    3.377694   2.682547   2.127400   3.405095   4.160156
    16  H    2.874420   2.827569   2.136630   2.715597   3.885633
    17  H    4.141096   3.420908   2.123282   2.707344   5.138809
                    6          7          8          9         10
     6  H    0.000000
     7  H    1.779650   0.000000
     8  H    2.503788   3.067183   0.000000
     9  H    3.066639   2.503844   1.762621   0.000000
    10  C    2.833661   3.521873   2.707591   3.414846   0.000000
    11  H    4.411830   3.875871   4.218890   3.660264   2.707439
    12  H    4.055424   2.985314   3.665844   2.444211   3.404699
    13  H    3.147476   2.330464   3.817964   3.184697   2.715765
    14  H    3.761910   3.762330   2.345449   2.345667   2.030183
    15  H    2.986392   4.056986   2.443402   3.665608   1.091863
    16  H    2.330149   3.148910   3.183412   3.817772   1.091964
    17  H    3.875030   4.412217   3.659099   4.218540   1.092320
                   11         12         13         14         15
    11  H    0.000000
    12  H    1.770469   0.000000
    13  H    1.773056   1.777154   0.000000
    14  H    2.340529   2.404986   2.950677   0.000000
    15  H    3.703633   4.235373   3.717859   2.404252   0.000000
    16  H    3.071598   3.717642   2.517794   2.950036   1.776925
    17  H    2.498714   3.703490   3.071162   2.340063   1.769806
                   16         17
    16  H    0.000000
    17  H    1.772154   0.000000
 Stoichiometry    C4H12N(1+)
 Framework group  C1[X(C4H12N)]
 Deg. of freedom    45
 Full point group                 C1
 Largest Abelian subgroup         C1      NOp   1
 Largest concise Abelian subgroup C1      NOp   1
                         Standard orientation:                         
 ---------------------------------------------------------------------
 Center     Atomic     Atomic              Coordinates (Angstroms)
 Number     Number      Type              X           Y           Z
 ---------------------------------------------------------------------
    1          6      10061003        1.815416    0.000263   -0.507308
    2          6      10061003        0.878822   -0.000680    0.728914
    3          7      10071000       -0.585175   -0.000491    0.433576
    4          6      10061003       -1.036647    1.228376   -0.272745
    5          1      10011000        2.854270   -0.000790   -0.169987
    6          1      10011000        1.647130   -0.888873   -1.115199
    7          1      10011000        1.648083    0.890776   -1.113388
    8          1      10011000        1.115857   -0.883073    1.331568
    9          1      10011000        1.116729    0.879547    1.333401
   10          6      10061003       -1.037372   -1.227347   -0.273464
   11          1      10011000       -2.128386    1.250125   -0.318699
   12          1      10011000       -0.699221    2.117617    0.263973
   13          1      10011000       -0.646076    1.259783   -1.291524
   14          1      10011000       -1.057366   -0.000991    1.344340
   15          1      10011000       -0.700899   -2.117755    0.261443
   16          1      10011000       -0.646737   -1.258011   -1.292703
   17          1      10011000       -2.128466   -1.248588   -0.320634
 ---------------------------------------------------------------------
 Rotational constants (GHZ):      6.2984780      3.7937178      3.1114311
 Standard basis: Dummy (5D, 7F)
 There are    17 symmetry adapted basis functions of A   symmetry.
 Integral buffers will be    262144 words long.
 Raffenetti 1 integral format.
 Two-electron integral symmetry is turned on.
    17 basis functions,    17 primitive gaussians,    17 cartesian basis functions
    10 alpha electrons       10 beta electrons
       nuclear repulsion energy        47.5894540489 Hartrees.
 NAtoms=   17 NActive=   17 NUniq=   17 SFac= 7.50D-01 NAtFMM=   80 NAOKFM=F Big=F
 Dreiding calculation of energy and first derivatives.
 MO and density RWFs will be updated without deorthogonalization.
 NRF= 0 NRA=   0 NVA=  17 HaveQM=F
 Convergence limit is  0.750E-04 MaxStp=  5000 StMxLn= 1.00D-04 StpMin= 1.00D-06.
 Convergence criteria           0.00011250 0.00007500 0.00045000 0.00030000
  Step  NS  ND Rises OKQ   Scale  Max. Force  RMS Force Max. Disp.  RMS Disp.     Energy   Flag
     1   0   0   F    T  1.00D+00 0.02582774 0.00838988 0.02582774 0.00838988    0.0528114 ----
     2   0   0   F    F  6.14D-01 0.02582774 0.00838988 0.02582774 0.00838988    0.0503239 ----
     3   0   0   F    T  5.08D+00 0.00605233 0.00254989 0.00830386 0.00266506    0.0498998 ----
     4   0   0   F    F -4.53D-01 0.00605233 0.00254989 0.04219457 0.01354199    0.0497546 ----
     5   0   0   F    T  3.79D+00 0.00458175 0.00162706 0.00506751 0.00195641    0.0494392 ----
     6   0   0   F    F -4.34D-01 0.00458175 0.00162706 0.01918614 0.00740718    0.0493793 ----
     7   0   0   F    T  3.65D+00 0.00340813 0.00094445 0.00285523 0.00115084    0.0492945 ----
     8   0   0   F    F -2.06D-01 0.00340813 0.00094445 0.01040735 0.00419484    0.0492332 ----
     9   0   0   F    T  2.08D+00 0.00288011 0.00098762 0.00406429 0.00160009    0.0492287 ----
    10   0   0   F    F  4.40D-01 0.00288011 0.00098762 0.00845692 0.00332945    0.0491611 ----
    11   0   0   F    T  2.84D+00 0.00306571 0.00092640 0.00435817 0.00168627    0.0491542 ----
    12   0   0   F    F  3.00D-01 0.00306571 0.00092640 0.01239087 0.00479429    0.0490775 ----
    13   0   0   F    T  5.81D+00 0.00187204 0.00065755 0.00333056 0.00107342    0.0490732 ----
    14   0   0   F    F -4.80D-01 0.00187204 0.00065755 0.01934328 0.00623426    0.0490682 ----
    15   0   0   F    T  2.26D+00 0.00296983 0.00070928 0.00463030 0.00143469    0.0490399 ----
    16   0   0   F    F  4.75D-01 0.00296983 0.00070928 0.01046851 0.00324365    0.0490016 ----
    17   0   0   F    T  4.08D+00 0.00140359 0.00059343 0.00351368 0.00117166    0.0489972 ----
    18   0   0   F    F -3.70D-01 0.00140359 0.00059343 0.01434661 0.00478397    0.0489820 ----
    19   0   0   F    T  4.84D+00 0.00099620 0.00038174 0.00164502 0.00062224    0.0489741 ----
    20   0   0   T    F  4.80D-01 0.00099620 0.00038174 0.00796904 0.00301432    0.0489756 ----
    21   0   0   F    T  3.67D+00 0.00074901 0.00026210 0.00075250 0.00039387    0.0489654 ----
    22   0   0   F    F  6.15D-01 0.00074901 0.00026210 0.00276408 0.00144674    0.0489566 ----
    23   0   0   F    T  3.57D+00 0.00109003 0.00031595 0.00178422 0.00065415    0.0489551 ----
    24   0   0   T    F  3.81D-01 0.00109003 0.00031595 0.00637352 0.00233672    0.0489607 ----
    25   0   0   F    T  9.43D+00 0.00024823 0.00008275 0.00026437 0.00009438    0.0489516 --++
    26   0   0   T    F  2.40D-01 0.00024823 0.00008275 0.00249386 0.00089032    0.0489552 ----
    27   0   0   F    T  1.88D+00 0.00024056 0.00007762 0.00033416 0.00011368    0.0489512 --++
    28   0   0   F    F  1.96D+00 0.00024056 0.00007762 0.00062922 0.00021406    0.0489507 ---+
    29   0   0   F    T  1.13D+01 0.00012827 0.00004325 0.00014008 0.00005583    0.0489503 -+++
    30   0   0   T    F  2.33D-01 0.00012827 0.00004325 0.00158790 0.00063282    0.0489516 -+--
    31   0   0   F    T  2.08D+00 0.00010849 0.00004342 0.00024965 0.00007106    0.0489502 ====
 Energy=    0.048950218512 NIter=   0.
 Dipole moment=       0.000000       0.000000       0.000000
 ***** Axes restored to original set *****
 -------------------------------------------------------------------
 Center     Atomic                   Forces (Hartrees/Bohr)
 Number     Number              X              Y              Z
 -------------------------------------------------------------------
    1          6           0.000023882    0.000044630   -0.000003710
    2          6          -0.000016097   -0.000077021   -0.000001208
    3          7           0.000030566   -0.000045770    0.000014371
    4          6          -0.000043801    0.000109336    0.000079997
    5          1           0.000049634   -0.000016976    0.000001511
    6          1          -0.000016644   -0.000007781    0.000043412
    7          1          -0.000017312   -0.000012513   -0.000038832
    8          1           0.000020744    0.000018165   -0.000006060
    9          1           0.000021995    0.000017412    0.000005420
   10          6          -0.000048066    0.000099621   -0.000096695
   11          1           0.000020534   -0.000038070    0.000108596
   12          1           0.000009779   -0.000022259   -0.000013406
   13          1          -0.000020938   -0.000009749   -0.000032909
   14          1          -0.000027812    0.000021683   -0.000004676
   15          1           0.000020696   -0.000017408    0.000020282
   16          1          -0.000022374   -0.000018033    0.000030121
   17          1           0.000015213   -0.000045266   -0.000106214
 -------------------------------------------------------------------
 Cartesian Forces:  Max     0.000109336 RMS     0.000043424

 GradGradGradGradGradGradGradGradGradGradGradGradGradGradGradGradGradGrad
 Berny optimization.
 Search for a local minimum.
 Step number   1 out of a maximum of   2
 All quantities printed in internal units (Hartrees-Bohrs-Radians)
 Second derivative matrix not updated -- unit matrix used.
 RFO step:  Lambda=-9.61696565D-08.
 Linear search not attempted -- first point.
 TrRot=  0.000000  0.000000  0.000000  0.000000  0.000000  0.000000
 Variable       Old X    -DE/DX   Delta X   Delta X   Delta X     New X
                                 (Linear)    (Quad)   (Total)
    X1        2.35205   0.00002   0.00000   0.00002   0.00002   2.35207
    Y1       -2.71794   0.00004   0.00000   0.00004   0.00004  -2.71790
    Z1        0.14199   0.00000   0.00000   0.00000   0.00000   0.14199
    X2        2.07082  -0.00002   0.00000  -0.00002  -0.00002   2.07081
    Y2        0.19840  -0.00008   0.00000  -0.00008  -0.00008   0.19833
    Z2       -0.01606   0.00000   0.00000   0.00000   0.00000  -0.01606
    X3       -0.47691   0.00003   0.00000   0.00003   0.00003  -0.47687
    Y3        1.28879  -0.00005   0.00000  -0.00005  -0.00005   1.28875
    Z3       -0.06906   0.00001   0.00000   0.00001   0.00001  -0.06904
    X4       -1.91216  -0.00004   0.00000  -0.00004  -0.00004  -1.91220
    Y4        0.56698   0.00011   0.00000   0.00011   0.00011   0.56709
    Z4       -2.30431   0.00008   0.00000   0.00008   0.00008  -2.30423
    X5        4.35407   0.00005   0.00000   0.00005   0.00005   4.35412
    Y5       -3.21670  -0.00002   0.00000  -0.00002  -0.00002  -3.21672
    Z5        0.16460   0.00000   0.00000   0.00000   0.00000   0.16460
    X6        1.49233  -0.00002   0.00000  -0.00002  -0.00002   1.49231
    Y6       -3.45084  -0.00001   0.00000  -0.00001  -0.00001  -3.45084
    Z6        1.86498   0.00004   0.00000   0.00004   0.00004   1.86503
    X7        1.48479  -0.00002   0.00000  -0.00002  -0.00002   1.48477
    Y7       -3.63320  -0.00001   0.00000  -0.00001  -0.00001  -3.63321
    Z7       -1.48748  -0.00004   0.00000  -0.00004  -0.00004  -1.48752
    X8        3.11852   0.00002   0.00000   0.00002   0.00002   3.11854
    Y8        0.98664   0.00002   0.00000   0.00002   0.00002   0.98666
    Z8        1.58885  -0.00001   0.00000  -0.00001  -0.00001   1.58884
    X9        3.11015   0.00002   0.00000   0.00002   0.00002   3.11017
    Y9        0.80738   0.00002   0.00000   0.00002   0.00002   0.80740
    Z9       -1.70239   0.00001   0.00000   0.00001   0.00001  -1.70239
   X10       -1.90011  -0.00005   0.00000  -0.00005  -0.00005  -1.90016
   Y10        0.81589   0.00010   0.00000   0.00010   0.00010   0.81599
   Z10        2.23924  -0.00010   0.00000  -0.00010  -0.00010   2.23914
   X11       -3.67729   0.00002   0.00000   0.00002   0.00002  -3.67726
   Y11        1.63938  -0.00004   0.00000  -0.00004  -0.00004   1.63934
   Z11       -2.43374   0.00011   0.00000   0.00011   0.00011  -2.43363
   X12       -0.85401   0.00001   0.00000   0.00001   0.00001  -0.85400
   Y12        0.95520  -0.00002   0.00000  -0.00002  -0.00002   0.95518
   Z12       -4.03836  -0.00001   0.00000  -0.00001  -0.00001  -4.03838
   X13       -2.40741  -0.00002   0.00000  -0.00002  -0.00002  -2.40744
   Y13       -1.43887  -0.00001   0.00000  -0.00001  -0.00001  -1.43888
   Z13       -2.29830  -0.00003   0.00000  -0.00003  -0.00003  -2.29833
   X14       -0.24646  -0.00003   0.00000  -0.00003  -0.00003  -0.24649
   Y14        3.12544   0.00002   0.00000   0.00002   0.00002   3.12546
   Z14       -0.17024   0.00000   0.00000   0.00000   0.00000  -0.17024
   X15       -0.83320   0.00002   0.00000   0.00002   0.00002  -0.83318
   Y15        1.39132  -0.00002   0.00000  -0.00002  -0.00002   1.39131
   Z15        3.91487   0.00002   0.00000   0.00002   0.00002   3.91489
   X16       -2.39441  -0.00002   0.00000  -0.00002  -0.00002  -2.39444
   Y16       -1.17849  -0.00002   0.00000  -0.00002  -0.00002  -1.17851
   Z16        2.45529   0.00003   0.00000   0.00003   0.00003   2.45532
   X17       -3.66505   0.00002   0.00000   0.00002   0.00002  -3.66504
   Y17        1.89613  -0.00005   0.00000  -0.00005  -0.00005   1.89609
   Z17        2.25989  -0.00011   0.00000  -0.00011  -0.00011   2.25979
         Item               Value     Threshold  Converged?
 Maximum Force            0.000109     0.000450     YES
 RMS     Force            0.000043     0.000300     YES
 Maximum Displacement     0.000109     0.001800     YES
 RMS     Displacement     0.000043     0.001200     YES
 Predicted change in Energy=-4.808482D-08
 Optimization completed.
    -- Stationary point found.
 GradGradGradGradGradGradGradGradGradGradGradGradGradGradGradGradGradGrad

                          Input orientation:                          
 ---------------------------------------------------------------------
 Center     Atomic     Atomic              Coordinates (Angstroms)
 Number     Number      Type              X           Y           Z
 ---------------------------------------------------------------------
    1          6      10061003        1.244649   -1.438274    0.075139
    2          6      10061003        1.095832    0.104991   -0.008499
    3          7      10071000       -0.252367    0.682000   -0.036544
    4          6      10061003       -1.011870    0.300034   -1.219387
    5          1      10011000        2.304076   -1.702205    0.087101
    6          1      10011000        0.789705   -1.826104    0.986906
    7          1      10011000        0.785718   -1.922607   -0.787140
    8          1      10011000        1.650251    0.522109    0.840783
    9          1      10011000        1.645820    0.427248   -0.900867
   10          6      10061003       -1.005494    0.431749    1.184953
   11          1      10011000       -1.945936    0.867522   -1.287879
   12          1      10011000       -0.451924    0.505470   -2.137010
   13          1      10011000       -1.273949   -0.761415   -1.216209
   14          1      10011000       -0.130422    1.653910   -0.090086
   15          1      10011000       -0.440908    0.736256    2.071662
   16          1      10011000       -1.267069   -0.623632    1.299283
   17          1      10011000       -1.939462    1.003389    1.195884
 ---------------------------------------------------------------------
                    Distance matrix (angstroms):
                    1          2          3          4          5
     1  C    0.000000
     2  C    1.552677   0.000000
     3  N    2.597902   1.466754   0.000000
     4  C    3.128800   2.438585   1.456660   0.000000
     5  H    1.091874   2.175994   3.497875   4.087954   0.000000
     6  H    1.090278   2.194008   2.902405   3.554415   1.765877
     7  H    1.090285   2.193992   2.902583   2.891071   1.765867
     8  H    2.143321   1.096654   2.101244   3.373501   2.437847
     9  H    2.143291   1.096657   2.101206   2.679730   2.438022
    10  C    3.129187   2.438580   1.456668   2.407954   4.088067
    11  H    4.165854   3.386830   2.113866   1.095086   5.153316
    12  H    3.398544   2.662046   2.117295   1.094428   4.173253
    13  H    2.910164   2.797335   2.125720   1.093329   3.922495
    14  H    3.388173   1.977247   0.980992   1.971104   4.149901
    15  H    3.399381   2.662168   2.117316   3.368575   4.173669
    16  H    2.910481   2.797229   2.125731   2.694808   3.922472
    17  H    4.166095   3.386838   2.113873   2.681170   5.153373
                    6          7          8          9         10
     6  H    0.000000
     7  H    1.776673   0.000000
     8  H    2.505194   3.061729   0.000000
     9  H    3.061734   2.504900   1.744237   0.000000
    10  C    2.891342   3.555359   2.679478   3.373445   0.000000
    11  H    4.462510   3.936685   4.193217   3.639276   2.681274
    12  H    4.091055   3.041293   3.645088   2.436124   3.368577
    13  H    3.200929   2.403059   3.798631   3.168187   2.694678
    14  H    3.757265   3.757215   2.306141   2.305884   1.971080
    15  H    3.042498   4.092299   2.435954   3.644976   1.094411
    16  H    2.402881   3.202254   3.167602   3.798675   1.093307
    17  H    3.936757   4.463232   3.639199   4.193156   1.095075
                   11         12         13         14         15
    11  H    0.000000
    12  H    1.756182   0.000000
    13  H    1.763558   1.768783   0.000000
    14  H    2.312835   2.369003   2.899931   0.000000
    15  H    3.683593   4.215009   3.707705   2.368891   0.000000
    16  H    3.062321   3.707754   2.519272   2.899916   1.768731
    17  H    2.487485   3.683595   3.061966   2.312904   1.756135
                   16         17
    16  H    0.000000
    17  H    1.763519   0.000000
 Stoichiometry    C4H12N(1+)
 Framework group  C1[X(C4H12N)]
 Deg. of freedom    45
 Full point group                 C1
 Largest Abelian subgroup         C1      NOp   1
 Largest concise Abelian subgroup C1      NOp   1
                         Standard orientation:                         
 ---------------------------------------------------------------------
 Center     Atomic     Atomic              Coordinates (Angstroms)
 Number     Number      Type              X           Y           Z
 ---------------------------------------------------------------------
    1          6      10061003        1.843455   -0.000029   -0.483753
    2          6      10061003        0.846887   -0.000434    0.706901
    3          7      10071000       -0.591760    0.000001    0.421133
    4          6      10061003       -1.036215    1.204187   -0.267528
    5          1      10011000        2.866671   -0.000668   -0.102679
    6          1      10011000        1.713169   -0.887890   -1.102975
    7          1      10011000        1.713851    0.888783   -1.101763
    8          1      10011000        1.092836   -0.872877    1.324155
    9          1      10011000        1.093148    0.871360    1.324953
   10          6      10061003       -1.036860   -1.203767   -0.267859
   11          1      10011000       -2.129050    1.244308   -0.325103
   12          1      10011000       -0.716495    2.107554    0.261130
   13          1      10011000       -0.652922    1.259806   -1.289958
   14          1      10011000       -1.041511   -0.000023    1.292953
   15          1      10011000       -0.717872   -2.107455    0.260658
   16          1      10011000       -0.653414   -1.259467   -1.290203
   17          1      10011000       -2.129698   -1.243176   -0.325671
 ---------------------------------------------------------------------
 Rotational constants (GHZ):      6.5159006      3.7944165      3.1197511
 1|1|UNPC-UNK|FOpt|Dreiding|ZDO|C4H12N1(1+)|PCUSER|28-Mar-2008|0||# opt
  dreiding||EtdiMeNH+-g||1,1|C,1.2446490948,-1.4382737824,0.0751393144|
 C,1.095832126,0.1049906095,-0.0084991112|N,-0.2523674454,0.6820002043,
 -0.036544332|C,-1.011869552,0.3000341169,-1.2193873471|H,2.3040763834,
 -1.7022048005,0.0871014862|H,0.7897048935,-1.8261039141,0.9869064174|H
 ,0.7857178368,-1.9226065019,-0.7871396522|H,1.6502514514,0.5221094408,
 0.8407830111|H,1.6458201613,0.42724768,-0.9008666715|C,-1.0054937967,0
 .4317486191,1.1849533484|H,-1.9459355737,0.8675217581,-1.2878789557|H,
 -0.4519244136,0.5054700453,-2.1370095424|H,-1.2739486943,-0.7614147484
 ,-1.2162090739|H,-0.1304215387,1.6539098365,-0.0900859221|H,-0.4409082
 091,0.736256335,2.0716624719|H,-1.2670691883,-0.6236319411,1.299283350
 6|H,-1.9394623052,1.0033889429,1.1958841681||Version=IA32W-G03RevD.01|
 HF=0.0489502|RMSD=0.000e+000|RMSF=4.342e-005|Thermal=0.|Dipole=0.,0.,0
 .|PG=C01 [X(C4H12N1)]||@


 BLESSED ARE THOSE WHO NOUGHT EXPECT,
 FOR THEY SHALL NOT BE DISAPPOINTED..  WALCOT - ODE TO PITT
 Job cpu time:  0 days  0 hours  0 minutes  2.0 seconds.
 File lengths (MBytes):  RWF=     11 Int=      0 D2E=      0 Chk=      4 Scr=      1
 Normal termination of Gaussian 03 at Fri Mar 28 18:26:48 2008.
