 Entering Link 1 = C:\G03W\l1.exe PID=      3500.
  
 Copyright (c) 1988,1990,1992,1993,1995,1998,2003,2004, Gaussian, Inc.
                  All Rights Reserved.
  
 This is the Gaussian(R) 03 program.  It is based on the
 the Gaussian(R) 98 system (copyright 1998, Gaussian, Inc.),
 the Gaussian(R) 94 system (copyright 1995, Gaussian, Inc.),
 the Gaussian 92(TM) system (copyright 1992, Gaussian, Inc.),
 the Gaussian 90(TM) system (copyright 1990, Gaussian, Inc.),
 the Gaussian 88(TM) system (copyright 1988, Gaussian, Inc.),
 the Gaussian 86(TM) system (copyright 1986, Carnegie Mellon
 University), and the Gaussian 82(TM) system (copyright 1983,
 Carnegie Mellon University). Gaussian is a federally registered
 trademark of Gaussian, Inc.
  
 This software contains proprietary and confidential information,
 including trade secrets, belonging to Gaussian, Inc.
  
 This software is provided under written license and may be
 used, copied, transmitted, or stored only in accord with that
 written license.
  
 The following legend is applicable only to US Government
 contracts under FAR:
  
                    RESTRICTED RIGHTS LEGEND
  
 Use, reproduction and disclosure by the US Government is
 subject to restrictions as set forth in subparagraphs (a)
 and (c) of the Commercial Computer Software - Restricted
 Rights clause in FAR 52.227-19.
  
 Gaussian, Inc.
 340 Quinnipiac St., Bldg. 40, Wallingford CT 06492
  
  
 ---------------------------------------------------------------
 Warning -- This program may not be used in any manner that
 competes with the business of Gaussian, Inc. or will provide
 assistance to any competitor of Gaussian, Inc.  The licensee
 of this program is prohibited from giving any competitor of
 Gaussian, Inc. access to this program.  By using this program,
 the user acknowledges that Gaussian, Inc. is engaged in the
 business of creating and licensing software in the field of
 computational chemistry and represents and warrants to the
 licensee that it is not a competitor of Gaussian, Inc. and that
 it will not use this program in any manner prohibited above.
 ---------------------------------------------------------------
  

 Cite this work as:
 Gaussian 03, Revision D.01,
 M. J. Frisch, G. W. Trucks, H. B. Schlegel, G. E. Scuseria, 
 M. A. Robb, J. R. Cheeseman, J. A. Montgomery, Jr., T. Vreven, 
 K. N. Kudin, J. C. Burant, J. M. Millam, S. S. Iyengar, J. Tomasi, 
 V. Barone, B. Mennucci, M. Cossi, G. Scalmani, N. Rega, 
 G. A. Petersson, H. Nakatsuji, M. Hada, M. Ehara, K. Toyota, 
 R. Fukuda, J. Hasegawa, M. Ishida, T. Nakajima, Y. Honda, O. Kitao, 
 H. Nakai, M. Klene, X. Li, J. E. Knox, H. P. Hratchian, J. B. Cross, 
 V. Bakken, C. Adamo, J. Jaramillo, R. Gomperts, R. E. Stratmann, 
 O. Yazyev, A. J. Austin, R. Cammi, C. Pomelli, J. W. Ochterski, 
 P. Y. Ayala, K. Morokuma, G. A. Voth, P. Salvador, J. J. Dannenberg, 
 V. G. Zakrzewski, S. Dapprich, A. D. Daniels, M. C. Strain, 
 O. Farkas, D. K. Malick, A. D. Rabuck, K. Raghavachari, 
 J. B. Foresman, J. V. Ortiz, Q. Cui, A. G. Baboul, S. Clifford, 
 J. Cioslowski, B. B. Stefanov, G. Liu, A. Liashenko, P. Piskorz, 
 I. Komaromi, R. L. Martin, D. J. Fox, T. Keith, M. A. Al-Laham, 
 C. Y. Peng, A. Nanayakkara, M. Challacombe, P. M. W. Gill, 
 B. Johnson, W. Chen, M. W. Wong, C. Gonzalez, and J. A. Pople, 
 Gaussian, Inc., Wallingford CT, 2004.
 
 ******************************************
 Gaussian 03:  IA32W-G03RevD.01 13-Oct-2005
                28-Mar-2008 
 ******************************************
 --------------
 # opt dreiding
 --------------
 1/6=10,10=10,14=-1,18=4000020,38=1,56=1,64=1/1,3;
 2/9=110,17=6,18=5,40=1/2;
 3/5=30,11=9,16=1,25=1,30=1/1;
 4/20=9,22=1001,24=3/2;
 7/44=-1/16;
 1/6=10,10=10,14=-1,18=4000020,64=1/3(2);
 2/9=110/2;
 99//99;
 2/9=110/2;
 3/5=30,11=9,16=1,25=1,30=1/1;
 4/16=2,20=9,22=1001,24=3/2;
 7/44=-1/16;
 1/6=10,10=10,14=-1,18=4000020,64=1/3(-4);
 2/9=110/2;
 99//99;
 ------------------
 ethanediamineH+-Gg
 ------------------
 Symbolic Z-matrix:
 Charge =  1 Multiplicity = 1
 C                    -0.55091  -0.81486   0.04734 
 C                    -0.61891   0.68814   0.33534 
 N                     0.31209   1.35314  -0.63066 
 N                     0.76809  -1.34186   0.29634 
 H                    -1.26691  -1.35586   0.70934 
 H                    -0.83391  -1.03086  -1.01066 
 H                    -1.64691   1.08614   0.17334 
 H                    -0.29191   0.92214   1.37534 
 H                     0.04609   1.16614  -1.62066 
 H                     0.78009  -2.35486   0.18534 
 H                     0.32309   2.38914  -0.51066 
 H                     1.05409  -1.16586   1.25834 
 H                     1.29409   1.02514  -0.51566 
 
 I=    3 IAn=  7 Valence= 4.
          JB=  1 J=    2 IAn=  6 IBT= 1 Dist= 1.50D+00
          JB=  2 J=    9 IAn=  1 IBT= 1 Dist= 1.04D+00
          JB=  3 J=   11 IAn=  1 IBT= 1 Dist= 1.04D+00
          JB=  4 J=   13 IAn=  1 IBT= 1 Dist= 1.04D+00
 Include all MM classes
 MMInit generated parameter data with length LenPar=  1283.

 GradGradGradGradGradGradGradGradGradGradGradGradGradGradGradGradGradGrad
 Berny optimization.
 Initialization pass.
 No Z-matrix variables, so optimization will use Cartesian coordinates.
 Trust Radius=1.00D-01 FncErr=1.00D-07 GrdErr=1.00D-07
 Number of steps in this run=   2 maximum allowed number of steps=   2.
 GradGradGradGradGradGradGradGradGradGradGradGradGradGradGradGradGradGrad

                          Input orientation:                          
 ---------------------------------------------------------------------
 Center     Atomic     Atomic              Coordinates (Angstroms)
 Number     Number      Type              X           Y           Z
 ---------------------------------------------------------------------
    1          6      10061003       -0.550914   -0.814857    0.047343
    2          6      10061003       -0.618914    0.688143    0.335343
    3          7      10071000        0.312086    1.353143   -0.630657
    4          7      10071003        0.768086   -1.341857    0.296343
    5          1      10011000       -1.266914   -1.355857    0.709343
    6          1      10011000       -0.833914   -1.030857   -1.010657
    7          1      10011000       -1.646914    1.086143    0.173343
    8          1      10011000       -0.291914    0.922143    1.375343
    9          1      10011000        0.046086    1.166143   -1.620657
   10          1      10011000        0.780086   -2.354857    0.185343
   11          1      10011000        0.323086    2.389143   -0.510657
   12          1      10011000        1.054086   -1.165857    1.258343
   13          1      10011000        1.294086    1.025143   -0.515657
 ---------------------------------------------------------------------
                    Distance matrix (angstroms):
                    1          2          3          4          5
     1  C    0.000000
     2  C    1.531854   0.000000
     3  N    2.429954   1.497378   0.000000
     4  N    1.442044   2.458900   2.886224   0.000000
     5  H    1.115160   2.176630   3.409915   2.076533   0.000000
     6  H    1.116293   2.193833   2.672297   2.090783   1.803195
     7  H    2.197929   1.114196   2.134335   3.426739   2.528846
     8  H    2.201780   1.115027   2.138834   2.722781   2.565826
     9  H    2.657629   2.120529   1.042029   3.238246   3.676051
    10  H    2.040148   3.352544   3.825460   1.019134   2.337260
    11  H    3.367619   2.120491   1.042985   3.843128   4.247532
    12  H    2.041016   2.662362   3.234849   1.018929   2.392602
    13  H    2.665820   2.120693   1.041697   2.557090   3.705200
                    6          7          8          9         10
     6  H    0.000000
     7  H    2.558225   0.000000
     8  H    3.130650   1.818715   0.000000
     9  H    2.444035   2.468012   3.024863   0.000000
    10  H    2.405907   4.210814   3.647467   4.024653   0.000000
    11  H    3.644866   2.458976   2.467247   1.674681   4.816513
    12  H    2.954849   3.680235   2.486996   3.839652   1.624846
    13  H    3.000091   3.021245   2.470200   1.672845   3.489985
                   11         12         13
    11  H    0.000000
    12  H    4.037542   0.000000
    13  H    1.674324   2.829339   0.000000
 Stoichiometry    C2H9N2(1+)
 Framework group  C1[X(C2H9N2)]
 Deg. of freedom    33
 Full point group                 C1
 Largest Abelian subgroup         C1      NOp   1
 Largest concise Abelian subgroup C1      NOp   1
                         Standard orientation:                         
 ---------------------------------------------------------------------
 Center     Atomic     Atomic              Coordinates (Angstroms)
 Number     Number      Type              X           Y           Z
 ---------------------------------------------------------------------
    1          6      10061003        0.738018    0.562196    0.330158
    2          6      10061003       -0.641365    0.671356   -0.327080
    3          7      10071000       -1.428575   -0.518993    0.126253
    4          7      10071003        1.445821   -0.611624   -0.117785
    5          1      10011000        1.351346    1.454762    0.064192
    6          1      10011000        0.647780    0.528837    1.442297
    7          1      10011000       -1.172634    1.595930   -0.004050
    8          1      10011000       -0.568404    0.656910   -1.439623
    9          1      10011000       -1.527675   -0.549475    1.163111
   10          1      10011000        2.393051   -0.628537    0.257853
   11          1      10011000       -2.393236   -0.522045   -0.270280
   12          1      10011000        1.550487   -0.608159   -1.131318
   13          1      10011000       -0.981351   -1.415222   -0.159924
 ---------------------------------------------------------------------
 Rotational constants (GHZ):     13.6621149      5.0229674      4.2984373
 Standard basis: Dummy (5D, 7F)
 There are    13 symmetry adapted basis functions of A   symmetry.
 Integral buffers will be    262144 words long.
 Raffenetti 1 integral format.
 Two-electron integral symmetry is turned on.
    13 basis functions,    13 primitive gaussians,    13 cartesian basis functions
     7 alpha electrons        7 beta electrons
       nuclear repulsion energy        26.1638016079 Hartrees.
 NAtoms=   13 NActive=   13 NUniq=   13 SFac= 7.50D-01 NAtFMM=   80 NAOKFM=F Big=F
 Dreiding calculation of energy and first derivatives.
 MO and density RWFs will be updated without deorthogonalization.
 NRF= 0 NRA=   0 NVA=  13 HaveQM=F
 Convergence limit is  0.750E-04 MaxStp=  5000 StMxLn= 1.00D-04 StpMin= 1.00D-06.
 Convergence criteria           0.00011250 0.00007500 0.00045000 0.00030000
  Step  NS  ND Rises OKQ   Scale  Max. Force  RMS Force Max. Disp.  RMS Disp.     Energy   Flag
     1   0   0   F    T  1.00D+00 0.04075791 0.01775309 0.04075791 0.01775309    0.0457954 ----
     2   0   0   F    F  7.38D-01 0.04075791 0.01775309 0.04075791 0.01775309    0.0370183 ----
     3   0   0   F    T  3.23D+00 0.02432370 0.00859482 0.02389970 0.00954908    0.0350776 ----
     4   0   0   F    F -3.58D-01 0.02432370 0.00859482 0.07723047 0.03085727    0.0330137 ----
     5   0   0   F    T  4.26D+00 0.01248007 0.00411868 0.01589241 0.00465683    0.0320871 ----
     6   0   0   F    F -3.73D-01 0.01248007 0.00411868 0.06764573 0.01982169    0.0315144 ----
     7   0   0   F    T  3.28D+00 0.00947066 0.00295037 0.00862406 0.00379231    0.0312054 ----
     8   0   0   F    F -1.22D-01 0.00947066 0.00295037 0.02828213 0.01243666    0.0307266 ----
     9   0   0   F    T  2.32D+00 0.00745789 0.00291190 0.01111247 0.00471045    0.0307173 ----
    10   0   0   F    F  3.93D-01 0.00745789 0.00291190 0.02576842 0.01092293    0.0302248 ----
    11   0   0   F    T  3.69D+00 0.00569426 0.00243812 0.00967118 0.00412097    0.0301821 ----
    12   0   0   F    F -1.17D-02 0.00569426 0.00243812 0.03571856 0.01521995    0.0297585 ----
    13   0   0   F    T  3.84D+00 0.00593261 0.00217505 0.00917004 0.00391511    0.0297585 ----
    14   0   0   F    F -3.98D-01 0.00593261 0.00217505 0.03523022 0.01504138    0.0296384 ----
    15   0   0   F    T  2.75D+00 0.00389691 0.00181773 0.00893699 0.00328995    0.0295452 ----
    16   0   0   F    F  3.76D-01 0.00389691 0.00181773 0.02459135 0.00905275    0.0293200 ----
    17   0   0   F    T  3.64D+00 0.00389733 0.00171734 0.00912731 0.00341943    0.0293020 ----
    18   0   0   F    F -4.03D-01 0.00389733 0.00171734 0.03324542 0.01245496    0.0292339 ----
    19   0   0   F    T  3.53D+00 0.00307378 0.00121094 0.00490636 0.00210551    0.0291770 ----
    20   0   0   F    F  4.39D-01 0.00307378 0.00121094 0.01732468 0.00743470    0.0290455 ----
    21   0   0   F    T  3.83D+00 0.00285677 0.00130485 0.00580674 0.00279111    0.0290320 ----
    22   0   0   F    F -3.23D-01 0.00285677 0.00130485 0.02225251 0.01069607    0.0289655 ----
    23   0   0   F    T  6.07D+00 0.00199811 0.00074916 0.00270245 0.00119300    0.0289457 ----
    24   0   0   T    F  2.50D-01 0.00199811 0.00074916 0.01639862 0.00723922    0.0290790 ----
    25   0   0   F    T  4.02D+00 0.00093596 0.00035967 0.00128879 0.00045059    0.0289291 ----
    26   0   0   F    F  5.70D-01 0.00093596 0.00035967 0.00517765 0.00181022    0.0289153 ----
    27   0   0   F    T  3.35D+00 0.00102065 0.00045406 0.00197757 0.00084939    0.0289132 ----
    28   0   0   F    F -4.58D-01 0.00102065 0.00045406 0.00661618 0.00284171    0.0289111 ----
    29   0   0   F    T  3.36D+00 0.00063762 0.00029300 0.00110831 0.00045903    0.0289059 ----
    30   0   0   F    F  9.40D-02 0.00063762 0.00029300 0.00371997 0.00154069    0.0288998 ----
    31   0   0   F    T  3.18D+00 0.00089982 0.00028853 0.00142295 0.00053054    0.0288998 ----
    32   0   0   F    F -3.31D-01 0.00089982 0.00028853 0.00452079 0.00168555    0.0288972 ----
    33   0   0   F    T  5.62D+00 0.00031423 0.00014690 0.00061719 0.00020065    0.0288963 ---+
    34   0   0   F    F  1.14D-01 0.00031423 0.00014690 0.00346628 0.00112689    0.0288937 ----
    35   0   0   F    T  1.79D+00 0.00067341 0.00026414 0.00231103 0.00070053    0.0288937 ----
    36   0   0   F    F  1.50D+00 0.00067341 0.00026414 0.00414090 0.00125521    0.0288898 ----
    37   0   0   F    T  6.30D+00 0.00044241 0.00021141 0.00167229 0.00049797    0.0288876 ----
    38   0   0   T    F  4.67D-01 0.00044241 0.00021141 0.01054128 0.00313898    0.0288884 ----
    39   0   0   F    T  2.60D+00 0.00066295 0.00021634 0.00179347 0.00056438    0.0288850 ----
    40   0   0   F    F  1.39D-01 0.00066295 0.00021634 0.00465431 0.00146465    0.0288824 ----
    41   0   0   F    T  2.73D+00 0.00061122 0.00021778 0.00178713 0.00061125    0.0288823 ----
    42   0   0   F    F  2.59D-01 0.00061122 0.00021778 0.00487784 0.00166835    0.0288793 ----
    43   0   0   F    T  5.38D+00 0.00041513 0.00016546 0.00110596 0.00039064    0.0288791 ----
    44   0   0   F    F -2.34D-01 0.00041513 0.00016546 0.00594738 0.00210069    0.0288772 ----
    45   0   0   F    T  3.69D+00 0.00039313 0.00016763 0.00120224 0.00043535    0.0288770 ----
    46   0   0   F    T  2.28D+00 0.00058121 0.00020919 0.00177800 0.00070462    0.0288749 ----
    47   0   0   F    F  4.51D-01 0.00058121 0.00020919 0.00405823 0.00160827    0.0288723 ----
    48   0   0   F    T  5.08D+00 0.00041269 0.00016047 0.00118325 0.00045941    0.0288720 ----
    49   0   0   F    F -3.75D-01 0.00041269 0.00016047 0.00601083 0.00233375    0.0288710 ----
    50   0   0   F    T  2.67D+00 0.00039483 0.00017100 0.00157099 0.00054662    0.0288705 ----
    51   0   0   F    F  8.27D-01 0.00039483 0.00017100 0.00419164 0.00145848    0.0288682 ----
    52   0   0   F    T  4.72D+00 0.00049903 0.00016914 0.00172975 0.00056431    0.0288677 ----
    53   0   0   T    F  3.20D-01 0.00049903 0.00016914 0.00816917 0.00266510    0.0288706 ----
    54   0   0   F    T  5.55D+00 0.00017755 0.00008126 0.00052873 0.00015365    0.0288668 ---+
    55   0   0   F    F -3.68D-01 0.00017755 0.00008126 0.00293619 0.00085328    0.0288665 ----
    56   0   0   F    T  3.82D+00 0.00020721 0.00007226 0.00047852 0.00014125    0.0288664 -+-+
    57   0   0   F    F -4.16D-01 0.00020721 0.00007226 0.00182577 0.00053895    0.0288663 -+--
    58   0   0   F    T  4.63D+00 0.00009073 0.00004385 0.00019847 0.00006799    0.0288662 ====
 Energy=    0.028866152350 NIter=   0.
 Dipole moment=       0.000000       0.000000       0.000000
 ***** Axes restored to original set *****
 -------------------------------------------------------------------
 Center     Atomic                   Forces (Hartrees/Bohr)
 Number     Number              X              Y              Z
 -------------------------------------------------------------------
    1          6          -0.000074473   -0.000039395   -0.000064553
    2          6           0.000017941    0.000046205   -0.000025248
    3          7           0.000058554    0.000013532    0.000015287
    4          7          -0.000025759   -0.000053995    0.000034909
    5          1           0.000007751    0.000065463   -0.000025793
    6          1           0.000040769    0.000032856    0.000057627
    7          1           0.000016156   -0.000074447    0.000023690
    8          1          -0.000004410   -0.000028451    0.000015927
    9          1          -0.000018531   -0.000028722    0.000076513
   10          1           0.000061837    0.000088617   -0.000000871
   11          1           0.000040378   -0.000017710   -0.000029363
   12          1          -0.000035748    0.000013526   -0.000038811
   13          1          -0.000084464   -0.000017478   -0.000039315
 -------------------------------------------------------------------
 Cartesian Forces:  Max     0.000088617 RMS     0.000043848

 GradGradGradGradGradGradGradGradGradGradGradGradGradGradGradGradGradGrad
 Berny optimization.
 Search for a local minimum.
 Step number   1 out of a maximum of   2
 All quantities printed in internal units (Hartrees-Bohrs-Radians)
 Second derivative matrix not updated -- unit matrix used.
 RFO step:  Lambda=-7.49817824D-08.
 Linear search not attempted -- first point.
 TrRot=  0.000000  0.000000  0.000000  0.000000  0.000000  0.000000
 Variable       Old X    -DE/DX   Delta X   Delta X   Delta X     New X
                                 (Linear)    (Quad)   (Total)
    X1       -1.01369  -0.00007   0.00000  -0.00007  -0.00007  -1.01376
    Y1       -1.57757  -0.00004   0.00000  -0.00004  -0.00004  -1.57761
    Z1        0.13761  -0.00006   0.00000  -0.00006  -0.00006   0.13754
    X2       -1.04463   0.00002   0.00000   0.00002   0.00002  -1.04462
    Y2        1.33767   0.00005   0.00000   0.00005   0.00005   1.33772
    Z2        0.48034  -0.00003   0.00000  -0.00003  -0.00003   0.48032
    X3        0.58211   0.00006   0.00000   0.00006   0.00006   0.58217
    Y3        2.68701   0.00001   0.00000   0.00001   0.00001   2.68702
    Z3       -1.22522   0.00002   0.00000   0.00002   0.00002  -1.22521
    X4        1.50684  -0.00003   0.00000  -0.00003  -0.00003   1.50681
    Y4       -2.68556  -0.00005   0.00000  -0.00005  -0.00005  -2.68562
    Z4        0.60541   0.00003   0.00000   0.00003   0.00003   0.60545
    X5       -2.39377   0.00001   0.00000   0.00001   0.00001  -2.39376
    Y5       -2.42283   0.00007   0.00000   0.00007   0.00007  -2.42277
    Z5        1.42688  -0.00003   0.00000  -0.00003  -0.00003   1.42685
    X6       -1.59431   0.00004   0.00000   0.00004   0.00004  -1.59427
    Y6       -2.02939   0.00003   0.00000   0.00003   0.00003  -2.02936
    Z6       -1.79371   0.00006   0.00000   0.00006   0.00006  -1.79366
    X7       -2.99283   0.00002   0.00000   0.00002   0.00002  -2.99281
    Y7        1.98845  -0.00007   0.00000  -0.00007  -0.00007   1.98837
    Z7        0.21480   0.00002   0.00000   0.00002   0.00002   0.21482
    X8       -0.51796   0.00000   0.00000   0.00000   0.00000  -0.51797
    Y8        1.77708  -0.00003   0.00000  -0.00003  -0.00003   1.77705
    Z8        2.43394   0.00002   0.00000   0.00002   0.00002   2.43395
    X9        0.12089  -0.00002   0.00000  -0.00002  -0.00002   0.12087
    Y9        2.33779  -0.00003   0.00000  -0.00003  -0.00003   2.33776
    Z9       -2.97182   0.00008   0.00000   0.00008   0.00008  -2.97175
   X10        1.41119   0.00006   0.00000   0.00006   0.00006   1.41126
   Y10       -4.59587   0.00009   0.00000   0.00009   0.00009  -4.59578
   Z10        0.29948   0.00000   0.00000   0.00000   0.00000   0.29948
   X11        0.43338   0.00004   0.00000   0.00004   0.00004   0.43342
   Y11        4.49824  -0.00002   0.00000  -0.00002  -0.00002   4.49822
   Z11       -0.93610  -0.00003   0.00000  -0.00003  -0.00003  -0.93613
   X12        1.97087  -0.00004   0.00000  -0.00004  -0.00004   1.97084
   Y12       -2.44871   0.00001   0.00000   0.00001   0.00001  -2.44870
   Z12        2.47120  -0.00004   0.00000  -0.00004  -0.00004   2.47116
   X13        2.33782  -0.00008   0.00000  -0.00008  -0.00008   2.33774
   Y13        2.20302  -0.00002   0.00000  -0.00002  -0.00002   2.20301
   Z13       -0.96808  -0.00004   0.00000  -0.00004  -0.00004  -0.96812
         Item               Value     Threshold  Converged?
 Maximum Force            0.000089     0.000450     YES
 RMS     Force            0.000044     0.000300     YES
 Maximum Displacement     0.000089     0.001800     YES
 RMS     Displacement     0.000044     0.001200     YES
 Predicted change in Energy=-3.749089D-08
 Optimization completed.
    -- Stationary point found.
 GradGradGradGradGradGradGradGradGradGradGradGradGradGradGradGradGradGrad

                          Input orientation:                          
 ---------------------------------------------------------------------
 Center     Atomic     Atomic              Coordinates (Angstroms)
 Number     Number      Type              X           Y           Z
 ---------------------------------------------------------------------
    1          6      10061003       -0.536421   -0.834815    0.072819
    2          6      10061003       -0.552796    0.707867    0.254186
    3          7      10071000        0.308038    1.421903   -0.648359
    4          7      10071003        0.797384   -1.421139    0.320369
    5          1      10011000       -1.266727   -1.282108    0.755072
    6          1      10011000       -0.843672   -1.073908   -0.949193
    7          1      10011000       -1.583738    1.052242    0.113667
    8          1      10011000       -0.274095    0.940390    1.287983
    9          1      10011000        0.063972    1.237105   -1.572621
   10          1      10011000        0.746772   -2.432032    0.158479
   11          1      10011000        0.229335    2.380364   -0.495361
   12          1      10011000        1.042940   -1.295803    1.307702
   13          1      10011000        1.237122    1.165790   -0.512286
 ---------------------------------------------------------------------
                    Distance matrix (angstroms):
                    1          2          3          4          5
     1  C    0.000000
     2  C    1.553392   0.000000
     3  N    2.515151   1.437175   0.000000
     4  N    1.477868   2.521911   3.043154   0.000000
     5  H    1.094937   2.172690   3.429458   2.113966   0.000000
     6  H    1.093653   2.169666   2.765143   2.103670   1.768288
     7  H    2.158592   1.095984   2.072716   3.439488   2.441533
     8  H    2.167208   1.095663   2.078499   2.767881   2.491748
     9  H    2.713079   1.999430   0.973642   3.344782   3.679042
    10  H    2.050616   3.399558   3.961854   1.025024   2.394248
    11  H    3.353592   1.992686   0.973781   3.929315   4.149154
    12  H    2.057141   2.769650   3.428146   1.025102   2.374900
    13  H    2.736827   2.000245   0.973296   2.752978   3.723930
                    6          7          8          9         10
     6  H    0.000000
     7  H    2.489554   0.000000
     8  H    3.063784   1.762582   0.000000
     9  H    2.559934   2.364887   2.895753   0.000000
    10  H    2.366633   4.192069   3.700159   4.114060   0.000000
    11  H    3.645449   2.328531   2.346760   1.579517   4.884096
    12  H    2.949936   3.720009   2.595289   3.958568   1.642999
    13  H    3.088177   2.891705   2.361261   1.582932   3.692518
                   11         12         13
    11  H    0.000000
    12  H    4.174588   0.000000
    13  H    1.578325   3.067491   0.000000
 Stoichiometry    C2H9N2(1+)
 Framework group  C1[X(C2H9N2)]
 Deg. of freedom    33
 Full point group                 C1
 Largest Abelian subgroup         C1      NOp   1
 Largest concise Abelian subgroup C1      NOp   1
                         Standard orientation:                         
 ---------------------------------------------------------------------
 Center     Atomic     Atomic              Coordinates (Angstroms)
 Number     Number      Type              X           Y           Z
 ---------------------------------------------------------------------
    1          6      10061003       -0.761717    0.585755   -0.286143
    2          6      10061003        0.672660    0.588650    0.310163
    3          7      10071000        1.502862   -0.497780   -0.132452
    4          7      10071003       -1.529767   -0.619836    0.089015
    5          1      10011000       -1.292173    1.480474    0.055882
    6          1      10011000       -0.691429    0.635207   -1.376414
    7          1      10011000        1.148624    1.537387    0.037147
    8          1      10011000        0.596001    0.570021    1.402983
    9          1      10011000        1.593011   -0.486939   -1.101851
   10          1      10011000       -2.451960   -0.573218   -0.356027
   11          1      10011000        2.390725   -0.419572    0.259761
   12          1      10011000       -1.693615   -0.614016    1.100920
   13          1      10011000        1.123492   -1.352466    0.137539
 ---------------------------------------------------------------------
 Rotational constants (GHZ):     14.6717568      4.6691446      4.0564537
 1|1|UNPC-UNK|FOpt|Dreiding|ZDO|C2H9N2(1+)|PCUSER|28-Mar-2008|0||# opt 
 dreiding||ethanediamineH+-Gg||1,1|C,-0.5364213354,-0.8348145278,0.0728
 188501|C,-0.5527962499,0.7078666306,0.2541860662|N,0.3080383784,1.4219
 03445,-0.6483589298|N,0.7973842639,-1.4211390112,0.3203694197|H,-1.266
 7269861,-1.28210764,0.7550718656|H,-0.8436724383,-1.0739079233,-0.9491
 930944|H,-1.5837377742,1.0522416285,0.113666563|H,-0.2740950628,0.9403
 899248,1.2879834217|H,0.0639724731,1.2371053127,-1.5726210388|H,0.7467
 7186,-2.4320315655,0.158479076|H,0.2293351533,2.380363671,-0.495360929
 9|H,1.042940122,-1.2958025195,1.3077023152|H,1.237121826,1.1657897547,
 -0.5122864045||Version=IA32W-G03RevD.01|HF=0.0288662|RMSD=0.000e+000|R
 MSF=4.385e-005|Thermal=0.|Dipole=0.,0.,0.|PG=C01 [X(C2H9N2)]||@


 BLESSED ARE THOSE WHO NOUGHT EXPECT,
 FOR THEY SHALL NOT BE DISAPPOINTED..  WALCOT - ODE TO PITT
 Job cpu time:  0 days  0 hours  0 minutes  3.0 seconds.
 File lengths (MBytes):  RWF=     11 Int=      0 D2E=      0 Chk=      4 Scr=      1
 Normal termination of Gaussian 03 at Fri Mar 28 18:26:55 2008.
