 Entering Link 1 = C:\G03W\l1.exe PID=      2660.
  
 Copyright (c) 1988,1990,1992,1993,1995,1998,2003,2004, Gaussian, Inc.
                  All Rights Reserved.
  
 This is the Gaussian(R) 03 program.  It is based on the
 the Gaussian(R) 98 system (copyright 1998, Gaussian, Inc.),
 the Gaussian(R) 94 system (copyright 1995, Gaussian, Inc.),
 the Gaussian 92(TM) system (copyright 1992, Gaussian, Inc.),
 the Gaussian 90(TM) system (copyright 1990, Gaussian, Inc.),
 the Gaussian 88(TM) system (copyright 1988, Gaussian, Inc.),
 the Gaussian 86(TM) system (copyright 1986, Carnegie Mellon
 University), and the Gaussian 82(TM) system (copyright 1983,
 Carnegie Mellon University). Gaussian is a federally registered
 trademark of Gaussian, Inc.
  
 This software contains proprietary and confidential information,
 including trade secrets, belonging to Gaussian, Inc.
  
 This software is provided under written license and may be
 used, copied, transmitted, or stored only in accord with that
 written license.
  
 The following legend is applicable only to US Government
 contracts under FAR:
  
                    RESTRICTED RIGHTS LEGEND
  
 Use, reproduction and disclosure by the US Government is
 subject to restrictions as set forth in subparagraphs (a)
 and (c) of the Commercial Computer Software - Restricted
 Rights clause in FAR 52.227-19.
  
 Gaussian, Inc.
 340 Quinnipiac St., Bldg. 40, Wallingford CT 06492
  
  
 ---------------------------------------------------------------
 Warning -- This program may not be used in any manner that
 competes with the business of Gaussian, Inc. or will provide
 assistance to any competitor of Gaussian, Inc.  The licensee
 of this program is prohibited from giving any competitor of
 Gaussian, Inc. access to this program.  By using this program,
 the user acknowledges that Gaussian, Inc. is engaged in the
 business of creating and licensing software in the field of
 computational chemistry and represents and warrants to the
 licensee that it is not a competitor of Gaussian, Inc. and that
 it will not use this program in any manner prohibited above.
 ---------------------------------------------------------------
  

 Cite this work as:
 Gaussian 03, Revision D.01,
 M. J. Frisch, G. W. Trucks, H. B. Schlegel, G. E. Scuseria, 
 M. A. Robb, J. R. Cheeseman, J. A. Montgomery, Jr., T. Vreven, 
 K. N. Kudin, J. C. Burant, J. M. Millam, S. S. Iyengar, J. Tomasi, 
 V. Barone, B. Mennucci, M. Cossi, G. Scalmani, N. Rega, 
 G. A. Petersson, H. Nakatsuji, M. Hada, M. Ehara, K. Toyota, 
 R. Fukuda, J. Hasegawa, M. Ishida, T. Nakajima, Y. Honda, O. Kitao, 
 H. Nakai, M. Klene, X. Li, J. E. Knox, H. P. Hratchian, J. B. Cross, 
 V. Bakken, C. Adamo, J. Jaramillo, R. Gomperts, R. E. Stratmann, 
 O. Yazyev, A. J. Austin, R. Cammi, C. Pomelli, J. W. Ochterski, 
 P. Y. Ayala, K. Morokuma, G. A. Voth, P. Salvador, J. J. Dannenberg, 
 V. G. Zakrzewski, S. Dapprich, A. D. Daniels, M. C. Strain, 
 O. Farkas, D. K. Malick, A. D. Rabuck, K. Raghavachari, 
 J. B. Foresman, J. V. Ortiz, Q. Cui, A. G. Baboul, S. Clifford, 
 J. Cioslowski, B. B. Stefanov, G. Liu, A. Liashenko, P. Piskorz, 
 I. Komaromi, R. L. Martin, D. J. Fox, T. Keith, M. A. Al-Laham, 
 C. Y. Peng, A. Nanayakkara, M. Challacombe, P. M. W. Gill, 
 B. Johnson, W. Chen, M. W. Wong, C. Gonzalez, and J. A. Pople, 
 Gaussian, Inc., Wallingford CT, 2004.
 
 ******************************************
 Gaussian 03:  IA32W-G03RevD.01 13-Oct-2005
                11-Mar-2008 
 ******************************************
 --------------
 # opt dreiding
 --------------
 1/6=10,10=10,14=-1,18=4000020,38=1,56=1,64=1/1,3;
 2/9=110,17=6,18=5,40=1/2;
 3/5=30,11=9,16=1,25=1,30=1/1;
 4/20=9,22=1001,24=3/2;
 7/44=-1/16;
 1/6=10,10=10,14=-1,18=4000020,64=1/3(2);
 2/9=110/2;
 99//99;
 2/9=110/2;
 3/5=30,11=9,16=1,25=1,30=1/1;
 4/16=2,20=9,22=1001,24=3/2;
 7/44=-1/16;
 1/6=10,10=10,14=-1,18=4000020,64=1/3(-4);
 2/9=110/2;
 99//99;
 ------------------------
 ethylenediamine-g+,g+,g+
 ------------------------
 Symbolic Z-matrix:
 Charge =  0 Multiplicity = 1
 C                    -0.53056  -0.76888   0.28776 
 C                    -0.52456   0.76412   0.31076 
 N                     0.80844  -1.30288   0.30576 
 N                     0.14444   1.30712  -0.84624 
 H                    -1.07956  -1.16388   1.17576 
 H                    -1.04456  -1.14288  -0.62824 
 H                    -1.57056   1.15312   0.32676 
 H                    -0.00456   1.13812   1.22276 
 H                     0.79144  -2.32188   0.30976 
 H                     1.31244  -1.04188  -0.54124 
 H                     0.12544   2.32612  -0.82924 
 H                     1.13044   1.05212  -0.84424 
 
 Include all MM classes
 MMInit generated parameter data with length LenPar=  1150.

 GradGradGradGradGradGradGradGradGradGradGradGradGradGradGradGradGradGrad
 Berny optimization.
 Initialization pass.
 No Z-matrix variables, so optimization will use Cartesian coordinates.
 Trust Radius=1.00D-01 FncErr=1.00D-07 GrdErr=1.00D-07
 Number of steps in this run=   2 maximum allowed number of steps=   2.
 GradGradGradGradGradGradGradGradGradGradGradGradGradGradGradGradGradGrad

                          Input orientation:                          
 ---------------------------------------------------------------------
 Center     Atomic     Atomic              Coordinates (Angstroms)
 Number     Number      Type              X           Y           Z
 ---------------------------------------------------------------------
    1          6      10061003       -0.530559   -0.768882    0.287765
    2          6      10061003       -0.524559    0.764118    0.310765
    3          7      10071003        0.808441   -1.302882    0.305765
    4          7      10071003        0.144441    1.307118   -0.846235
    5          1      10011000       -1.079559   -1.163882    1.175765
    6          1      10011000       -1.044559   -1.142882   -0.628235
    7          1      10011000       -1.570559    1.153118    0.326765
    8          1      10011000       -0.004559    1.138118    1.222765
    9          1      10011000        0.791441   -2.321882    0.309765
   10          1      10011000        1.312441   -1.041882   -0.541235
   11          1      10011000        0.125441    2.326118   -0.829235
   12          1      10011000        1.130441    1.052118   -0.844235
 ---------------------------------------------------------------------
                    Distance matrix (angstroms):
                    1          2          3          4          5
     1  C    0.000000
     2  C    1.533184   0.000000
     3  N    1.441666   2.459553   0.000000
     4  N    2.459951   1.442588   2.929181   0.000000
     5  H    1.116230   2.184819   2.083450   3.419430   0.000000
     6  H    1.114957   2.188326   2.081241   2.731986   1.804462
     7  H    2.185682   1.116106   3.419359   2.083475   2.516023
     8  H    2.188047   1.114460   2.731362   2.081231   2.541070
     9  H    2.039602   3.354885   1.019150   3.863235   2.364648
    10  H    2.039220   2.713321   1.019581   2.641032   2.946971
    11  H    3.355153   2.040084   3.863205   1.019319   4.201446
    12  H    2.712266   2.038626   2.640494   1.018442   3.724937
                    6          7          8          9         10
     6  H    0.000000
     7  H    2.541715   0.000000
     8  H    3.116210   1.804272   0.000000
     9  H    2.375033   4.201780   3.665895   0.000000
    10  H    2.360767   3.726008   3.098158   1.622973   0.000000
    11  H    3.666505   2.364039   2.374647   4.831644   3.582644
    12  H    3.097629   2.945648   2.359684   3.581971   2.123622
                   11         12
    11  H    0.000000
    12  H    1.622753   0.000000
 Stoichiometry    C2H8N2
 Framework group  C1[X(C2H8N2)]
 Deg. of freedom    30
 Full point group                 C1
 Largest Abelian subgroup         C1      NOp   1
 Largest concise Abelian subgroup C1      NOp   1
                         Standard orientation:                         
 ---------------------------------------------------------------------
 Center     Atomic     Atomic              Coordinates (Angstroms)
 Number     Number      Type              X           Y           Z
 ---------------------------------------------------------------------
    1          6      10061003        0.725993    0.606260    0.246706
    2          6      10061003       -0.725644    0.606807   -0.246654
    3          7      10071003        1.446109   -0.547600   -0.231248
    4          7      10071003       -1.446342   -0.547896    0.231168
    5          1      10011000        1.252931    1.523333   -0.110064
    6          1      10011000        0.758823    0.602790    1.361174
    7          1      10011000       -1.253408    1.523114    0.110475
    8          1      10011000       -0.758609    0.603086   -1.360620
    9          1      10011000        2.414139   -0.527130    0.086815
   10          1      10011000        1.050609   -1.404815    0.153861
   11          1      10011000       -2.414362   -0.526692   -0.087422
   12          1      10011000       -1.050583   -1.403620   -0.153975
 ---------------------------------------------------------------------
 Rotational constants (GHZ):     14.9190674      5.2481068      4.3280425
 Standard basis: Dummy (5D, 7F)
 There are    12 symmetry adapted basis functions of A   symmetry.
 Integral buffers will be    262144 words long.
 Raffenetti 1 integral format.
 Two-electron integral symmetry is turned on.
    12 basis functions,    12 primitive gaussians,    12 cartesian basis functions
     7 alpha electrons        7 beta electrons
       nuclear repulsion energy        23.1296554201 Hartrees.
 NAtoms=   12 NActive=   12 NUniq=   12 SFac= 7.50D-01 NAtFMM=   80 NAOKFM=F Big=F
 Dreiding calculation of energy and first derivatives.
 MO and density RWFs will be updated without deorthogonalization.
 NRF= 0 NRA=   0 NVA=  12 HaveQM=F
 Convergence limit is  0.750E-04 MaxStp=  5000 StMxLn= 1.00D-04 StpMin= 1.00D-06.
 Convergence criteria           0.00011250 0.00007500 0.00045000 0.00030000
  Step  NS  ND Rises OKQ   Scale  Max. Force  RMS Force Max. Disp.  RMS Disp.     Energy   Flag
     1   0   0   F    T  1.00D+00 0.02433474 0.01122625 0.02433474 0.01122625    0.0153746 ----
     2   0   0   F    F  2.39D-01 0.02433474 0.01122625 0.02433474 0.01122625    0.0126680 ----
     3   0   0   F    T  3.57D+00 0.00686709 0.00370224 0.00763748 0.00389837    0.0125633 ----
     4   0   0   F    F  2.95D-01 0.00686709 0.00370224 0.02725317 0.01391073    0.0114787 ----
     5   0   0   F    T  3.32D+00 0.00799770 0.00372799 0.01483172 0.00542418    0.0114191 ----
     6   0   0   F    F  4.89D-02 0.00799770 0.00372799 0.04924486 0.01800957    0.0105552 ----
     7   0   0   F    T  4.52D+00 0.00583300 0.00279543 0.01114423 0.00418362    0.0105534 ----
     8   0   0   F    F -4.01D-01 0.00583300 0.00279543 0.05032075 0.01889075    0.0103424 ----
     9   0   0   F    T  2.73D+00 0.00563933 0.00246209 0.00990346 0.00414327    0.0101746 ----
    10   0   0   F    F  6.21D-01 0.00563933 0.00246209 0.02703616 0.01131099    0.0097643 ----
    11   0   0   F    T  4.02D+00 0.00495948 0.00233179 0.01058877 0.00455663    0.0096943 ----
    12   0   0   F    F -3.95D-01 0.00495948 0.00233179 0.04261652 0.01833902    0.0095582 ----
    13   0   0   F    T  3.47D+00 0.00447616 0.00177386 0.00703181 0.00319696    0.0094560 ----
    14   0   0   F    F  8.09D-02 0.00447616 0.00177386 0.02439130 0.01108933    0.0092449 ----
    15   0   0   F    T  8.10D+00 0.00233331 0.00102872 0.00302975 0.00147996    0.0092437 ----
    16   0   0   T    F  3.24D-01 0.00233331 0.00102872 0.02453926 0.01198686    0.0094115 ----
    17   0   0   F    T  2.57D+00 0.00181887 0.00092117 0.00324405 0.00150671    0.0091938 ----
    18   0   0   F    F  1.92D+00 0.00181887 0.00092117 0.00835117 0.00387872    0.0091286 ----
    19   0   0   F    T  6.68D+00 0.00278911 0.00090245 0.00364060 0.00169670    0.0090788 ----
    20   0   0   T    F  2.43D-01 0.00278911 0.00090245 0.02433637 0.01134196    0.0092857 ----
    21   0   0   F    T  3.86D+00 0.00118604 0.00049412 0.00133567 0.00071353    0.0090551 ----
    22   0   0   F    F -7.00D-02 0.00118604 0.00049412 0.00515036 0.00275139    0.0090394 ----
    23   0   0   F    T  2.71D+00 0.00107871 0.00051877 0.00201177 0.00094376    0.0090393 ----
    24   0   0   F    F  2.02D+00 0.00107871 0.00051877 0.00545434 0.00255873    0.0090174 ----
    25   0   0   F    T  6.87D+00 0.00090804 0.00053063 0.00217189 0.00112349    0.0089996 ----
    26   0   0   T    F  3.28D-01 0.00090804 0.00053063 0.01492617 0.00772112    0.0090361 ----
    27   0   0   F    T  2.76D+00 0.00114372 0.00044924 0.00214059 0.00091815    0.0089881 ----
    28   0   0   F    F  1.85D+00 0.00114372 0.00044924 0.00590480 0.00253272    0.0089717 ----
    29   0   0   F    T  3.62D+00 0.00141504 0.00064271 0.00462146 0.00199728    0.0089597 ----
    30   0   0   F    F -1.91D-01 0.00141504 0.00064271 0.01671538 0.00722396    0.0089392 ----
    31   0   0   F    T  2.97D+00 0.00157130 0.00061789 0.00439268 0.00197040    0.0089380 ----
    32   0   0   F    F  1.35D-01 0.00157130 0.00061789 0.01303276 0.00584604    0.0089151 ----
    33   0   0   F    T  8.66D+00 0.00085102 0.00036621 0.00163754 0.00076622    0.0089148 ----
    34   0   0   T    F  2.30D-01 0.00085102 0.00036621 0.01418072 0.00663525    0.0089638 ----
    35   0   0   F    T  4.58D+00 0.00046540 0.00021240 0.00070492 0.00033325    0.0089100 ----
    36   0   0   F    F -2.09D-01 0.00046540 0.00021240 0.00323200 0.00152792    0.0089072 ----
    37   0   0   F    T  2.71D+00 0.00084398 0.00022755 0.00092664 0.00044516    0.0089070 ----
    38   0   0   F    F  4.74D-01 0.00084398 0.00022755 0.00251466 0.00120805    0.0089037 ----
    39   0   0   F    T  6.51D+00 0.00050131 0.00016024 0.00063958 0.00027336    0.0089033 ---+
    40   0   0   T    F  2.91D-01 0.00050131 0.00016024 0.00416602 0.00178058    0.0089076 ----
    41   0   0   F    T  4.43D+00 0.00021454 0.00008624 0.00023690 0.00011697    0.0089024 --++
    42   0   0   F    F  2.85D-01 0.00021454 0.00008624 0.00104956 0.00051823    0.0089017 ----
    43   0   0   F    T  2.16D+00 0.00044397 0.00013296 0.00070325 0.00030819    0.0089017 ----
    44   0   0   F    F  3.28D-01 0.00044397 0.00013296 0.00151967 0.00066597    0.0089008 ----
    45   0   0   F    T  4.49D+00 0.00029942 0.00009899 0.00049553 0.00019720    0.0089007 ---+
    46   0   0   F    F  1.93D-01 0.00029942 0.00009899 0.00222245 0.00088445    0.0088998 ----
    47   0   0   F    T  3.10D+00 0.00032720 0.00012540 0.00083824 0.00034037    0.0088998 ----
    48   0   0   F    F  7.83D-01 0.00032720 0.00012540 0.00259759 0.00105477    0.0088985 ----
    49   0   0   F    T  2.55D+00 0.00051759 0.00018155 0.00176771 0.00073681    0.0088982 ----
    50   0   0   F    F  4.38D-01 0.00051759 0.00018155 0.00451262 0.00188094    0.0088963 ----
    51   0   0   F    T  4.27D+00 0.00045598 0.00016500 0.00147127 0.00063430    0.0088961 ----
    52   0   0   F    F -1.68D-01 0.00045598 0.00016500 0.00627507 0.00270535    0.0088944 ----
    53   0   0   F    T  5.34D+00 0.00028073 0.00013127 0.00103856 0.00042145    0.0088943 ----
    54   0   0   F    F -4.86D-01 0.00028073 0.00013127 0.00554766 0.00225127    0.0088942 ----
    55   0   0   F    T  3.54D+00 0.00021162 0.00011222 0.00092937 0.00032644    0.0088935 ----
    56   0   0   F    F  1.21D-01 0.00021162 0.00011222 0.00329192 0.00115630    0.0088926 ----
    57   0   0   F    T  2.61D+00 0.00031015 0.00013598 0.00152535 0.00049753    0.0088926 ----
    58   0   0   F    F  1.59D+00 0.00031015 0.00013598 0.00397388 0.00129618    0.0088912 ----
    59   0   0   F    T  3.43D+00 0.00040916 0.00018870 0.00293553 0.00097944    0.0088903 ----
    60   0   0   F    F -2.93D-01 0.00040916 0.00018870 0.01005654 0.00335535    0.0088890 ----
    61   0   0   F    T  5.24D+00 0.00028491 0.00012496 0.00134656 0.00045262    0.0088888 ----
    62   0   0   F    F -5.09D-02 0.00028491 0.00012496 0.00705306 0.00237073    0.0088874 ----
    63   0   0   F    T  4.54D+00 0.00027860 0.00012885 0.00143345 0.00049557    0.0088874 ----
    64   0   0   F    F -9.28D-02 0.00027860 0.00012885 0.00650808 0.00224994    0.0088862 ----
    65   0   0   F    T  3.69D+00 0.00052075 0.00013434 0.00163074 0.00055291    0.0088861 ----
    66   0   0   F    F -6.65D-02 0.00052075 0.00013434 0.00602004 0.00204111    0.0088850 ----
    67   0   0   F    T  2.67D+00 0.00036924 0.00015096 0.00200635 0.00071437    0.0088850 ----
    68   0   0   F    F  2.95D-01 0.00036924 0.00015096 0.00535139 0.00190539    0.0088837 ----
    69   0   0   F    T  7.93D+00 0.00026405 0.00009692 0.00079719 0.00031127    0.0088836 ----
    70   0   0   T    F  2.52D-01 0.00026405 0.00009692 0.00632148 0.00246830    0.0088863 ----
    71   0   0   F    T  5.89D+00 0.00010040 0.00005256 0.00026549 0.00010551    0.0088833 ====
 Energy=    0.008883271017 NIter=   0.
 Dipole moment=       0.000000       0.000000       0.000000
 ***** Axes restored to original set *****
 -------------------------------------------------------------------
 Center     Atomic                   Forces (Hartrees/Bohr)
 Number     Number              X              Y              Z
 -------------------------------------------------------------------
    1          6           0.000076599   -0.000058440   -0.000039860
    2          6           0.000053603   -0.000007001    0.000046233
    3          7           0.000050318    0.000006891    0.000004698
    4          7          -0.000015029   -0.000054837    0.000015915
    5          1          -0.000007345   -0.000019575    0.000112106
    6          1          -0.000025791   -0.000030141   -0.000095444
    7          1          -0.000104173    0.000055255   -0.000077393
    8          1           0.000058609    0.000037196    0.000001556
    9          1          -0.000010596    0.000009013   -0.000054402
   10          1          -0.000060419   -0.000014035    0.000075903
   11          1           0.000072565    0.000030764    0.000015052
   12          1          -0.000088341    0.000044909   -0.000004365
 -------------------------------------------------------------------
 Cartesian Forces:  Max     0.000112106 RMS     0.000052563

 GradGradGradGradGradGradGradGradGradGradGradGradGradGradGradGradGradGrad
 Berny optimization.
 Search for a local minimum.
 Step number   1 out of a maximum of   2
 All quantities printed in internal units (Hartrees-Bohrs-Radians)
 Second derivative matrix not updated -- unit matrix used.
 RFO step:  Lambda=-9.94633629D-08.
 Linear search not attempted -- first point.
 TrRot=  0.000000  0.000000  0.000000  0.000000  0.000000  0.000000
 Variable       Old X    -DE/DX   Delta X   Delta X   Delta X     New X
                                 (Linear)    (Quad)   (Total)
    X1       -0.97228   0.00008   0.00000   0.00008   0.00008  -0.97220
    Y1       -1.46594  -0.00006   0.00000  -0.00006  -0.00006  -1.46600
    Z1        0.48350  -0.00004   0.00000  -0.00004  -0.00004   0.48346
    X2       -0.92350   0.00005   0.00000   0.00005   0.00005  -0.92344
    Y2        1.45817  -0.00001   0.00000  -0.00001  -0.00001   1.45816
    Z2        0.59123   0.00005   0.00000   0.00005   0.00005   0.59127
    X3        1.57431   0.00005   0.00000   0.00005   0.00005   1.57436
    Y3       -2.60016   0.00001   0.00000   0.00001   0.00001  -2.60016
    Z3        0.66263   0.00000   0.00000   0.00000   0.00000   0.66264
    X4        0.22277  -0.00002   0.00000  -0.00002  -0.00002   0.22276
    Y4        2.60804  -0.00005   0.00000  -0.00005  -0.00005   2.60799
    Z4       -1.68203   0.00002   0.00000   0.00002   0.00002  -1.68201
    X5       -2.09554  -0.00001   0.00000  -0.00001  -0.00001  -2.09555
    Y5       -2.14369  -0.00002   0.00000  -0.00002  -0.00002  -2.14371
    Z5        2.08073   0.00011   0.00000   0.00011   0.00011   2.08085
    X6       -1.90979  -0.00003   0.00000  -0.00003  -0.00003  -1.90982
    Y6       -2.08065  -0.00003   0.00000  -0.00003  -0.00003  -2.08068
    Z6       -1.25456  -0.00010   0.00000  -0.00010  -0.00010  -1.25466
    X7       -2.87526  -0.00010   0.00000  -0.00010  -0.00010  -2.87536
    Y7        2.12234   0.00006   0.00000   0.00006   0.00006   2.12240
    Z7        0.73800  -0.00008   0.00000  -0.00008  -0.00008   0.73792
    X8        0.08262   0.00006   0.00000   0.00006   0.00006   0.08268
    Y8        2.07284   0.00004   0.00000   0.00004   0.00004   2.07288
    Z8        2.29074   0.00000   0.00000   0.00000   0.00000   2.29074
    X9        1.38754  -0.00001   0.00000  -0.00001  -0.00001   1.38753
    Y9       -4.52331   0.00001   0.00000   0.00001   0.00001  -4.52330
    Z9        0.79777  -0.00005   0.00000  -0.00005  -0.00005   0.79771
   X10        2.54458  -0.00006   0.00000  -0.00006  -0.00006   2.54452
   Y10       -2.26689  -0.00001   0.00000  -0.00001  -0.00001  -2.26690
   Z10       -0.97904   0.00008   0.00000   0.00008   0.00008  -0.97897
   X11       -0.00196   0.00007   0.00000   0.00007   0.00007  -0.00189
   Y11        4.52924   0.00003   0.00000   0.00003   0.00003   4.52927
   Z11       -1.58370   0.00002   0.00000   0.00002   0.00002  -1.58369
   X12        2.13180  -0.00009   0.00000  -0.00009  -0.00009   2.13171
   Y12        2.28701   0.00004   0.00000   0.00004   0.00004   2.28705
   Z12       -1.67249   0.00000   0.00000   0.00000   0.00000  -1.67250
         Item               Value     Threshold  Converged?
 Maximum Force            0.000112     0.000450     YES
 RMS     Force            0.000053     0.000300     YES
 Maximum Displacement     0.000112     0.001800     YES
 RMS     Displacement     0.000053     0.001200     YES
 Predicted change in Energy=-4.973167D-08
 Optimization completed.
    -- Stationary point found.
 GradGradGradGradGradGradGradGradGradGradGradGradGradGradGradGradGradGrad

                          Input orientation:                          
 ---------------------------------------------------------------------
 Center     Atomic     Atomic              Coordinates (Angstroms)
 Number     Number      Type              X           Y           Z
 ---------------------------------------------------------------------
    1          6      10061003       -0.514508   -0.775743    0.255856
    2          6      10061003       -0.488693    0.771629    0.312864
    3          7      10071003        0.833090   -1.375947    0.350651
    4          7      10071003        0.117885    1.380116   -0.890090
    5          1      10011000       -1.108912   -1.134392    1.101077
    6          1      10011000       -1.010618   -1.101034   -0.663885
    7          1      10011000       -1.521522    1.123095    0.390532
    8          1      10011000        0.043723    1.096900    1.212207
    9          1      10011000        0.734256   -2.393630    0.422160
   10          1      10011000        1.346532   -1.199586   -0.518088
   11          1      10011000       -0.001039    2.396772   -0.838060
   12          1      10011000        1.128101    1.210233   -0.885046
 ---------------------------------------------------------------------
                    Distance matrix (angstroms):
                    1          2          3          4          5
     1  C    0.000000
     2  C    1.548637   0.000000
     3  N    1.478259   2.522026   0.000000
     4  N    2.522071   1.478273   3.105936   0.000000
     5  H    1.093775   2.153803   2.095915   3.434025   0.000000
     6  H    1.094469   2.175617   2.122291   2.735104   1.768012
     7  H    2.153555   1.093753   3.433801   2.096117   2.402367
     8  H    2.175550   1.094571   2.735022   2.122585   2.513877
     9  H    2.050519   3.395058   1.024969   4.042657   2.333212
    10  H    2.059636   2.818549   1.024418   2.881462   2.941964
    11  H    3.394872   2.050249   4.042550   1.024910   4.178128
    12  H    2.818497   2.059462   2.881372   1.024413   3.800813
                    6          7          8          9         10
     6  H    0.000000
     7  H    2.513875   0.000000
     8  H    3.076080   1.768001   0.000000
     9  H    2.427938   4.178144   3.644833   0.000000
    10  H    2.363710   3.800811   3.156752   1.638502   0.000000
    11  H    3.644754   2.333144   2.428018   5.007671   3.853845
    12  H    3.156737   2.941971   2.363724   3.853795   2.447366
                   11         12
    11  H    0.000000
    12  H    1.638609   0.000000
 Stoichiometry    C2H8N2
 Framework group  C1[X(C2H8N2)]
 Deg. of freedom    30
 Full point group                 C1
 Largest Abelian subgroup         C1      NOp   1
 Largest concise Abelian subgroup C1      NOp   1
                         Standard orientation:                         
 ---------------------------------------------------------------------
 Center     Atomic     Atomic              Coordinates (Angstroms)
 Number     Number      Type              X           Y           Z
 ---------------------------------------------------------------------
    1          6      10061003       -0.722848    0.585040   -0.277559
    2          6      10061003        0.722887    0.585003    0.277533
    3          7      10071003       -1.534835   -0.538216    0.236468
    4          7      10071003        1.534879   -0.538268   -0.236490
    5          1      10011000       -1.201010    1.520340    0.027266
    6          1      10011000       -0.696114    0.564099   -1.371501
    7          1      10011000        1.200738    1.520441   -0.027279
    8          1      10011000        0.695935    0.564301    1.371576
    9          1      10011000       -2.502690   -0.413221   -0.076892
   10          1      10011000       -1.209774   -1.414020   -0.183931
   11          1      10011000        2.502619   -0.412901    0.076881
   12          1      10011000        1.209749   -1.413906    0.184189
 ---------------------------------------------------------------------
 Rotational constants (GHZ):     15.2183633      4.8010854      4.0739705
 1|1|UNPC-UNK|FOpt|Dreiding|ZDO|C2H8N2|PCUSER|11-Mar-2008|0||# opt drei
 ding||ethylenediamine-g+,g+,g+||0,1|C,-0.5145081492,-0.7757429784,0.25
 58558236|C,-0.4886928019,0.7716290227,0.3128635959|N,0.8330895546,-1.3
 759465489,0.3506508655|N,0.1178848579,1.3801159535,-0.890089938|H,-1.1
 089120672,-1.1343922114,1.1010771305|H,-1.0106179585,-1.1010341177,-0.
 6638852208|H,-1.5215217495,1.1230946767,0.3905317039|H,0.0437226443,1.
 0968995191,1.2122073665|H,0.7342563675,-2.3936303348,0.4221596941|H,1.
 346531814,-1.1995863102,-0.5180879431|H,-0.0010391823,2.3967720005,-0.
 838060337|H,1.1281008303,1.2102331288,-0.8850462212||Version=IA32W-G03
 RevD.01|HF=0.0088833|RMSD=0.000e+000|RMSF=5.256e-005|Thermal=0.|Dipole
 =0.,0.,0.|PG=C01 [X(C2H8N2)]||@


 THE NUMBERS ARE MEANINGLESS, BUT THE TRENDS ARE IMPORTANT.
     -- LARRY BURGGRAF
 Job cpu time:  0 days  0 hours  0 minutes  3.0 seconds.
 File lengths (MBytes):  RWF=     11 Int=      0 D2E=      0 Chk=      4 Scr=      1
 Normal termination of Gaussian 03 at Tue Mar 11 13:40:00 2008.
