 Entering Link 1 = C:\G03W\l1.exe PID=      1608.
  
 Copyright (c) 1988,1990,1992,1993,1995,1998,2003,2004, Gaussian, Inc.
                  All Rights Reserved.
  
 This is the Gaussian(R) 03 program.  It is based on the
 the Gaussian(R) 98 system (copyright 1998, Gaussian, Inc.),
 the Gaussian(R) 94 system (copyright 1995, Gaussian, Inc.),
 the Gaussian 92(TM) system (copyright 1992, Gaussian, Inc.),
 the Gaussian 90(TM) system (copyright 1990, Gaussian, Inc.),
 the Gaussian 88(TM) system (copyright 1988, Gaussian, Inc.),
 the Gaussian 86(TM) system (copyright 1986, Carnegie Mellon
 University), and the Gaussian 82(TM) system (copyright 1983,
 Carnegie Mellon University). Gaussian is a federally registered
 trademark of Gaussian, Inc.
  
 This software contains proprietary and confidential information,
 including trade secrets, belonging to Gaussian, Inc.
  
 This software is provided under written license and may be
 used, copied, transmitted, or stored only in accord with that
 written license.
  
 The following legend is applicable only to US Government
 contracts under FAR:
  
                    RESTRICTED RIGHTS LEGEND
  
 Use, reproduction and disclosure by the US Government is
 subject to restrictions as set forth in subparagraphs (a)
 and (c) of the Commercial Computer Software - Restricted
 Rights clause in FAR 52.227-19.
  
 Gaussian, Inc.
 340 Quinnipiac St., Bldg. 40, Wallingford CT 06492
  
  
 ---------------------------------------------------------------
 Warning -- This program may not be used in any manner that
 competes with the business of Gaussian, Inc. or will provide
 assistance to any competitor of Gaussian, Inc.  The licensee
 of this program is prohibited from giving any competitor of
 Gaussian, Inc. access to this program.  By using this program,
 the user acknowledges that Gaussian, Inc. is engaged in the
 business of creating and licensing software in the field of
 computational chemistry and represents and warrants to the
 licensee that it is not a competitor of Gaussian, Inc. and that
 it will not use this program in any manner prohibited above.
 ---------------------------------------------------------------
  

 Cite this work as:
 Gaussian 03, Revision D.01,
 M. J. Frisch, G. W. Trucks, H. B. Schlegel, G. E. Scuseria, 
 M. A. Robb, J. R. Cheeseman, J. A. Montgomery, Jr., T. Vreven, 
 K. N. Kudin, J. C. Burant, J. M. Millam, S. S. Iyengar, J. Tomasi, 
 V. Barone, B. Mennucci, M. Cossi, G. Scalmani, N. Rega, 
 G. A. Petersson, H. Nakatsuji, M. Hada, M. Ehara, K. Toyota, 
 R. Fukuda, J. Hasegawa, M. Ishida, T. Nakajima, Y. Honda, O. Kitao, 
 H. Nakai, M. Klene, X. Li, J. E. Knox, H. P. Hratchian, J. B. Cross, 
 V. Bakken, C. Adamo, J. Jaramillo, R. Gomperts, R. E. Stratmann, 
 O. Yazyev, A. J. Austin, R. Cammi, C. Pomelli, J. W. Ochterski, 
 P. Y. Ayala, K. Morokuma, G. A. Voth, P. Salvador, J. J. Dannenberg, 
 V. G. Zakrzewski, S. Dapprich, A. D. Daniels, M. C. Strain, 
 O. Farkas, D. K. Malick, A. D. Rabuck, K. Raghavachari, 
 J. B. Foresman, J. V. Ortiz, Q. Cui, A. G. Baboul, S. Clifford, 
 J. Cioslowski, B. B. Stefanov, G. Liu, A. Liashenko, P. Piskorz, 
 I. Komaromi, R. L. Martin, D. J. Fox, T. Keith, M. A. Al-Laham, 
 C. Y. Peng, A. Nanayakkara, M. Challacombe, P. M. W. Gill, 
 B. Johnson, W. Chen, M. W. Wong, C. Gonzalez, and J. A. Pople, 
 Gaussian, Inc., Wallingford CT, 2004.
 
 ******************************************
 Gaussian 03:  IA32W-G03RevD.01 13-Oct-2005
                15-Jan-2008 
 ******************************************
 --------------
 # opt dreiding
 --------------
 1/6=10,10=10,14=-1,18=4000020,38=1,56=1,64=1/1,3;
 2/9=110,17=6,18=5,40=1/2;
 3/5=30,11=9,16=1,25=1,30=1/1;
 4/20=9,22=1001,24=3/2;
 7/44=-1/16;
 1/6=10,10=10,14=-1,18=4000020,64=1/3(2);
 2/9=110/2;
 99//99;
 2/9=110/2;
 3/5=30,11=9,16=1,25=1,30=1/1;
 4/16=2,20=9,22=1001,24=3/2;
 7/44=-1/16;
 1/6=10,10=10,14=-1,18=4000020,64=1/3(-4);
 2/9=110/2;
 99//99;
 ------------
 ethylamine-a
 ------------
 Symbolic Z-matrix:
 Charge =  0 Multiplicity = 1
 N                     0.5535   -1.13785   0.00012 
 C                     0.5305    0.30415   0.00012 
 C                    -0.9105    0.82315   0.00012 
 H                     1.0725    0.66915   0.90412 
 H                     1.0725    0.66915  -0.90488 
 H                    -0.9335    1.93815   0.00012 
 H                    -1.4635    0.47015  -0.90188 
 H                     0.0605   -1.50785   0.81112 
 H                    -1.4635    0.47015   0.90112 
 H                     0.0605   -1.50785  -0.81188 
 
 Include all MM classes
 MMInit generated parameter data with length LenPar=   952.

 GradGradGradGradGradGradGradGradGradGradGradGradGradGradGradGradGradGrad
 Berny optimization.
 Initialization pass.
 No Z-matrix variables, so optimization will use Cartesian coordinates.
 Trust Radius=1.00D-01 FncErr=1.00D-07 GrdErr=1.00D-07
 Number of steps in this run=   2 maximum allowed number of steps=   2.
 GradGradGradGradGradGradGradGradGradGradGradGradGradGradGradGradGradGrad

                          Input orientation:                          
 ---------------------------------------------------------------------
 Center     Atomic     Atomic              Coordinates (Angstroms)
 Number     Number      Type              X           Y           Z
 ---------------------------------------------------------------------
    1          7      10071003        0.553500   -1.137846    0.000115
    2          6      10061003        0.530500    0.304154    0.000115
    3          6      10061003       -0.910500    0.823154    0.000115
    4          1      10011000        1.072500    0.669154    0.904115
    5          1      10011000        1.072500    0.669154   -0.904885
    6          1      10011000       -0.933500    1.938154    0.000115
    7          1      10011000       -1.463500    0.470154   -0.901885
    8          1      10011000        0.060500   -1.507846    0.811115
    9          1      10011000       -1.463500    0.470154    0.901115
   10          1      10011000        0.060500   -1.507846   -0.811885
 ---------------------------------------------------------------------
                    Distance matrix (angstroms):
                    1          2          3          4          5
     1  N    0.000000
     2  C    1.442183   0.000000
     3  C    2.447206   1.531614   0.000000
     4  H    2.086103   1.115439   2.184770   0.000000
     5  H    2.086537   1.116250   2.185184   1.809000   0.000000
     6  H    3.416569   2.193912   1.115237   2.540003   2.540359
     7  H    2.732683   2.194811   1.115357   3.119701   2.543798
     8  H    1.018661   2.040089   2.652192   2.402524   2.950954
     9  H    2.732353   2.194400   1.114549   2.543798   3.119701
    10  H    1.019457   2.040487   2.652498   2.950954   2.402524
                    6          7          8          9         10
     6  H    0.000000
     7  H    1.802645   0.000000
     8  H    3.677047   3.028107   0.000000
     9  H    1.802145   1.803000   2.498632   0.000000
    10  H    3.677267   2.498632   1.623000   3.028107   0.000000
 Stoichiometry    C2H7N
 Framework group  C1[X(C2H7N)]
 Deg. of freedom    24
 Full point group                 C1
 Largest Abelian subgroup         C1      NOp   1
 Largest concise Abelian subgroup C1      NOp   1
                         Standard orientation:                         
 ---------------------------------------------------------------------
 Center     Atomic     Atomic              Coordinates (Angstroms)
 Number     Number      Type              X           Y           Z
 ---------------------------------------------------------------------
    1          7      10071003       -1.248957   -0.202884   -0.000115
    2          6      10061003       -0.056910    0.608852   -0.000115
    3          6      10061003        1.197323   -0.270206   -0.000115
    4          1      10011000       -0.070703    1.262151   -0.904115
    5          1      10011000       -0.070703    1.262151    0.904885
    6          1      10011000        2.122055    0.353191   -0.000115
    7          1      10011000        1.227261   -0.925585    0.901885
    8          1      10011000       -1.267474   -0.819006   -0.811115
    9          1      10011000        1.227261   -0.925585   -0.901115
   10          1      10011000       -1.267474   -0.819006    0.811885
 ---------------------------------------------------------------------
 Rotational constants (GHZ):     29.8692821      9.2821826      8.1333349
 Standard basis: Dummy (5D, 7F)
 There are    10 symmetry adapted basis functions of A   symmetry.
 Integral buffers will be    262144 words long.
 Raffenetti 1 integral format.
 Two-electron integral symmetry is turned on.
    10 basis functions,    10 primitive gaussians,    10 cartesian basis functions
     6 alpha electrons        6 beta electrons
       nuclear repulsion energy        18.1632689882 Hartrees.
 NAtoms=   10 NActive=   10 NUniq=   10 SFac= 7.50D-01 NAtFMM=   80 NAOKFM=F Big=F
 Dreiding calculation of energy and first derivatives.
 MO and density RWFs will be updated without deorthogonalization.
 NRF= 0 NRA=   0 NVA=  10 HaveQM=F
 Convergence limit is  0.750E-04 MaxStp=  5000 StMxLn= 1.00D-04 StpMin= 1.00D-06.
 Convergence criteria           0.00011250 0.00007500 0.00045000 0.00030000
  Step  NS  ND Rises OKQ   Scale  Max. Force  RMS Force Max. Disp.  RMS Disp.     Energy   Flag
     1   0   0   F    T  1.00D+00 0.02940321 0.01064636 0.02940321 0.01064636    0.0087398 ----
     2   0   0   F    F  2.77D-01 0.02940321 0.01064636 0.02940321 0.01064636    0.0066758 ----
     3   0   0   F    T  3.64D+00 0.01187945 0.00354459 0.00910246 0.00373589    0.0065743 ----
     4   0   0   F    F -2.86D-01 0.01187945 0.00354459 0.03312314 0.01359460    0.0061628 ----
     5   0   0   F    T  3.64D+00 0.00780081 0.00222292 0.00588989 0.00266289    0.0060834 ----
     6   0   0   F    F -1.37D-01 0.00780081 0.00222292 0.02146651 0.00970528    0.0058559 ----
     7   0   0   F    T  3.57D+00 0.00410596 0.00171968 0.00427572 0.00234788    0.0058500 ----
     8   0   0   F    F -3.98D-01 0.00410596 0.00171968 0.01525518 0.00837691    0.0057965 ----
     9   0   0   F    T  3.40D+00 0.00277368 0.00111111 0.00390593 0.00148363    0.0057548 ----
    10   0   0   F    F  1.30D+00 0.00277368 0.00111111 0.01326756 0.00503957    0.0056566 ----
    11   0   0   F    T  2.53D+00 0.00571998 0.00186217 0.01234870 0.00457119    0.0056108 ----
    12   0   0   F    F -7.37D-02 0.00571998 0.00186217 0.03125751 0.01157079    0.0054895 ----
    13   0   0   F    T  7.81D+00 0.00208367 0.00088190 0.00346244 0.00137245    0.0054888 ----
    14   0   0   F    F -4.11D-01 0.00208367 0.00088190 0.02703896 0.01071777    0.0054609 ----
    15   0   0   F    T  7.97D+00 0.00130616 0.00055814 0.00196276 0.00079214    0.0054354 ----
    16   0   0   T    F  3.95D-01 0.00130616 0.00055814 0.01563850 0.00631147    0.0054552 ----
    17   0   0   F    T  4.36D+00 0.00074460 0.00040021 0.00142859 0.00057165    0.0054207 ----
    18   0   0   F    F  6.59D-01 0.00074460 0.00040021 0.00623267 0.00249400    0.0054060 ----
    19   0   0   F    T  5.22D+00 0.00130410 0.00043138 0.00177799 0.00079242    0.0054033 ----
    20   0   0   T    F  2.71D-01 0.00130410 0.00043138 0.00928296 0.00413727    0.0054279 ----
    21   0   0   F    T  7.09D+00 0.00035411 0.00013679 0.00036609 0.00015835    0.0053993 --++
    22   0   0   T    F  4.33D-01 0.00035411 0.00013679 0.00259483 0.00112236    0.0054000 ----
    23   0   0   F    T  2.95D+00 0.00023445 0.00011693 0.00038021 0.00016449    0.0053985 --++
    24   0   0   F    F -2.03D-01 0.00023445 0.00011693 0.00112335 0.00048599    0.0053980 ----
    25   0   0   F    T  1.57D+01 0.00006954 0.00002366 0.00005984 0.00002460    0.0053980 ====
 Energy=    0.005398004251 NIter=   0.
 Dipole moment=       0.000000       0.000000       0.000000
 ***** Axes restored to original set *****
 -------------------------------------------------------------------
 Center     Atomic                   Forces (Hartrees/Bohr)
 Number     Number              X              Y              Z
 -------------------------------------------------------------------
    1          7           0.000010962   -0.000006773    0.000036081
    2          6           0.000014431   -0.000034086    0.000018799
    3          6           0.000039002    0.000065384    0.000011478
    4          1          -0.000005767    0.000005062   -0.000009149
    5          1           0.000003250    0.000014006   -0.000008901
    6          1          -0.000035553   -0.000034600   -0.000003316
    7          1          -0.000021022    0.000014495   -0.000026772
    8          1           0.000015720   -0.000013663   -0.000038653
    9          1          -0.000015041    0.000015980    0.000016858
   10          1          -0.000005982   -0.000025805    0.000003575
 -------------------------------------------------------------------
 Cartesian Forces:  Max     0.000065384 RMS     0.000023662

 GradGradGradGradGradGradGradGradGradGradGradGradGradGradGradGradGradGrad
 Berny optimization.
 Search for a local minimum.
 Step number   1 out of a maximum of   2
 All quantities printed in internal units (Hartrees-Bohrs-Radians)
 Second derivative matrix not updated -- unit matrix used.
 RFO step:  Lambda=-1.67969947D-08.
 Linear search not attempted -- first point.
 TrRot=  0.000000  0.000000  0.000000  0.000000  0.000000  0.000000
 Variable       Old X    -DE/DX   Delta X   Delta X   Delta X     New X
                                 (Linear)    (Quad)   (Total)
    X1        1.09894   0.00001   0.00000   0.00001   0.00001   1.09895
    Y1       -2.22768  -0.00001   0.00000  -0.00001  -0.00001  -2.22769
    Z1       -0.00044   0.00004   0.00000   0.00004   0.00004  -0.00041
    X2        0.96278   0.00001   0.00000   0.00001   0.00001   0.96280
    Y2        0.56154  -0.00003   0.00000  -0.00003  -0.00003   0.56150
    Z2       -0.00040   0.00002   0.00000   0.00002   0.00002  -0.00038
    X3       -1.76299   0.00004   0.00000   0.00004   0.00004  -1.76295
    Y3        1.61108   0.00007   0.00000   0.00007   0.00007   1.61114
    Z3       -0.00031   0.00001   0.00000   0.00001   0.00001  -0.00030
    X4        1.95520  -0.00001   0.00000  -0.00001  -0.00001   1.95520
    Y4        1.26902   0.00001   0.00000   0.00001   0.00001   1.26902
    Z4        1.66719  -0.00001   0.00000  -0.00001  -0.00001   1.66719
    X5        1.95516   0.00000   0.00000   0.00000   0.00000   1.95516
    Y5        1.26907   0.00001   0.00000   0.00001   0.00001   1.26908
    Z5       -1.66790  -0.00001   0.00000  -0.00001  -0.00001  -1.66791
    X6       -1.71859  -0.00004   0.00000  -0.00004  -0.00004  -1.71862
    Y6        3.67355  -0.00003   0.00000  -0.00003  -0.00003   3.67352
    Z6       -0.00001   0.00000   0.00000   0.00000   0.00000  -0.00002
    X7       -2.77518  -0.00002   0.00000  -0.00002  -0.00002  -2.77520
    Y7        0.97081   0.00001   0.00000   0.00001   0.00001   0.97082
    Z7       -1.67960  -0.00003   0.00000  -0.00003  -0.00003  -1.67963
    X8        0.18724   0.00002   0.00000   0.00002   0.00002   0.18725
    Y8       -2.92402  -0.00001   0.00000  -0.00001  -0.00001  -2.92403
    Z8        1.56023  -0.00004   0.00000  -0.00004  -0.00004   1.56019
    X9       -2.77525  -0.00002   0.00000  -0.00002  -0.00002  -2.77527
    Y9        0.97039   0.00002   0.00000   0.00002   0.00002   0.97041
    Z9        1.67882   0.00002   0.00000   0.00002   0.00002   1.67883
   X10        0.18739  -0.00001   0.00000  -0.00001  -0.00001   0.18738
   Y10       -2.92397  -0.00003   0.00000  -0.00003  -0.00003  -2.92399
   Z10       -1.56106   0.00000   0.00000   0.00000   0.00000  -1.56106
         Item               Value     Threshold  Converged?
 Maximum Force            0.000065     0.000450     YES
 RMS     Force            0.000024     0.000300     YES
 Maximum Displacement     0.000065     0.001800     YES
 RMS     Displacement     0.000024     0.001200     YES
 Predicted change in Energy=-8.398497D-09
 Optimization completed.
    -- Stationary point found.
 GradGradGradGradGradGradGradGradGradGradGradGradGradGradGradGradGradGrad

                          Input orientation:                          
 ---------------------------------------------------------------------
 Center     Atomic     Atomic              Coordinates (Angstroms)
 Number     Number      Type              X           Y           Z
 ---------------------------------------------------------------------
    1          7      10071003        0.581535   -1.178837   -0.000235
    2          6      10061003        0.509483    0.297152   -0.000209
    3          6      10061003       -0.932934    0.852545   -0.000166
    4          1      10011000        1.034649    0.671536    0.882241
    5          1      10011000        1.034625    0.671563   -0.882616
    6          1      10011000       -0.909437    1.943959   -0.000007
    7          1      10011000       -1.468561    0.513729   -0.888807
    8          1      10011000        0.099081   -1.547322    0.825639
    9          1      10011000       -1.468602    0.513509    0.888391
   10          1      10011000        0.099161   -1.547297   -0.826078
 ---------------------------------------------------------------------
                    Distance matrix (angstroms):
                    1          2          3          4          5
     1  N    0.000000
     2  C    1.477746   0.000000
     3  C    2.533797   1.545648   0.000000
     4  H    2.099513   1.093015   2.163975   0.000000
     5  H    2.099492   1.092978   2.163969   1.764858   0.000000
     6  H    3.460470   2.173777   1.091667   2.485336   2.485431
     7  H    2.803075   2.179259   1.091502   3.070436   2.508165
     8  H    1.024994   2.062169   2.739776   2.408698   2.952428
     9  H    2.802990   2.179275   1.091521   2.508241   3.070438
    10  H    1.024921   2.062138   2.739817   2.952408   2.408657
                    6          7          8          9         10
     6  H    0.000000
     7  H    1.774300   0.000000
     8  H    3.726640   3.105601   0.000000
     9  H    1.774289   1.777198   2.590095   0.000000
    10  H    3.726732   2.590273   1.651717   3.105512   0.000000
 Stoichiometry    C2H7N
 Framework group  C1[X(C2H7N)]
 Deg. of freedom    24
 Full point group                 C1
 Largest Abelian subgroup         C1      NOp   1
 Largest concise Abelian subgroup C1      NOp   1
                         Standard orientation:                         
 ---------------------------------------------------------------------
 Center     Atomic     Atomic              Coordinates (Angstroms)
 Number     Number      Type              X           Y           Z
 ---------------------------------------------------------------------
    1          7      10071003       -1.297086   -0.188359    0.000038
    2          6      10061003       -0.042510    0.592520    0.000012
    3          6      10061003        1.235149   -0.277316   -0.000032
    4          1      10011000       -0.033610    1.237410   -0.882439
    5          1      10011000       -0.033574    1.237406    0.882419
    6          1      10011000        2.119140    0.363227   -0.000190
    7          1      10011000        1.261447   -0.910563    0.888609
    8          1      10011000       -1.325447   -0.794775   -0.825836
    9          1      10011000        1.261290   -0.910721   -0.888588
   10          1      10011000       -1.325473   -0.794694    0.825880
 ---------------------------------------------------------------------
 Rotational constants (GHZ):     30.9669143      8.7702311      7.7903340
 1|1|UNPC-UNK|FOpt|Dreiding|ZDO|C2H7N1|PCUSER|15-Jan-2008|0||# opt drei
 ding||ethylamine-a||0,1|N,0.581535003,-1.1788365887,-0.0002350548|C,0.
 5094830429,0.2971519271,-0.000209035|C,-0.9329341516,0.8525453821,-0.0
 001655778|H,1.0346489509,0.6715360583,0.8822414489|H,1.0346250408,0.67
 15633029,-0.8826163884|H,-0.9094370467,1.9439589958,-0.000007389|H,-1.
 4685610524,0.5137290387,-0.8888067241|H,0.0990805202,-1.5473221061,0.8
 256390873|H,-1.4686015213,0.5135093577,0.888391176|H,0.0991612142,-1.5
 472968678,-0.8260777431||Version=IA32W-G03RevD.01|HF=0.005398|RMSD=0.0
 00e+000|RMSF=2.366e-005|Thermal=0.|Dipole=0.,0.,0.|PG=C01 [X(C2H7N1)]|
 |@


 Discoveries are often made by not following instructions,
 by going off the main road, by trying the untried.
 -- Frank Tyger
 Job cpu time:  0 days  0 hours  0 minutes  3.0 seconds.
 File lengths (MBytes):  RWF=     11 Int=      0 D2E=      0 Chk=      4 Scr=      1
 Normal termination of Gaussian 03 at Tue Jan 15 16:34:35 2008.
