 Entering Link 1 = C:\G03W\l1.exe PID=      3604.
  
 Copyright (c) 1988,1990,1992,1993,1995,1998,2003,2004, Gaussian, Inc.
                  All Rights Reserved.
  
 This is the Gaussian(R) 03 program.  It is based on the
 the Gaussian(R) 98 system (copyright 1998, Gaussian, Inc.),
 the Gaussian(R) 94 system (copyright 1995, Gaussian, Inc.),
 the Gaussian 92(TM) system (copyright 1992, Gaussian, Inc.),
 the Gaussian 90(TM) system (copyright 1990, Gaussian, Inc.),
 the Gaussian 88(TM) system (copyright 1988, Gaussian, Inc.),
 the Gaussian 86(TM) system (copyright 1986, Carnegie Mellon
 University), and the Gaussian 82(TM) system (copyright 1983,
 Carnegie Mellon University). Gaussian is a federally registered
 trademark of Gaussian, Inc.
  
 This software contains proprietary and confidential information,
 including trade secrets, belonging to Gaussian, Inc.
  
 This software is provided under written license and may be
 used, copied, transmitted, or stored only in accord with that
 written license.
  
 The following legend is applicable only to US Government
 contracts under FAR:
  
                    RESTRICTED RIGHTS LEGEND
  
 Use, reproduction and disclosure by the US Government is
 subject to restrictions as set forth in subparagraphs (a)
 and (c) of the Commercial Computer Software - Restricted
 Rights clause in FAR 52.227-19.
  
 Gaussian, Inc.
 340 Quinnipiac St., Bldg. 40, Wallingford CT 06492
  
  
 ---------------------------------------------------------------
 Warning -- This program may not be used in any manner that
 competes with the business of Gaussian, Inc. or will provide
 assistance to any competitor of Gaussian, Inc.  The licensee
 of this program is prohibited from giving any competitor of
 Gaussian, Inc. access to this program.  By using this program,
 the user acknowledges that Gaussian, Inc. is engaged in the
 business of creating and licensing software in the field of
 computational chemistry and represents and warrants to the
 licensee that it is not a competitor of Gaussian, Inc. and that
 it will not use this program in any manner prohibited above.
 ---------------------------------------------------------------
  

 Cite this work as:
 Gaussian 03, Revision D.01,
 M. J. Frisch, G. W. Trucks, H. B. Schlegel, G. E. Scuseria, 
 M. A. Robb, J. R. Cheeseman, J. A. Montgomery, Jr., T. Vreven, 
 K. N. Kudin, J. C. Burant, J. M. Millam, S. S. Iyengar, J. Tomasi, 
 V. Barone, B. Mennucci, M. Cossi, G. Scalmani, N. Rega, 
 G. A. Petersson, H. Nakatsuji, M. Hada, M. Ehara, K. Toyota, 
 R. Fukuda, J. Hasegawa, M. Ishida, T. Nakajima, Y. Honda, O. Kitao, 
 H. Nakai, M. Klene, X. Li, J. E. Knox, H. P. Hratchian, J. B. Cross, 
 V. Bakken, C. Adamo, J. Jaramillo, R. Gomperts, R. E. Stratmann, 
 O. Yazyev, A. J. Austin, R. Cammi, C. Pomelli, J. W. Ochterski, 
 P. Y. Ayala, K. Morokuma, G. A. Voth, P. Salvador, J. J. Dannenberg, 
 V. G. Zakrzewski, S. Dapprich, A. D. Daniels, M. C. Strain, 
 O. Farkas, D. K. Malick, A. D. Rabuck, K. Raghavachari, 
 J. B. Foresman, J. V. Ortiz, Q. Cui, A. G. Baboul, S. Clifford, 
 J. Cioslowski, B. B. Stefanov, G. Liu, A. Liashenko, P. Piskorz, 
 I. Komaromi, R. L. Martin, D. J. Fox, T. Keith, M. A. Al-Laham, 
 C. Y. Peng, A. Nanayakkara, M. Challacombe, P. M. W. Gill, 
 B. Johnson, W. Chen, M. W. Wong, C. Gonzalez, and J. A. Pople, 
 Gaussian, Inc., Wallingford CT, 2004.
 
 ******************************************
 Gaussian 03:  IA32W-G03RevD.01 13-Oct-2005
                11-Mar-2008 
 ******************************************
 --------------
 # opt dreiding
 --------------
 1/6=10,10=10,14=-1,18=4000020,38=1,56=1,64=1/1,3;
 2/9=110,17=6,18=5,40=1/2;
 3/5=30,11=9,16=1,25=1,30=1/1;
 4/20=9,22=1001,24=3/2;
 7/44=-1/16;
 1/6=10,10=10,14=-1,18=4000020,64=1/3(2);
 2/9=110/2;
 99//99;
 2/9=110/2;
 3/5=30,11=9,16=1,25=1,30=1/1;
 4/16=2,20=9,22=1001,24=3/2;
 7/44=-1/16;
 1/6=10,10=10,14=-1,18=4000020,64=1/3(-4);
 2/9=110/2;
 99//99;
 ---------------
 formamidine-cis
 ---------------
 Symbolic Z-matrix:
 Charge =  0 Multiplicity = 1
 C                    -0.44563  -0.14808   0.0085 
 N                    -0.48863   1.13592  -0.0125 
 N                     0.70638  -0.83508   0.0045 
 H                    -1.35363  -0.77208   0.0325 
 H                     0.35538   1.66192  -0.0335 
 H                     0.60138  -1.84708   0.0235 
 H                     1.54638  -0.26008  -0.0175 
 
 I=    1 IAn=  6 Valence= 6.
          JB=  1 J=    2 IAn=  7 IBT= 2 Dist= 1.28D+00
          JB=  2 J=    3 IAn=  7 IBT=12 Dist= 1.34D+00
          JB=  3 J=    4 IAn=  1 IBT= 1 Dist= 1.10D+00
 I=    2 IAn=  7 Valence= 4.
          JB=  1 J=    1 IAn=  6 IBT= 2 Dist= 1.28D+00
          JB=  2 J=    5 IAn=  1 IBT= 1 Dist= 9.95D-01
 I=    3 IAn=  7 Valence=36.
          JB=  1 J=    1 IAn=  6 IBT=12 Dist= 1.34D+00
          JB=  2 J=    6 IAn=  1 IBT= 1 Dist= 1.02D+00
          JB=  3 J=    7 IAn=  1 IBT= 1 Dist= 1.02D+00
 Include all MM classes
 MMInit generated parameter data with length LenPar=   535.

 GradGradGradGradGradGradGradGradGradGradGradGradGradGradGradGradGradGrad
 Berny optimization.
 Initialization pass.
 No Z-matrix variables, so optimization will use Cartesian coordinates.
 Trust Radius=1.00D-01 FncErr=1.00D-07 GrdErr=1.00D-07
 Number of steps in this run=   2 maximum allowed number of steps=   2.
 GradGradGradGradGradGradGradGradGradGradGradGradGradGradGradGradGradGrad

                          Input orientation:                          
 ---------------------------------------------------------------------
 Center     Atomic     Atomic              Coordinates (Angstroms)
 Number     Number      Type              X           Y           Z
 ---------------------------------------------------------------------
    1          6      10061000       -0.445625   -0.148083    0.008500
    2          7      10071002       -0.488625    1.135917   -0.012500
    3          7      10071000        0.706375   -0.835083    0.004500
    4          1      10011000       -1.353625   -0.772083    0.032500
    5          1      10011000        0.355375    1.661917   -0.033500
    6          1      10011000        0.601375   -1.847083    0.023500
    7          1      10011000        1.546375   -0.260083   -0.017500
 ---------------------------------------------------------------------
                    Distance matrix (angstroms):
                    1          2          3          4          5
     1  C    0.000000
     2  N    1.284891   0.000000
     3  N    1.341301   2.305028   0.000000
     4  H    1.102005   2.095403   2.061153   0.000000
     5  H    1.979764   0.994713   2.521835   2.974793   0.000000
     6  H    1.995754   3.176112   1.017610   2.231083   3.518074
     7  H    1.995316   2.467806   1.018189   2.945275   2.261155
                    6          7
     6  H    0.000000
     7  H    1.847505   0.000000
 Stoichiometry    CH4N2
 Framework group  C1[X(CH4N2)]
 Deg. of freedom    15
 Full point group                 C1
 Largest Abelian subgroup         C1      NOp   1
 Largest concise Abelian subgroup C1      NOp   1
                         Standard orientation:                         
 ---------------------------------------------------------------------
 Center     Atomic     Atomic              Coordinates (Angstroms)
 Number     Number      Type              X           Y           Z
 ---------------------------------------------------------------------
    1          6      10061000        0.081524    0.462533   -0.000279
    2          7      10071002        1.231693   -0.110231    0.000122
    3          7      10071000       -1.070505   -0.224431    0.000083
    4          1      10011000       -0.035922    1.558262    0.000311
    5          1      10011000        1.293329   -1.103032   -0.000044
    6          1      10011000       -1.911011    0.349224    0.000270
    7          1      10011000       -0.963852   -1.237018   -0.000299
 ---------------------------------------------------------------------
 Rotational constants (GHZ):     57.7446752     11.5803543      9.6459221
 Standard basis: Dummy (5D, 7F)
 There are     7 symmetry adapted basis functions of A   symmetry.
 Integral buffers will be    262144 words long.
 Raffenetti 1 integral format.
 Two-electron integral symmetry is turned on.
     7 basis functions,     7 primitive gaussians,     7 cartesian basis functions
     4 alpha electrons        4 beta electrons
       nuclear repulsion energy         8.3355270145 Hartrees.
 NAtoms=    7 NActive=    7 NUniq=    7 SFac= 7.50D-01 NAtFMM=   80 NAOKFM=F Big=F
 Dreiding calculation of energy and first derivatives.
 MO and density RWFs will be updated without deorthogonalization.
 NRF= 0 NRA=   0 NVA=   7 HaveQM=F
 Convergence limit is  0.750E-04 MaxStp=  5000 StMxLn= 1.00D-04 StpMin= 1.00D-06.
 Convergence criteria           0.00011250 0.00007500 0.00045000 0.00030000
  Step  NS  ND Rises OKQ   Scale  Max. Force  RMS Force Max. Disp.  RMS Disp.     Energy   Flag
     1   0   0   F    T  1.00D+00 0.06478502 0.02706178 0.06478502 0.02706178    0.0194385 ----
     2   0   0   F    F -6.65D-02 0.06478502 0.02706178 0.06478502 0.02706178    0.0122881 ----
     3   0   0   F    T  1.47D+00 0.03524611 0.01503846 0.04273215 0.01720450    0.0122515 ----
     4   0   0   F    F  3.38D-01 0.03524611 0.01503846 0.06274782 0.02526306    0.0078936 ----
     5   0   0   F    T  1.96D+00 0.03071654 0.01251724 0.04133608 0.01723088    0.0075974 ----
     6   0   0   F    F -4.33D-01 0.03071654 0.01251724 0.08110935 0.03381031    0.0068455 ----
     7   0   0   F    T  2.26D+00 0.01677550 0.00684209 0.01649540 0.00848210    0.0057621 ----
     8   0   0   F    F -3.56D-02 0.01677550 0.00684209 0.03726645 0.01916280    0.0046908 ----
     9   0   0   F    T  4.40D+00 0.01002105 0.00354385 0.00867918 0.00420170    0.0046894 ----
    10   0   0   F    F -1.63D-01 0.01002105 0.00354385 0.03817294 0.01848002    0.0042226 ----
    11   0   0   F    T  3.37D+00 0.00785071 0.00315197 0.01152301 0.00459009    0.0042043 ----
    12   0   0   T    F  3.15D-01 0.00785071 0.00315197 0.03884429 0.01547329    0.0046174 ----
    13   0   0   F    T  1.72D+00 0.00481332 0.00205134 0.00671171 0.00283128    0.0040936 ----
    14   0   0   F    F -1.34D-01 0.00481332 0.00205134 0.01154662 0.00487085    0.0040294 ----
    15   0   0   F    T  1.95D+00 0.00327054 0.00151200 0.00643943 0.00215933    0.0040278 ----
    16   0   0   F    F  9.77D-01 0.00327054 0.00151200 0.01258429 0.00421989    0.0039578 ----
    17   0   0   F    T  6.61D+00 0.00197572 0.00093888 0.00381572 0.00126148    0.0039353 ----
    18   0   0   T    F  2.84D-01 0.00197572 0.00093888 0.02523003 0.00834104    0.0040279 ----
    19   0   0   F    T  1.28D+00 0.00238269 0.00103500 0.00566273 0.00185381    0.0039179 ----
    20   0   0   F    F  2.04D+00 0.00238269 0.00103500 0.00724219 0.00237088    0.0038939 ----
    21   0   0   F    T  3.11D+00 0.00326520 0.00108174 0.00619599 0.00231681    0.0038743 ----
    22   0   0   T    F  2.91D-01 0.00326520 0.00108174 0.01927289 0.00720653    0.0039294 ----
    23   0   0   F    T  2.60D+00 0.00153426 0.00054565 0.00154225 0.00080538    0.0038632 ----
    24   0   0   F    F -4.42D-01 0.00153426 0.00054565 0.00401105 0.00209460    0.0038615 ----
    25   0   0   F    T  7.60D+00 0.00044000 0.00014354 0.00041068 0.00015389    0.0038586 --++
    26   0   0   F    F -2.08D-01 0.00044000 0.00014354 0.00312085 0.00116944    0.0038574 ----
    27   0   0   F    T  2.66D+00 0.00059753 0.00019612 0.00078074 0.00034789    0.0038573 ----
    28   0   0   T    F  3.28D-01 0.00059753 0.00019612 0.00207844 0.00092612    0.0038584 ----
    29   0   0   F    T  2.52D+00 0.00024721 0.00009246 0.00034166 0.00012047    0.0038570 --++
    30   0   0   F    F -4.37D-01 0.00024721 0.00009246 0.00086239 0.00030408    0.0038569 ----
    31   0   0   F    T  2.71D+00 0.00012746 0.00005115 0.00018928 0.00006306    0.0038568 -+++
    32   0   0   F    F -2.55D-01 0.00012746 0.00005115 0.00051345 0.00017106    0.0038568 -+-+
    33   0   0   F    T  3.55D+00 0.00007436 0.00002931 0.00008843 0.00003589    0.0038568 ====
 Energy=    0.003856786677 NIter=   0.
 Dipole moment=       0.000000       0.000000       0.000000
 ***** Axes restored to original set *****
 -------------------------------------------------------------------
 Center     Atomic                   Forces (Hartrees/Bohr)
 Number     Number              X              Y              Z
 -------------------------------------------------------------------
    1          6          -0.000060665   -0.000044092    0.000002329
    2          7           0.000017617    0.000069826   -0.000001449
    3          7           0.000010357   -0.000027742   -0.000000653
    4          1           0.000060833    0.000020123   -0.000001693
    5          1          -0.000033852   -0.000015649    0.000000889
    6          1           0.000005111    0.000018994    0.000000332
    7          1           0.000000599   -0.000021459    0.000000245
 -------------------------------------------------------------------
 Cartesian Forces:  Max     0.000069826 RMS     0.000029312

 GradGradGradGradGradGradGradGradGradGradGradGradGradGradGradGradGradGrad
 Berny optimization.
 Search for a local minimum.
 Step number   1 out of a maximum of   2
 All quantities printed in internal units (Hartrees-Bohrs-Radians)
 Second derivative matrix not updated -- unit matrix used.
 RFO step:  Lambda=-1.80431908D-08.
 Linear search not attempted -- first point.
 TrRot=  0.000000  0.000000  0.000000  0.000000  0.000000  0.000000
 Variable       Old X    -DE/DX   Delta X   Delta X   Delta X     New X
                                 (Linear)    (Quad)   (Total)
    X1       -0.85329  -0.00006   0.00000  -0.00006  -0.00006  -0.85335
    Y1       -0.29940  -0.00004   0.00000  -0.00004  -0.00004  -0.29944
    Z1        0.01720   0.00000   0.00000   0.00000   0.00000   0.01720
    X2       -0.95628   0.00002   0.00000   0.00002   0.00002  -0.95626
    Y2        2.17443   0.00007   0.00000   0.00007   0.00007   2.17450
    Z2       -0.02382   0.00000   0.00000   0.00000   0.00000  -0.02382
    X3        1.32935   0.00001   0.00000   0.00001   0.00001   1.32936
    Y3       -1.61111  -0.00003   0.00000  -0.00003  -0.00003  -1.61114
    Z3        0.00900   0.00000   0.00000   0.00000   0.00000   0.00900
    X4       -2.52660   0.00006   0.00000   0.00006   0.00006  -2.52654
    Y4       -1.26471   0.00002   0.00000   0.00002   0.00002  -1.26469
    Z4        0.05734   0.00000   0.00000   0.00000   0.00000   0.05734
    X5        0.49274  -0.00003   0.00000  -0.00003  -0.00003   0.49271
    Y5        3.19376  -0.00002   0.00000  -0.00002  -0.00002   3.19374
    Z5       -0.06168   0.00000   0.00000   0.00000   0.00000  -0.06168
    X6        1.29934   0.00001   0.00000   0.00001   0.00001   1.29935
    Y6       -3.44768   0.00002   0.00000   0.00002   0.00002  -3.44766
    Z6        0.04136   0.00000   0.00000   0.00000   0.00000   0.04136
    X7        2.95636   0.00000   0.00000   0.00000   0.00000   2.95636
    Y7       -0.75706  -0.00002   0.00000  -0.00002  -0.00002  -0.75708
    Z7       -0.02900   0.00000   0.00000   0.00000   0.00000  -0.02900
         Item               Value     Threshold  Converged?
 Maximum Force            0.000070     0.000450     YES
 RMS     Force            0.000029     0.000300     YES
 Maximum Displacement     0.000070     0.001800     YES
 RMS     Displacement     0.000029     0.001200     YES
 Predicted change in Energy=-9.021595D-09
 Optimization completed.
    -- Stationary point found.
 GradGradGradGradGradGradGradGradGradGradGradGradGradGradGradGradGradGrad

                          Input orientation:                          
 ---------------------------------------------------------------------
 Center     Atomic     Atomic              Coordinates (Angstroms)
 Number     Number      Type              X           Y           Z
 ---------------------------------------------------------------------
    1          6      10061000       -0.451543   -0.158435    0.009102
    2          7      10071002       -0.506040    1.150658   -0.012603
    3          7      10071000        0.703459   -0.852565    0.004761
    4          1      10011000       -1.337022   -0.669255    0.030341
    5          1      10011000        0.260748    1.690065   -0.032642
    6          1      10011000        0.687582   -1.824433    0.021889
    7          1      10011000        1.564440   -0.400618   -0.015348
 ---------------------------------------------------------------------
                    Distance matrix (angstroms):
                    1          2          3          4          5
     1  C    0.000000
     2  N    1.310407   0.000000
     3  N    1.347541   2.340105   0.000000
     4  H    1.022477   2.001114   2.048858   0.000000
     5  H    1.981428   0.937724   2.581155   2.850128   0.000000
     6  H    2.018246   3.205790   0.972148   2.330993   3.540743
     7  H    2.030625   2.587151   0.972599   2.914229   2.463913
                    6          7
     6  H    0.000000
     7  H    1.672577   0.000000
 Stoichiometry    CH4N2
 Framework group  C1[X(CH4N2)]
 Deg. of freedom    15
 Full point group                 C1
 Largest Abelian subgroup         C1      NOp   1
 Largest concise Abelian subgroup C1      NOp   1
                         Standard orientation:                         
 ---------------------------------------------------------------------
 Center     Atomic     Atomic              Coordinates (Angstroms)
 Number     Number      Type              X           Y           Z
 ---------------------------------------------------------------------
    1          6      10061000        0.084112    0.464157   -0.000024
    2          7      10071002        1.249988   -0.134090    0.000014
    3          7      10071000       -1.089231   -0.198514    0.000004
    4          1      10011000        0.076186    1.486604   -0.000069
    5          1      10011000        1.341298   -1.067358    0.000075
    6          1      10011000       -1.927003    0.294648    0.000195
    7          1      10011000       -1.120450   -1.170611   -0.000179
 ---------------------------------------------------------------------
 Rotational constants (GHZ):     61.4815011     11.1431555      9.4334068
 1|1|UNPC-UNK|FOpt|Dreiding|ZDO|C1H4N2|PCUSER|11-Mar-2008|0||# opt drei
 ding||formamidine-cis||0,1|C,-0.4515431918,-0.1584354388,0.0091017261|
 N,-0.5060399645,1.150657876,-0.0126033643|N,0.7034593457,-0.8525651683
 ,0.0047607807|H,-1.3370216803,-0.6692551353,0.0303414604|H,0.260748477
 ,1.6900653248,-0.0326419421|H,0.6875822894,-1.8244328264,0.0218889974|
 H,1.5644397244,-0.4006179421,-0.0153476582||Version=IA32W-G03RevD.01|H
 F=0.0038568|RMSD=0.000e+000|RMSF=2.931e-005|Thermal=0.|Dipole=0.,0.,0.
 |PG=C01 [X(C1H4N2)]||@


 THE NUMBERS ARE MEANINGLESS, BUT THE TRENDS ARE IMPORTANT.
     -- LARRY BURGGRAF
 Job cpu time:  0 days  0 hours  0 minutes  2.0 seconds.
 File lengths (MBytes):  RWF=     11 Int=      0 D2E=      0 Chk=      4 Scr=      1
 Normal termination of Gaussian 03 at Tue Mar 11 13:40:08 2008.
