 Entering Link 1 = C:\G03W\l1.exe PID=      2180.
  
 Copyright (c) 1988,1990,1992,1993,1995,1998,2003,2004, Gaussian, Inc.
                  All Rights Reserved.
  
 This is the Gaussian(R) 03 program.  It is based on the
 the Gaussian(R) 98 system (copyright 1998, Gaussian, Inc.),
 the Gaussian(R) 94 system (copyright 1995, Gaussian, Inc.),
 the Gaussian 92(TM) system (copyright 1992, Gaussian, Inc.),
 the Gaussian 90(TM) system (copyright 1990, Gaussian, Inc.),
 the Gaussian 88(TM) system (copyright 1988, Gaussian, Inc.),
 the Gaussian 86(TM) system (copyright 1986, Carnegie Mellon
 University), and the Gaussian 82(TM) system (copyright 1983,
 Carnegie Mellon University). Gaussian is a federally registered
 trademark of Gaussian, Inc.
  
 This software contains proprietary and confidential information,
 including trade secrets, belonging to Gaussian, Inc.
  
 This software is provided under written license and may be
 used, copied, transmitted, or stored only in accord with that
 written license.
  
 The following legend is applicable only to US Government
 contracts under FAR:
  
                    RESTRICTED RIGHTS LEGEND
  
 Use, reproduction and disclosure by the US Government is
 subject to restrictions as set forth in subparagraphs (a)
 and (c) of the Commercial Computer Software - Restricted
 Rights clause in FAR 52.227-19.
  
 Gaussian, Inc.
 340 Quinnipiac St., Bldg. 40, Wallingford CT 06492
  
  
 ---------------------------------------------------------------
 Warning -- This program may not be used in any manner that
 competes with the business of Gaussian, Inc. or will provide
 assistance to any competitor of Gaussian, Inc.  The licensee
 of this program is prohibited from giving any competitor of
 Gaussian, Inc. access to this program.  By using this program,
 the user acknowledges that Gaussian, Inc. is engaged in the
 business of creating and licensing software in the field of
 computational chemistry and represents and warrants to the
 licensee that it is not a competitor of Gaussian, Inc. and that
 it will not use this program in any manner prohibited above.
 ---------------------------------------------------------------
  

 Cite this work as:
 Gaussian 03, Revision D.01,
 M. J. Frisch, G. W. Trucks, H. B. Schlegel, G. E. Scuseria, 
 M. A. Robb, J. R. Cheeseman, J. A. Montgomery, Jr., T. Vreven, 
 K. N. Kudin, J. C. Burant, J. M. Millam, S. S. Iyengar, J. Tomasi, 
 V. Barone, B. Mennucci, M. Cossi, G. Scalmani, N. Rega, 
 G. A. Petersson, H. Nakatsuji, M. Hada, M. Ehara, K. Toyota, 
 R. Fukuda, J. Hasegawa, M. Ishida, T. Nakajima, Y. Honda, O. Kitao, 
 H. Nakai, M. Klene, X. Li, J. E. Knox, H. P. Hratchian, J. B. Cross, 
 V. Bakken, C. Adamo, J. Jaramillo, R. Gomperts, R. E. Stratmann, 
 O. Yazyev, A. J. Austin, R. Cammi, C. Pomelli, J. W. Ochterski, 
 P. Y. Ayala, K. Morokuma, G. A. Voth, P. Salvador, J. J. Dannenberg, 
 V. G. Zakrzewski, S. Dapprich, A. D. Daniels, M. C. Strain, 
 O. Farkas, D. K. Malick, A. D. Rabuck, K. Raghavachari, 
 J. B. Foresman, J. V. Ortiz, Q. Cui, A. G. Baboul, S. Clifford, 
 J. Cioslowski, B. B. Stefanov, G. Liu, A. Liashenko, P. Piskorz, 
 I. Komaromi, R. L. Martin, D. J. Fox, T. Keith, M. A. Al-Laham, 
 C. Y. Peng, A. Nanayakkara, M. Challacombe, P. M. W. Gill, 
 B. Johnson, W. Chen, M. W. Wong, C. Gonzalez, and J. A. Pople, 
 Gaussian, Inc., Wallingford CT, 2004.
 
 ******************************************
 Gaussian 03:  IA32W-G03RevD.01 13-Oct-2005
                11-Mar-2008 
 ******************************************
 --------------
 # opt dreiding
 --------------
 1/6=10,10=10,14=-1,18=4000020,38=1,56=1,64=1/1,3;
 2/9=110,17=6,18=5,40=1/2;
 3/5=30,11=9,16=1,25=1,30=1/1;
 4/20=9,22=1001,24=3/2;
 7/44=-1/16;
 1/6=10,10=10,14=-1,18=4000020,64=1/3(2);
 2/9=110/2;
 99//99;
 2/9=110/2;
 3/5=30,11=9,16=1,25=1,30=1/1;
 4/16=2,20=9,22=1001,24=3/2;
 7/44=-1/16;
 1/6=10,10=10,14=-1,18=4000020,64=1/3(-4);
 2/9=110/2;
 99//99;
 ----------------
 isopropylamine-g
 ----------------
 Symbolic Z-matrix:
 Charge =  0 Multiplicity = 1
 C                     0.24794  -1.40944  -0.30844 
 C                     0.22594   0.12556  -0.30444 
 C                    -1.21206   0.66356  -0.32244 
 N                     0.90694   0.61756   0.87056 
 H                     1.29294  -1.79544  -0.29944 
 H                    -0.27506  -1.82244   0.58456 
 H                    -0.25306  -1.81544  -1.21744 
 H                     0.76894   0.50656  -1.20344 
 H                    -1.22406   1.77756  -0.32644 
 H                    -1.75806   0.31756  -1.23044 
 H                    -1.78206   0.31956   0.57056 
 H                     0.85294   1.63456   0.92056 
 H                     0.45794   0.27656   1.71956 
 
 Include all MM classes
 MMInit generated parameter data with length LenPar=  1283.

 GradGradGradGradGradGradGradGradGradGradGradGradGradGradGradGradGradGrad
 Berny optimization.
 Initialization pass.
 No Z-matrix variables, so optimization will use Cartesian coordinates.
 Trust Radius=1.00D-01 FncErr=1.00D-07 GrdErr=1.00D-07
 Number of steps in this run=   2 maximum allowed number of steps=   2.
 GradGradGradGradGradGradGradGradGradGradGradGradGradGradGradGradGradGrad

                          Input orientation:                          
 ---------------------------------------------------------------------
 Center     Atomic     Atomic              Coordinates (Angstroms)
 Number     Number      Type              X           Y           Z
 ---------------------------------------------------------------------
    1          6      10061003        0.247941   -1.409441   -0.308441
    2          6      10061003        0.225941    0.125559   -0.304441
    3          6      10061003       -1.212059    0.663559   -0.322441
    4          7      10071003        0.906941    0.617559    0.870559
    5          1      10011000        1.292941   -1.795441   -0.299441
    6          1      10011000       -0.275059   -1.822441    0.584559
    7          1      10011000       -0.253059   -1.815441   -1.217441
    8          1      10011000        0.768941    0.506559   -1.203441
    9          1      10011000       -1.224059    1.777559   -0.326441
   10          1      10011000       -1.758059    0.317559   -1.230441
   11          1      10011000       -1.782059    0.319559    0.570559
   12          1      10011000        0.852941    1.634559    0.920559
   13          1      10011000        0.457941    0.276559    1.719559
 ---------------------------------------------------------------------
                    Distance matrix (angstroms):
                    1          2          3          4          5
     1  C    0.000000
     2  C    1.535163   0.000000
     3  C    2.535572   1.535452   0.000000
     4  N    2.435785   1.444455   2.432185   0.000000
     5  H    1.114048   2.197443   3.510304   2.709329   0.000000
     6  H    1.114247   2.199097   2.807279   2.726265   1.800225
     7  H    1.114503   2.197838   2.804665   3.409521   1.798121
     8  H    2.177963   1.117234   2.173746   2.081548   2.528042
     9  H    3.510566   2.198201   1.114072   2.705470   4.370623
    10  H    2.802971   2.197862   1.114583   3.406821   3.826242
    11  H    2.807665   2.198937   1.113860   2.722044   3.832199
    12  H    3.338024   2.042262   2.598483   1.019659   3.667001
    13  H    2.645653   2.042841   2.666164   1.019158   3.011108
                    6          7          8          9         10
     6  H    0.000000
     7  H    1.802148   0.000000
     8  H    3.116267   2.536999   0.000000
     9  H    3.832822   3.827058   2.521234   0.000000
    10  H    3.173817   2.610533   2.534202   1.798325   0.000000
    11  H    2.619047   3.176950   3.112820   1.800482   1.801161
    12  H    3.651867   4.206754   2.406411   2.426806   3.630236
    13  H    2.496260   3.675317   2.948483   3.044379   3.689829
                   11         12         13
    11  H    0.000000
    12  H    2.965628   0.000000
    13  H    2.517866   1.624374   0.000000
 Stoichiometry    C3H9N
 Framework group  C1[X(C3H9N)]
 Deg. of freedom    33
 Full point group                 C1
 Largest Abelian subgroup         C1      NOp   1
 Largest concise Abelian subgroup C1      NOp   1
                         Standard orientation:                         
 ---------------------------------------------------------------------
 Center     Atomic     Atomic              Coordinates (Angstroms)
 Number     Number      Type              X           Y           Z
 ---------------------------------------------------------------------
    1          6      10061003        1.438627   -0.253981    0.094777
    2          6      10061003        0.013278    0.033263   -0.397764
    3          6      10061003       -0.977788   -1.021895    0.114138
    4          7      10071003       -0.402330    1.340490    0.054870
    5          1      10011000        2.154937    0.511475   -0.282157
    6          1      10011000        1.489288   -0.248509    1.207858
    7          1      10011000        1.792514   -1.249599   -0.259660
    8          1      10011000        0.000081    0.034095   -1.514919
    9          1      10011000       -2.009681   -0.814165   -0.250828
   10          1      10011000       -0.695024   -2.041139   -0.237261
   11          1      10011000       -1.007083   -1.040441    1.227459
   12          1      10011000       -1.368256    1.526048   -0.213941
   13          1      10011000       -0.385163    1.394479    1.072452
 ---------------------------------------------------------------------
 Rotational constants (GHZ):      8.4859344      7.7376548      4.7260632
 Standard basis: Dummy (5D, 7F)
 There are    13 symmetry adapted basis functions of A   symmetry.
 Integral buffers will be    262144 words long.
 Raffenetti 1 integral format.
 Two-electron integral symmetry is turned on.
    13 basis functions,    13 primitive gaussians,    13 cartesian basis functions
     8 alpha electrons        8 beta electrons
       nuclear repulsion energy        29.8481370115 Hartrees.
 NAtoms=   13 NActive=   13 NUniq=   13 SFac= 7.50D-01 NAtFMM=   80 NAOKFM=F Big=F
 Dreiding calculation of energy and first derivatives.
 MO and density RWFs will be updated without deorthogonalization.
 NRF= 0 NRA=   0 NVA=  13 HaveQM=F
 Convergence limit is  0.750E-04 MaxStp=  5000 StMxLn= 1.00D-04 StpMin= 1.00D-06.
 Convergence criteria           0.00011250 0.00007500 0.00045000 0.00030000
  Step  NS  ND Rises OKQ   Scale  Max. Force  RMS Force Max. Disp.  RMS Disp.     Energy   Flag
     1   0   0   F    T  1.00D+00 0.02881181 0.01068200 0.02881181 0.01068200    0.0143327 ----
     2   0   0   F    F  3.63D-01 0.02881181 0.01068200 0.02881181 0.01068200    0.0115235 ----
     3   0   0   F    T  4.12D+00 0.01312336 0.00337364 0.01126281 0.00353789    0.0113102 ----
     4   0   0   F    F -4.63D-01 0.01312336 0.00337364 0.04634957 0.01455941    0.0111852 ----
     5   0   0   F    T  2.91D+00 0.00676060 0.00221528 0.00724512 0.00268851    0.0108197 ----
     6   0   0   F    F  3.01D-01 0.00676060 0.00221528 0.02106247 0.00781585    0.0104774 ----
     7   0   0   F    T  3.20D+00 0.00632779 0.00208846 0.00853743 0.00317603    0.0104581 ----
     8   0   0   F    F -1.54D-01 0.00632779 0.00208846 0.02734188 0.01017153    0.0102358 ----
     9   0   0   F    T  4.04D+00 0.00289604 0.00145772 0.00611282 0.00213138    0.0102281 ----
    10   0   0   F    F  4.37D-01 0.00289604 0.00145772 0.02466695 0.00860073    0.0100108 ----
    11   0   0   F    T  2.78D+00 0.00575522 0.00198188 0.01283494 0.00443781    0.0099888 ----
    12   0   0   F    F -1.93D-01 0.00575522 0.00198188 0.03574000 0.01235746    0.0098264 ----
    13   0   0   F    T  6.89D+00 0.00208091 0.00096390 0.00353101 0.00144789    0.0098165 ----
    14   0   0   T    F  4.74D-01 0.00208091 0.00096390 0.02432032 0.00997255    0.0098307 ----
    15   0   0   F    T  3.21D+00 0.00256765 0.00087265 0.00377749 0.00147116    0.0097573 ----
    16   0   0   F    F  3.05D-01 0.00256765 0.00087265 0.01213628 0.00472652    0.0096987 ----
    17   0   0   F    T  6.30D+00 0.00167577 0.00062273 0.00315558 0.00097822    0.0096954 ----
    18   0   0   T    F  4.96D-01 0.00167577 0.00062273 0.01989301 0.00616676    0.0096963 ----
    19   0   0   F    T  2.79D+00 0.00159353 0.00060123 0.00369421 0.00109584    0.0096717 ----
    20   0   0   F    F  3.61D-01 0.00159353 0.00060123 0.01030343 0.00305639    0.0096468 ----
    21   0   0   F    T  6.00D+00 0.00109907 0.00042598 0.00190366 0.00069291    0.0096449 ----
    22   0   0   T    F  3.31D-01 0.00109907 0.00042598 0.01142792 0.00415965    0.0096667 ----
    23   0   0   F    T  2.61D+00 0.00081192 0.00032894 0.00151473 0.00052685    0.0096379 ----
    24   0   0   F    F  1.52D+00 0.00081192 0.00032894 0.00395663 0.00137619    0.0096291 ----
    25   0   0   F    T  4.40D+00 0.00112966 0.00037735 0.00262842 0.00078879    0.0096240 ----
    26   0   0   F    F -2.21D-01 0.00112966 0.00037735 0.01156134 0.00346957    0.0096153 ----
    27   0   0   F    T  2.80D+00 0.00098358 0.00039728 0.00352730 0.00096517    0.0096145 ----
    28   0   0   F    F  7.34D-01 0.00098358 0.00039728 0.00987497 0.00270207    0.0096023 ----
    29   0   0   F    T  3.56D+00 0.00121939 0.00044812 0.00490137 0.00131643    0.0095996 ----
    30   0   0   F    F  8.69D-01 0.00121939 0.00044812 0.01744886 0.00468647    0.0095791 ----
    31   0   0   F    T  3.60D+00 0.00169199 0.00060252 0.00893009 0.00243588    0.0095734 ----
    32   0   0   F    F -4.83D-01 0.00169199 0.00060252 0.03210944 0.00875858    0.0095718 ----
    33   0   0   F    T  1.40D+01 0.00050710 0.00020334 0.00107972 0.00032410    0.0095602 ----
    34   0   0   T    F  4.34D-01 0.00050710 0.00020334 0.01508258 0.00452738    0.0095636 ----
    35   0   0   F    T  5.12D+00 0.00065230 0.00020363 0.00126067 0.00038395    0.0095554 ----
    36   0   0   T    F  3.00D-01 0.00065230 0.00020363 0.00645440 0.00196574    0.0095609 ----
    37   0   0   F    T  4.32D+00 0.00025009 0.00010006 0.00038724 0.00013640    0.0095541 --++
    38   0   0   F    F  7.34D-01 0.00025009 0.00010006 0.00167279 0.00058924    0.0095529 ----
    39   0   0   F    T  3.85D+00 0.00032637 0.00013037 0.00071954 0.00026564    0.0095527 ---+
    40   0   0   F    F -2.93D-01 0.00032637 0.00013037 0.00276710 0.00102157    0.0095519 ----
    41   0   0   F    T  6.77D+00 0.00016953 0.00007129 0.00029673 0.00010672    0.0095517 -+++
    42   0   0   F    F -3.02D-01 0.00016953 0.00007129 0.00200903 0.00072259    0.0095514 -+--
    43   0   0   F    T  2.19D+00 0.00034287 0.00009945 0.00068525 0.00023030    0.0095513 ---+
    44   0   0   F    F  1.12D+00 0.00034287 0.00009945 0.00150130 0.00050456    0.0095506 ----
    45   0   0   F    T  5.27D+00 0.00017925 0.00008851 0.00048789 0.00020295    0.0095504 ---+
    46   0   0   T    F  4.93D-01 0.00017925 0.00008851 0.00257201 0.00106992    0.0095504 ----
    47   0   0   F    T  3.26D+00 0.00018094 0.00007448 0.00038318 0.00016196    0.0095500 -+++
    48   0   0   F    F  1.90D-01 0.00018094 0.00007448 0.00124744 0.00052725    0.0095496 -+--
    49   0   0   F    T  4.89D+00 0.00020867 0.00006207 0.00032787 0.00012845    0.0095496 -+++
    50   0   0   F    F -4.38D-01 0.00020867 0.00006207 0.00160216 0.00062769    0.0095495 -+--
    51   0   0   F    T  3.67D+00 0.00012447 0.00004967 0.00029567 0.00009604    0.0095494 -+++
    52   0   0   F    F -1.52D-01 0.00012447 0.00004967 0.00108613 0.00035278    0.0095492 -+--
    53   0   0   F    T  3.16D+00 0.00012888 0.00004609 0.00030565 0.00009466    0.0095492 -+++
    54   0   0   F    F  2.72D-01 0.00012888 0.00004609 0.00096551 0.00029902    0.0095491 -+-+
    55   0   0   F    T  5.23D+00 0.00008331 0.00003740 0.00022978 0.00007273    0.0095490 ====
 Energy=    0.009549047011 NIter=   0.
 Dipole moment=       0.000000       0.000000       0.000000
 ***** Axes restored to original set *****
 -------------------------------------------------------------------
 Center     Atomic                   Forces (Hartrees/Bohr)
 Number     Number              X              Y              Z
 -------------------------------------------------------------------
    1          6          -0.000068397    0.000035085    0.000021347
    2          6           0.000003293   -0.000014349    0.000024566
    3          6           0.000006978   -0.000001082   -0.000076487
    4          7           0.000036485   -0.000027041    0.000035542
    5          1           0.000043151    0.000006959    0.000011220
    6          1          -0.000055929    0.000018900    0.000049638
    7          1           0.000003680   -0.000018775   -0.000007787
    8          1           0.000014146    0.000043806   -0.000025738
    9          1          -0.000023935   -0.000028843    0.000008824
   10          1           0.000002511    0.000062579   -0.000011716
   11          1          -0.000026760   -0.000105316    0.000027759
   12          1           0.000044736    0.000055541   -0.000006643
   13          1           0.000020042   -0.000027463   -0.000050525
 -------------------------------------------------------------------
 Cartesian Forces:  Max     0.000105316 RMS     0.000037404

 GradGradGradGradGradGradGradGradGradGradGradGradGradGradGradGradGradGrad
 Berny optimization.
 Search for a local minimum.
 Step number   1 out of a maximum of   2
 All quantities printed in internal units (Hartrees-Bohrs-Radians)
 Second derivative matrix not updated -- unit matrix used.
 RFO step:  Lambda=-5.45635718D-08.
 Linear search not attempted -- first point.
 TrRot=  0.000000  0.000000  0.000000  0.000000  0.000000  0.000000
 Variable       Old X    -DE/DX   Delta X   Delta X   Delta X     New X
                                 (Linear)    (Quad)   (Total)
    X1        0.46610  -0.00007   0.00000  -0.00007  -0.00007   0.46603
    Y1       -2.69765   0.00004   0.00000   0.00004   0.00004  -2.69762
    Z1       -0.60737   0.00002   0.00000   0.00002   0.00002  -0.60735
    X2        0.37949   0.00000   0.00000   0.00000   0.00000   0.37950
    Y2        0.22882  -0.00001   0.00000  -0.00001  -0.00001   0.22880
    Z2       -0.51648   0.00002   0.00000   0.00002   0.00002  -0.51645
    X3       -2.37194   0.00001   0.00000   0.00001   0.00001  -2.37194
    Y3        1.24380   0.00000   0.00000   0.00000   0.00000   1.24380
    Z3       -0.62330  -0.00008   0.00000  -0.00008  -0.00008  -0.62338
    X4        1.77739   0.00004   0.00000   0.00004   0.00004   1.77743
    Y4        1.15461  -0.00003   0.00000  -0.00003  -0.00003   1.15459
    Z4        1.73000   0.00004   0.00000   0.00004   0.00004   1.73003
    X5        2.42427   0.00004   0.00000   0.00004   0.00004   2.42432
    Y5       -3.34812   0.00001   0.00000   0.00001   0.00001  -3.34811
    Z5       -0.59198   0.00001   0.00000   0.00001   0.00001  -0.59197
    X6       -0.50951  -0.00006   0.00000  -0.00006  -0.00006  -0.50957
    Y6       -3.50635   0.00002   0.00000   0.00002   0.00002  -3.50633
    Z6        1.02112   0.00005   0.00000   0.00005   0.00005   1.02117
    X7       -0.43301   0.00000   0.00000   0.00000   0.00000  -0.43301
    Y7       -3.39113  -0.00002   0.00000  -0.00002  -0.00002  -3.39115
    Z7       -2.33050  -0.00001   0.00000  -0.00001  -0.00001  -2.33051
    X8        1.37162   0.00001   0.00000   0.00001   0.00001   1.37163
    Y8        0.92196   0.00004   0.00000   0.00004   0.00004   0.92201
    Z8       -2.19470  -0.00003   0.00000  -0.00003  -0.00003  -2.19472
    X9       -2.36535  -0.00002   0.00000  -0.00002  -0.00002  -2.36538
    Y9        3.30677  -0.00003   0.00000  -0.00003  -0.00003   3.30674
    Z9       -0.64351   0.00001   0.00000   0.00001   0.00001  -0.64350
   X10       -3.31645   0.00000   0.00000   0.00000   0.00000  -3.31645
   Y10        0.58293   0.00006   0.00000   0.00006   0.00006   0.58299
   Z10       -2.33487  -0.00001   0.00000  -0.00001  -0.00001  -2.33488
   X11       -3.44743  -0.00003   0.00000  -0.00003  -0.00003  -3.44746
   Y11        0.60442  -0.00011   0.00000  -0.00011  -0.00011   0.60431
   Z11        1.01712   0.00003   0.00000   0.00003   0.00003   1.01715
   X12        1.87947   0.00004   0.00000   0.00004   0.00004   1.87952
   Y12        3.08864   0.00006   0.00000   0.00006   0.00006   3.08869
   Z12        1.68746  -0.00001   0.00000  -0.00001  -0.00001   1.68745
   X13        0.83689   0.00002   0.00000   0.00002   0.00002   0.83691
   Y13        0.67041  -0.00003   0.00000  -0.00003  -0.00003   0.67038
   Z13        3.35382  -0.00005   0.00000  -0.00005  -0.00005   3.35377
         Item               Value     Threshold  Converged?
 Maximum Force            0.000105     0.000450     YES
 RMS     Force            0.000037     0.000300     YES
 Maximum Displacement     0.000105     0.001800     YES
 RMS     Displacement     0.000037     0.001200     YES
 Predicted change in Energy=-2.728178D-08
 Optimization completed.
    -- Stationary point found.
 GradGradGradGradGradGradGradGradGradGradGradGradGradGradGradGradGradGrad

                          Input orientation:                          
 ---------------------------------------------------------------------
 Center     Atomic     Atomic              Coordinates (Angstroms)
 Number     Number      Type              X           Y           Z
 ---------------------------------------------------------------------
    1          6      10061003        0.246648   -1.427536   -0.321408
    2          6      10061003        0.200820    0.121084   -0.273308
    3          6      10061003       -1.255179    0.658189   -0.329837
    4          7      10071003        0.940555    0.610996    0.915475
    5          1      10011000        1.282870   -1.771746   -0.313261
    6          1      10011000       -0.269623   -1.855482    0.540355
    7          1      10011000       -0.229139   -1.794509   -1.233247
    8          1      10011000        0.725829    0.487883   -1.161383
    9          1      10011000       -1.251691    1.749868   -0.340531
   10          1      10011000       -1.754989    0.308474   -1.235559
   11          1      10011000       -1.824302    0.319844    0.538238
   12          1      10011000        0.994574    1.634436    0.892965
   13          1      10011000        0.442862    0.354765    1.774766
 ---------------------------------------------------------------------
                    Distance matrix (angstroms):
                    1          2          3          4          5
     1  C    0.000000
     2  C    1.550044   0.000000
     3  C    2.570176   1.552936   0.000000
     4  N    2.483344   1.483383   2.524733   0.000000
     5  H    1.091926   2.180650   3.513766   2.702672   0.000000
     6  H    1.091929   2.188647   2.836741   2.772861   1.773670
     7  H    1.092014   2.185371   2.807960   3.430983   1.770046
     8  H    2.145694   1.094922   2.155195   2.091555   2.477000
     9  H    3.513016   2.183402   1.091736   2.771375   4.338952
    10  H    2.802847   2.187745   1.091990   3.461852   3.795594
    11  H    2.842739   2.190715   1.091757   2.805621   3.841135
    12  H    3.377835   2.068931   2.740381   1.025112   3.624938
    13  H    2.758449   2.075524   2.721170   1.025540   3.096372
                    6          7          8          9         10
     6  H    0.000000
     7  H    1.775112   0.000000
     8  H    3.062384   2.475165   0.000000
     9  H    3.839136   3.795413   2.485355   0.000000
    10  H    3.169052   2.598223   2.488403   1.769746   0.000000
    11  H    2.673775   3.186408   3.069221   1.773439   1.775187
    12  H    3.728546   4.216150   2.367943   2.565257   3.721409
    13  H    2.629943   3.757540   2.952755   3.048328   3.727566
                   11         12         13
    11  H    0.000000
    12  H    3.130502   0.000000
    13  H    2.582684   1.649096   0.000000
 Stoichiometry    C3H9N
 Framework group  C1[X(C3H9N)]
 Deg. of freedom    33
 Full point group                 C1
 Largest Abelian subgroup         C1      NOp   1
 Largest concise Abelian subgroup C1      NOp   1
                         Standard orientation:                         
 ---------------------------------------------------------------------
 Center     Atomic     Atomic              Coordinates (Angstroms)
 Number     Number      Type              X           Y           Z
 ---------------------------------------------------------------------
    1          6      10061003        1.456355   -0.256716    0.091953
    2          6      10061003        0.004728    0.029115   -0.370341
    3          6      10061003       -0.981864   -1.069456    0.110688
    4          7      10071003       -0.404185    1.387822    0.062247
    5          1      10011000        2.129171    0.514269   -0.289100
    6          1      10011000        1.518993   -0.266326    1.182042
    7          1      10011000        1.793456   -1.223648   -0.287389
    8          1      10011000        0.006154    0.019218   -1.465217
    9          1      10011000       -1.984871   -0.864405   -0.268546
   10          1      10011000       -0.670038   -2.048930   -0.257874
   11          1      10011000       -1.021142   -1.100845    1.201287
   12          1      10011000       -1.324781    1.613757   -0.328022
   13          1      10011000       -0.492961    1.424498    1.083280
 ---------------------------------------------------------------------
 Rotational constants (GHZ):      8.0579338      7.7153210      4.5492769
 1|1|UNPC-UNK|FOpt|Dreiding|ZDO|C3H9N1|PCUSER|11-Mar-2008|0||# opt drei
 ding||isopropylamine-g||0,1|C,0.2466483484,-1.4275359569,-0.321407842|
 C,0.2008198303,0.1210837571,-0.2733078811|C,-1.255178748,0.6581893816,
 -0.3298372578|N,0.9405548083,0.6109958849,0.9154750444|H,1.2828695843,
 -1.7717464042,-0.3132614062|H,-0.2696232066,-1.8554821963,0.5403549751
 |H,-0.2291391082,-1.7945092699,-1.2332474103|H,0.7258293724,0.48788268
 02,-1.1613829348|H,-1.2516909967,1.7498675813,-0.3405308004|H,-1.75498
 85376,0.3084740793,-1.2355592512|H,-1.8243020969,0.3198440278,0.538238
 0048|H,0.9945738155,1.634436202,0.8929653258|H,0.4428622748,0.35476489
 33,1.7747660938||Version=IA32W-G03RevD.01|HF=0.009549|RMSD=0.000e+000|
 RMSF=3.740e-005|Thermal=0.|Dipole=0.,0.,0.|PG=C01 [X(C3H9N1)]||@


 THE NUMBERS ARE MEANINGLESS, BUT THE TRENDS ARE IMPORTANT.
     -- LARRY BURGGRAF
 Job cpu time:  0 days  0 hours  0 minutes  3.0 seconds.
 File lengths (MBytes):  RWF=     11 Int=      0 D2E=      0 Chk=      4 Scr=      1
 Normal termination of Gaussian 03 at Tue Mar 11 13:40:28 2008.
