 Entering Link 1 = C:\G03W\l1.exe PID=      1612.
  
 Copyright (c) 1988,1990,1992,1993,1995,1998,2003,2004, Gaussian, Inc.
                  All Rights Reserved.
  
 This is the Gaussian(R) 03 program.  It is based on the
 the Gaussian(R) 98 system (copyright 1998, Gaussian, Inc.),
 the Gaussian(R) 94 system (copyright 1995, Gaussian, Inc.),
 the Gaussian 92(TM) system (copyright 1992, Gaussian, Inc.),
 the Gaussian 90(TM) system (copyright 1990, Gaussian, Inc.),
 the Gaussian 88(TM) system (copyright 1988, Gaussian, Inc.),
 the Gaussian 86(TM) system (copyright 1986, Carnegie Mellon
 University), and the Gaussian 82(TM) system (copyright 1983,
 Carnegie Mellon University). Gaussian is a federally registered
 trademark of Gaussian, Inc.
  
 This software contains proprietary and confidential information,
 including trade secrets, belonging to Gaussian, Inc.
  
 This software is provided under written license and may be
 used, copied, transmitted, or stored only in accord with that
 written license.
  
 The following legend is applicable only to US Government
 contracts under FAR:
  
                    RESTRICTED RIGHTS LEGEND
  
 Use, reproduction and disclosure by the US Government is
 subject to restrictions as set forth in subparagraphs (a)
 and (c) of the Commercial Computer Software - Restricted
 Rights clause in FAR 52.227-19.
  
 Gaussian, Inc.
 340 Quinnipiac St., Bldg. 40, Wallingford CT 06492
  
  
 ---------------------------------------------------------------
 Warning -- This program may not be used in any manner that
 competes with the business of Gaussian, Inc. or will provide
 assistance to any competitor of Gaussian, Inc.  The licensee
 of this program is prohibited from giving any competitor of
 Gaussian, Inc. access to this program.  By using this program,
 the user acknowledges that Gaussian, Inc. is engaged in the
 business of creating and licensing software in the field of
 computational chemistry and represents and warrants to the
 licensee that it is not a competitor of Gaussian, Inc. and that
 it will not use this program in any manner prohibited above.
 ---------------------------------------------------------------
  

 Cite this work as:
 Gaussian 03, Revision D.01,
 M. J. Frisch, G. W. Trucks, H. B. Schlegel, G. E. Scuseria, 
 M. A. Robb, J. R. Cheeseman, J. A. Montgomery, Jr., T. Vreven, 
 K. N. Kudin, J. C. Burant, J. M. Millam, S. S. Iyengar, J. Tomasi, 
 V. Barone, B. Mennucci, M. Cossi, G. Scalmani, N. Rega, 
 G. A. Petersson, H. Nakatsuji, M. Hada, M. Ehara, K. Toyota, 
 R. Fukuda, J. Hasegawa, M. Ishida, T. Nakajima, Y. Honda, O. Kitao, 
 H. Nakai, M. Klene, X. Li, J. E. Knox, H. P. Hratchian, J. B. Cross, 
 V. Bakken, C. Adamo, J. Jaramillo, R. Gomperts, R. E. Stratmann, 
 O. Yazyev, A. J. Austin, R. Cammi, C. Pomelli, J. W. Ochterski, 
 P. Y. Ayala, K. Morokuma, G. A. Voth, P. Salvador, J. J. Dannenberg, 
 V. G. Zakrzewski, S. Dapprich, A. D. Daniels, M. C. Strain, 
 O. Farkas, D. K. Malick, A. D. Rabuck, K. Raghavachari, 
 J. B. Foresman, J. V. Ortiz, Q. Cui, A. G. Baboul, S. Clifford, 
 J. Cioslowski, B. B. Stefanov, G. Liu, A. Liashenko, P. Piskorz, 
 I. Komaromi, R. L. Martin, D. J. Fox, T. Keith, M. A. Al-Laham, 
 C. Y. Peng, A. Nanayakkara, M. Challacombe, P. M. W. Gill, 
 B. Johnson, W. Chen, M. W. Wong, C. Gonzalez, and J. A. Pople, 
 Gaussian, Inc., Wallingford CT, 2004.
 
 ******************************************
 Gaussian 03:  IA32W-G03RevD.01 13-Oct-2005
                15-Jan-2008 
 ******************************************
 --------------
 # opt dreiding
 --------------
 1/6=10,10=10,14=-1,18=4000020,38=1,56=1,64=1/1,3;
 2/9=110,17=6,18=5,40=1/2;
 3/5=30,11=9,16=1,25=1,30=1/1;
 4/20=9,22=1001,24=3/2;
 7/44=-1/16;
 1/6=10,10=10,14=-1,18=4000020,64=1/3(2);
 2/9=110/2;
 99//99;
 2/9=110/2;
 3/5=30,11=9,16=1,25=1,30=1/1;
 4/16=2,20=9,22=1001,24=3/2;
 7/44=-1/16;
 1/6=10,10=10,14=-1,18=4000020,64=1/3(-4);
 2/9=110/2;
 99//99;
 ----------------------------
 N,3-dimethylpiperidine-eq,eq
 ----------------------------
 Symbolic Z-matrix:
 Charge =  0 Multiplicity = 1
 C                    -0.76411  -0.49944  -0.49361 
 N                    -0.81011   0.95556  -0.41461 
 C                    -0.13711   1.44156   0.78239 
 C                     0.67889  -1.03544  -0.49461 
 C                     1.32889   0.98756   0.83539 
 C                     1.41989  -0.54044   0.75639 
 C                    -2.18211   1.43756  -0.47061 
 H                    -1.26511  -0.83444  -1.43361 
 H                    -0.66811   1.08256   1.69639 
 H                    -0.16211   2.55756   0.80039 
 H                     1.20089  -0.63044  -1.39661 
 H                     1.81289   1.35156   1.77339 
 H                     1.88789   1.43956  -0.01961 
 H                     0.95989  -0.98844   1.66839 
 H                     2.48889  -0.86144   0.72939 
 H                    -2.78411   1.06456   0.39039 
 H                    -2.20611   2.55156  -0.46561 
 H                    -2.67411   1.10856  -1.41661 
 C                     0.70189  -2.56944  -0.57861 
 H                    -1.32611  -0.94744   0.36039 
 H                     0.18989  -3.02944   0.29739 
 H                     0.19089  -2.93044  -1.50061 
 H                     1.74789  -2.95444  -0.60161 
 
 Include all MM classes
 MMInit generated parameter data with length LenPar=  2592.

 GradGradGradGradGradGradGradGradGradGradGradGradGradGradGradGradGradGrad
 Berny optimization.
 Initialization pass.
 No Z-matrix variables, so optimization will use Cartesian coordinates.
 Trust Radius=1.00D-01 FncErr=1.00D-07 GrdErr=1.00D-07
 Number of steps in this run=   2 maximum allowed number of steps=   2.
 GradGradGradGradGradGradGradGradGradGradGradGradGradGradGradGradGradGrad

                          Input orientation:                          
 ---------------------------------------------------------------------
 Center     Atomic     Atomic              Coordinates (Angstroms)
 Number     Number      Type              X           Y           Z
 ---------------------------------------------------------------------
    1          6      10061003       -0.764109   -0.499438   -0.493609
    2          7      10071003       -0.810109    0.955563   -0.414609
    3          6      10061003       -0.137109    1.441563    0.782391
    4          6      10061003        0.678891   -1.035438   -0.494609
    5          6      10061003        1.328891    0.987563    0.835391
    6          6      10061003        1.419891   -0.540438    0.756391
    7          6      10061003       -2.182109    1.437563   -0.470609
    8          1      10011000       -1.265109   -0.834438   -1.433609
    9          1      10011000       -0.668109    1.082563    1.696391
   10          1      10011000       -0.162109    2.557563    0.800391
   11          1      10011000        1.200891   -0.630438   -1.396609
   12          1      10011000        1.812891    1.351563    1.773391
   13          1      10011000        1.887891    1.439563   -0.019609
   14          1      10011000        0.959891   -0.988438    1.668391
   15          1      10011000        2.488891   -0.861438    0.729391
   16          1      10011000       -2.784109    1.064563    0.390391
   17          1      10011000       -2.206109    2.551563   -0.465609
   18          1      10011000       -2.674109    1.108563   -1.416609
   19          6      10061003        0.701891   -2.569438   -0.578609
   20          1      10011000       -1.326109   -0.947438    0.360391
   21          1      10011000        0.189891   -3.029438    0.297391
   22          1      10011000        0.190891   -2.930438   -1.500609
   23          1      10011000        1.747891   -2.954438   -0.601609
 ---------------------------------------------------------------------
                    Distance matrix (angstroms):
                    1          2          3          4          5
     1  C    0.000000
     2  N    1.457869   0.000000
     3  C    2.405990   1.456686   0.000000
     4  C    1.539333   2.487489   2.903810   0.000000
     5  C    2.891031   2.477669   1.535604   2.506777   0.000000
     6  C    2.516751   2.929532   2.520565   1.535938   1.532745
     7  C    2.400671   1.455281   2.398343   3.781749   3.772964
     8  H    1.116614   2.109380   3.370937   2.168238   3.898318
     9  H    2.703339   2.119579   1.116350   3.331788   2.176776
    10  H    3.373735   2.112471   1.116425   3.910749   2.165457
    11  H    2.166517   2.742962   3.291120   1.118085   2.759734
    12  H    3.899541   3.438646   2.189219   3.482463   1.116511
    13  H    3.319262   2.769384   2.178034   2.795162   1.117054
    14  H    2.808121   3.354240   2.809503   2.181683   2.175920
    15  H    3.494107   3.936194   3.493207   2.191929   2.185323
    16  H    2.703322   2.134615   2.702296   4.145551   4.137720
    17  H    3.374722   2.120998   2.659016   4.603329   4.078593
    18  H    2.661897   2.121770   3.373849   4.085270   4.594579
    19  C    2.537968   3.839097   4.317912   1.536470   3.878759
    20  H    1.116183   2.118558   2.701689   2.181466   3.319469
    21  H    2.817214   4.169792   4.509101   2.200550   4.209876
    22  H    2.799256   4.157210   4.943082   2.200274   4.701347
    23  H    3.514091   4.676156   4.979307   2.199266   4.216621
                    6          7          8          9         10
     6  C    0.000000
     7  C    4.288638   0.000000
     8  H    3.477321   2.632535   0.000000
     9  H    2.806684   2.667229   3.718629   0.000000
    10  H    3.478831   2.636331   4.208685   1.798465   0.000000
    11  H    2.165980   4.071706   2.474700   3.999272   4.104622
    12  H    2.183667   4.582898   4.953537   2.496728   2.510337
    13  H    2.177522   4.094912   4.136651   3.099232   2.474838
    14  H    1.115369   4.509208   3.820569   2.634428   3.819218
    15  H    1.116482   5.342625   4.332645   3.831563   4.326939
    16  H    4.514820   1.114834   3.039825   2.486648   3.045001
    17  H    4.919515   1.114270   3.645202   3.032763   2.404314
    18  H    4.919549   1.115895   2.400171   3.703442   3.650320
    19  C    2.532704   4.938134   2.758684   4.515488   5.379058
    20  H    2.804101   2.666744   1.798590   2.517689   3.719344
    21  H    2.814019   5.115691   3.151414   4.427404   5.620630
    22  H    3.509500   5.076559   2.552967   5.202198   5.961321
    23  H    2.789112   5.895059   3.776876   5.235955   5.999654
                   11         12         13         14         15
    11  H    0.000000
    12  H    3.788373   0.000000
    13  H    2.579341   1.796724   0.000000
    14  H    3.095233   2.492837   3.099308   0.000000
    15  H    2.496434   2.538559   2.493352   1.798803   0.000000
    16  H    4.684722   4.809103   4.704924   4.457087   5.623960
    17  H    4.753897   4.754522   4.265712   5.206641   5.926181
    18  H    4.247369   5.510746   4.782574   5.207743   5.928135
    19  C    2.162833   4.705366   4.217957   2.759553   2.796694
    20  H    3.094070   4.139480   4.021438   2.634073   3.833769
    21  H    3.105955   4.899578   4.791206   2.576475   3.189396
    22  H    2.514143   5.628986   4.916307   3.795430   3.812409
    23  H    2.516388   4.917976   4.434587   3.104674   2.588685
                   16         17         18         19         20
    16  H    0.000000
    17  H    1.810522   0.000000
    18  H    1.810880   1.790440   0.000000
    19  C    5.128071   5.890151   5.062342   0.000000
    20  H    2.484916   3.701307   3.033475   2.761411   0.000000
    21  H    5.061043   6.121319   5.316327   1.114056   2.576228
    22  H    5.327901   6.071998   4.952656   1.114238   3.113984
    23  H    6.138033   6.780018   6.060221   1.114841   3.795124
                   21         22         23
    21  H    0.000000
    22  H    1.800724   0.000000
    23  H    1.800331   1.798062   0.000000
 Stoichiometry    C7H15N
 Framework group  C1[X(C7H15N)]
 Deg. of freedom    63
 Full point group                 C1
 Largest Abelian subgroup         C1      NOp   1
 Largest concise Abelian subgroup C1      NOp   1
                         Standard orientation:                         
 ---------------------------------------------------------------------
 Center     Atomic     Atomic              Coordinates (Angstroms)
 Number     Number      Type              X           Y           Z
 ---------------------------------------------------------------------
    1          6      10061003       -0.031445   -1.034184    0.080160
    2          7      10071003       -1.235606   -0.323128   -0.331881
    3          6      10061003       -1.269422    1.024044    0.221219
    4          6      10061003        1.251719   -0.299553   -0.348035
    5          6      10061003       -0.040617    1.843278   -0.199462
    6          6      10061003        1.248993    1.128077    0.218509
    7          6      10061003       -2.431518   -1.065841    0.036919
    8          1      10011000       -0.026340   -2.050748   -0.381790
    9          1      10011000       -1.321700    0.982552    1.335573
   10          1      10011000       -2.185609    1.553366   -0.134907
   11          1      10011000        1.261177   -0.235611   -1.464250
   12          1      10011000       -0.079088    2.861004    0.258084
   13          1      10011000       -0.048790    1.980820   -1.307986
   14          1      10011000        1.310469    1.091551    1.331583
   15          1      10011000        2.139008    1.694629   -0.146764
   16          1      10011000       -2.512650   -1.191717    1.141649
   17          1      10011000       -3.345086   -0.543855   -0.329852
   18          1      10011000       -2.425761   -2.076585   -0.435927
   19          6      10061003        2.506256   -1.067148    0.096574
   20          1      10011000       -0.028237   -1.172410    1.187747
   21          1      10011000        2.547918   -1.164787    1.205560
   22          1      10011000        2.525882   -2.093319   -0.337148
   23          1      10011000        3.434250   -0.545031   -0.233713
 ---------------------------------------------------------------------
 Rotational constants (GHZ):      3.0438115      1.6583670      1.1581209
 Standard basis: Dummy (5D, 7F)
 There are    23 symmetry adapted basis functions of A   symmetry.
 Integral buffers will be    262144 words long.
 Raffenetti 1 integral format.
 Two-electron integral symmetry is turned on.
    23 basis functions,    23 primitive gaussians,    23 cartesian basis functions
    15 alpha electrons       15 beta electrons
       nuclear repulsion energy        86.1115990417 Hartrees.
 NAtoms=   23 NActive=   23 NUniq=   23 SFac= 7.50D-01 NAtFMM=   80 NAOKFM=F Big=F
 Dreiding calculation of energy and first derivatives.
 MO and density RWFs will be updated without deorthogonalization.
 NRF= 0 NRA=   0 NVA=  23 HaveQM=F
 Convergence limit is  0.750E-04 MaxStp=  5000 StMxLn= 1.00D-04 StpMin= 1.00D-06.
 Convergence criteria           0.00011250 0.00007500 0.00045000 0.00030000
  Step  NS  ND Rises OKQ   Scale  Max. Force  RMS Force Max. Disp.  RMS Disp.     Energy   Flag
     1   0   0   F    T  1.00D+00 0.03526401 0.01254809 0.03526401 0.01254809    0.0397937 ----
     2   0   0   F    F  2.42D-01 0.03526401 0.01254809 0.03526401 0.01254809    0.0333174 ----
     3   0   0   F    T  4.63D+00 0.01017472 0.00325462 0.01055383 0.00336231    0.0330629 ----
     4   0   0   T    F  4.83D-01 0.01017472 0.00325462 0.04891639 0.01558412    0.0331839 ----
     5   0   0   F    T  2.47D+00 0.00594383 0.00241602 0.00835188 0.00304836    0.0322438 ----
     6   0   0   F    F  4.46D-01 0.00594383 0.00241602 0.02063050 0.00752995    0.0315933 ----
     7   0   0   F    T  2.81D+00 0.00567750 0.00240377 0.01147835 0.00386787    0.0315251 ----
     8   0   0   F    F  2.32D-01 0.00567750 0.00240377 0.03231031 0.01088763    0.0308594 ----
     9   0   0   F    T  3.87D+00 0.00561495 0.00203315 0.00989595 0.00346294    0.0308351 ----
    10   0   0   F    F -3.96D-01 0.00561495 0.00203315 0.03831928 0.01340927    0.0306453 ----
    11   0   0   F    T  3.30D+00 0.00390493 0.00151105 0.00599914 0.00245315    0.0305019 ----
    12   0   0   F    F -9.58D-02 0.00390493 0.00151105 0.01979599 0.00809491    0.0302694 ----
    13   0   0   F    T  4.43D+00 0.00388100 0.00107676 0.00430486 0.00165411    0.0302668 ----
    14   0   0   F    F -3.28D-01 0.00388100 0.00107676 0.01904954 0.00731964    0.0301762 ----
    15   0   0   F    T  3.78D+00 0.00195280 0.00083606 0.00387247 0.00130160    0.0301478 ----
    16   0   0   F    F  4.01D-02 0.00195280 0.00083606 0.01463330 0.00491848    0.0300532 ----
    17   0   0   F    T  2.93D+00 0.00247756 0.00089677 0.00580669 0.00174697    0.0300531 ----
    18   0   0   F    F  2.38D-01 0.00247756 0.00089677 0.01700321 0.00511548    0.0299564 ----
    19   0   0   F    T  3.82D+00 0.00246534 0.00081180 0.00564249 0.00165515    0.0299527 ----
    20   0   0   T    F  4.79D-01 0.00246534 0.00081180 0.02158219 0.00633084    0.0299603 ----
    21   0   0   F    T  4.06D+00 0.00126793 0.00047604 0.00254928 0.00074717    0.0299111 ----
    22   0   0   F    F  1.34D-01 0.00126793 0.00047604 0.01034392 0.00303172    0.0298756 ----
    23   0   0   F    T  5.46D+00 0.00092170 0.00038738 0.00165027 0.00062905    0.0298751 ----
    24   0   0   T    F  4.44D-01 0.00092170 0.00038738 0.00901534 0.00343645    0.0298823 ----
    25   0   0   F    T  2.50D+00 0.00098614 0.00034619 0.00158388 0.00061053    0.0298626 ----
    26   0   0   F    F  9.69D-01 0.00098614 0.00034619 0.00395898 0.00152606    0.0298472 ----
    27   0   0   F    T  4.45D+00 0.00100074 0.00033853 0.00195571 0.00067494    0.0298422 ----
    28   0   0   F    F -2.14D-01 0.00100074 0.00033853 0.00870787 0.00300519    0.0298294 ----
    29   0   0   F    T  2.55D+00 0.00091192 0.00037903 0.00274089 0.00092691    0.0298284 ----
    30   0   0   F    F  4.67D-01 0.00091192 0.00037903 0.00698585 0.00236247    0.0298117 ----
    31   0   0   F    T  9.36D+00 0.00069680 0.00021578 0.00094007 0.00037024    0.0298099 ----
    32   0   0   T    F  3.31D-01 0.00069680 0.00021578 0.00879898 0.00346543    0.0298252 ----
    33   0   0   F    T  2.73D+00 0.00078970 0.00021351 0.00099646 0.00042097    0.0298049 ----
    34   0   0   F    F  4.01D-01 0.00078970 0.00021351 0.00271624 0.00114751    0.0297994 ----
    35   0   0   F    T  3.51D+00 0.00062963 0.00020981 0.00115475 0.00045783    0.0297989 ----
    36   0   0   F    F -2.77D-01 0.00062963 0.00020981 0.00405562 0.00160797    0.0297956 ----
    37   0   0   F    T  4.04D+00 0.00044212 0.00015308 0.00076291 0.00028772    0.0297950 ---+
    38   0   0   F    F  4.55D-01 0.00044212 0.00015308 0.00308309 0.00116275    0.0297907 ----
    39   0   0   F    T  2.17D+00 0.00069284 0.00024568 0.00213893 0.00078069    0.0297903 ----
    40   0   0   F    F  4.61D-01 0.00069284 0.00024568 0.00463555 0.00169193    0.0297843 ----
    41   0   0   F    T  3.48D+00 0.00068919 0.00022823 0.00214922 0.00071003    0.0297837 ----
    42   0   0   F    F  6.29D-01 0.00068919 0.00022823 0.00748013 0.00247118    0.0297750 ----
    43   0   0   F    T  4.45D+00 0.00081140 0.00025255 0.00291664 0.00090490    0.0297735 ----
    44   0   0   T    F  4.85D-01 0.00081140 0.00025255 0.01297474 0.00402546    0.0297741 ----
    45   0   0   F    T  4.16D+00 0.00038767 0.00017489 0.00150658 0.00046856    0.0297687 ----
    46   0   0   F    F  5.60D-01 0.00038767 0.00017489 0.00627357 0.00195114    0.0297628 ----
    47   0   0   F    T  4.02D+00 0.00067416 0.00021755 0.00248534 0.00075742    0.0297619 ----
    48   0   0   F    F -3.95D-01 0.00067416 0.00021755 0.00998655 0.00304344    0.0297596 ----
    49   0   0   F    T  3.30D+00 0.00069546 0.00018158 0.00189189 0.00055719    0.0297579 ----
    50   0   0   F    F -1.97D-01 0.00069546 0.00018158 0.00625189 0.00184129    0.0297551 ----
    51   0   0   F    T  5.34D+00 0.00037050 0.00012155 0.00085375 0.00027725    0.0297549 ---+
    52   0   0   F    F -2.08D-01 0.00037050 0.00012155 0.00455537 0.00147932    0.0297529 ----
    53   0   0   F    T  2.56D+00 0.00043881 0.00015181 0.00128465 0.00045814    0.0297527 ----
    54   0   0   F    F  3.74D-01 0.00043881 0.00015181 0.00328364 0.00117104    0.0297502 ----
    55   0   0   F    T  5.01D+00 0.00039995 0.00012230 0.00083038 0.00032150    0.0297500 ----
    56   0   0   F    F -6.58D-02 0.00039995 0.00012230 0.00415679 0.00160941    0.0297476 ----
    57   0   0   F    T  2.49D+00 0.00061021 0.00016452 0.00157882 0.00060459    0.0297475 ----
    58   0   0   F    F  1.15D+00 0.00061021 0.00016452 0.00392625 0.00150351    0.0297440 ----
    59   0   0   F    T  4.30D+00 0.00060972 0.00018082 0.00200513 0.00075286    0.0297425 ----
    60   0   0   F    F -3.93D-01 0.00060972 0.00018082 0.00862549 0.00323859    0.0297408 ----
    61   0   0   F    T  6.66D+00 0.00030762 0.00010901 0.00077919 0.00029517    0.0297396 ---+
    62   0   0   F    F -1.78D-01 0.00030762 0.00010901 0.00518704 0.00196496    0.0297375 ----
    63   0   0   F    T  2.68D+00 0.00055607 0.00015312 0.00158563 0.00060225    0.0297374 ----
    64   0   0   F    F -1.50D-01 0.00055607 0.00015312 0.00425339 0.00161551    0.0297356 ----
    65   0   0   F    T  1.12D+01 0.00016575 0.00006383 0.00031121 0.00012264    0.0297355 -+++
    66   0   0   T    F  2.41D-01 0.00016575 0.00006383 0.00348415 0.00137300    0.0297389 -+--
    67   0   0   F    T  2.21D+00 0.00018455 0.00006662 0.00039667 0.00014929    0.0297351 -+++
    68   0   0   F    F  7.76D-01 0.00018455 0.00006662 0.00087771 0.00033035    0.0297346 -+--
    69   0   0   F    T  6.71D+00 0.00013355 0.00004687 0.00025727 0.00008751    0.0297345 -+++
    70   0   0   T    F  3.31D-01 0.00013355 0.00004687 0.00172532 0.00058683    0.0297350 -+--
    71   0   0   F    T  2.48D+00 0.00012737 0.00004089 0.00026793 0.00007815    0.0297344 -+++
    72   0   0   F    F  1.15D+00 0.00012737 0.00004089 0.00066564 0.00019417    0.0297341 -+-+
    73   0   0   F    T  6.74D+00 0.00008808 0.00003344 0.00021666 0.00006208    0.0297341 ====
 Energy=    0.029734053705 NIter=   0.
 Dipole moment=       0.000000       0.000000       0.000000
 ***** Axes restored to original set *****
 -------------------------------------------------------------------
 Center     Atomic                   Forces (Hartrees/Bohr)
 Number     Number              X              Y              Z
 -------------------------------------------------------------------
    1          6           0.000004468   -0.000016729    0.000018749
    2          7           0.000020140   -0.000059453    0.000046568
    3          6           0.000025887   -0.000006694   -0.000024287
    4          6          -0.000091607    0.000024960    0.000023049
    5          6          -0.000011349   -0.000013270   -0.000018959
    6          6           0.000016205   -0.000065564   -0.000033490
    7          6           0.000074402   -0.000011749   -0.000018285
    8          1           0.000043786    0.000000736    0.000014581
    9          1          -0.000004454   -0.000020014    0.000004596
   10          1          -0.000007740   -0.000013412   -0.000011762
   11          1           0.000027564    0.000015479    0.000019974
   12          1          -0.000017685    0.000056994   -0.000022093
   13          1           0.000024148   -0.000023355    0.000074622
   14          1           0.000013549    0.000035773   -0.000012242
   15          1           0.000013655   -0.000010373   -0.000020742
   16          1          -0.000027521   -0.000009760    0.000042866
   17          1          -0.000029585    0.000087096    0.000010407
   18          1          -0.000059824   -0.000019855   -0.000062996
   19          6          -0.000017147   -0.000017821    0.000019543
   20          1          -0.000003760    0.000009405   -0.000063092
   21          1           0.000011591    0.000006251    0.000036082
   22          1          -0.000013944    0.000035325    0.000019876
   23          1           0.000009220    0.000016029   -0.000042966
 -------------------------------------------------------------------
 Cartesian Forces:  Max     0.000091607 RMS     0.000033444

 GradGradGradGradGradGradGradGradGradGradGradGradGradGradGradGradGradGrad
 Berny optimization.
 Search for a local minimum.
 Step number   1 out of a maximum of   2
 All quantities printed in internal units (Hartrees-Bohrs-Radians)
 Second derivative matrix not updated -- unit matrix used.
 RFO step:  Lambda=-7.71768165D-08.
 Linear search not attempted -- first point.
 TrRot=  0.000000  0.000000  0.000000  0.000000  0.000000  0.000000
 Variable       Old X    -DE/DX   Delta X   Delta X   Delta X     New X
                                 (Linear)    (Quad)   (Total)
    X1       -1.50972   0.00000   0.00000   0.00000   0.00000  -1.50971
    Y1       -1.03734  -0.00002   0.00000  -0.00002  -0.00002  -1.03736
    Z1       -0.90334   0.00002   0.00000   0.00002   0.00002  -0.90333
    X2       -1.60614   0.00002   0.00000   0.00002   0.00002  -1.60612
    Y2        1.78234  -0.00006   0.00000  -0.00006  -0.00006   1.78228
    Z2       -0.69533   0.00005   0.00000   0.00005   0.00005  -0.69528
    X3       -0.25816   0.00003   0.00000   0.00003   0.00003  -0.25813
    Y3        2.77017  -0.00001   0.00000  -0.00001  -0.00001   2.77016
    Z3        1.58438  -0.00002   0.00000  -0.00002  -0.00002   1.58436
    X4        1.26333  -0.00009   0.00000  -0.00009  -0.00009   1.26324
    Y4       -2.02596   0.00002   0.00000   0.00002   0.00002  -2.02594
    Z4       -0.93545   0.00002   0.00000   0.00002   0.00002  -0.93542
    X5        2.53282  -0.00001   0.00000  -0.00001  -0.00001   2.53281
    Y5        1.89093  -0.00001   0.00000  -0.00001  -0.00001   1.89092
    Z5        1.62797  -0.00002   0.00000  -0.00002  -0.00002   1.62795
    X6        2.73100   0.00002   0.00000   0.00002   0.00002   2.73101
    Y6       -1.02112  -0.00007   0.00000  -0.00007  -0.00007  -1.02118
    Z6        1.40848  -0.00003   0.00000  -0.00003  -0.00003   1.40844
    X7       -4.21204   0.00007   0.00000   0.00007   0.00007  -4.21196
    Y7        2.81690  -0.00001   0.00000  -0.00001  -0.00001   2.81689
    Z7       -0.95891  -0.00002   0.00000  -0.00002  -0.00002  -0.95893
    X8       -2.42421   0.00004   0.00000   0.00004   0.00004  -2.42416
    Y8       -1.62447   0.00000   0.00000   0.00000   0.00000  -1.62447
    Z8       -2.66249   0.00001   0.00000   0.00001   0.00001  -2.66247
    X9       -1.20571   0.00000   0.00000   0.00000   0.00000  -1.20571
    Y9        2.14015  -0.00002   0.00000  -0.00002  -0.00002   2.14013
    Z9        3.31246   0.00000   0.00000   0.00000   0.00000   3.31247
   X10       -0.27036  -0.00001   0.00000  -0.00001  -0.00001  -0.27037
   Y10        4.83693  -0.00001   0.00000  -0.00001  -0.00001   4.83692
   Z10        1.56993  -0.00001   0.00000  -0.00001  -0.00001   1.56992
   X11        2.18111   0.00003   0.00000   0.00003   0.00003   2.18114
   Y11       -1.27710   0.00002   0.00000   0.00002   0.00002  -1.27708
   Z11       -2.63333   0.00002   0.00000   0.00002   0.00002  -2.63331
   X12        3.42552  -0.00002   0.00000  -0.00002  -0.00002   3.42550
   Y12        2.51112   0.00006   0.00000   0.00006   0.00006   2.51118
   Z12        3.38485  -0.00002   0.00000  -0.00002  -0.00002   3.38483
   X13        3.54505   0.00002   0.00000   0.00002   0.00002   3.54508
   Y13        2.76716  -0.00002   0.00000  -0.00002  -0.00002   2.76714
   Z13        0.05288   0.00007   0.00000   0.00007   0.00007   0.05295
   X14        1.97581   0.00001   0.00000   0.00001   0.00001   1.97583
   Y14       -1.87996   0.00004   0.00000   0.00004   0.00004  -1.87993
   Z14        3.13153  -0.00001   0.00000  -0.00001  -0.00001   3.13152
   X15        4.72494   0.00001   0.00000   0.00001   0.00001   4.72495
   Y15       -1.54385  -0.00001   0.00000  -0.00001  -0.00001  -1.54386
   Z15        1.26129  -0.00002   0.00000  -0.00002  -0.00002   1.26127
   X16       -5.42165  -0.00003   0.00000  -0.00003  -0.00003  -5.42168
   Y16        2.19703  -0.00001   0.00000  -0.00001  -0.00001   2.19702
   Z16        0.59576   0.00004   0.00000   0.00004   0.00004   0.59580
   X17       -4.16695  -0.00003   0.00000  -0.00003  -0.00003  -4.16698
   Y17        4.87932   0.00009   0.00000   0.00009   0.00009   4.87941
   Z17       -0.98203   0.00001   0.00000   0.00001   0.00001  -0.98202
   X18       -5.05263  -0.00006   0.00000  -0.00006  -0.00006  -5.05269
   Y18        2.19989  -0.00002   0.00000  -0.00002  -0.00002   2.19987
   Z18       -2.73897  -0.00006   0.00000  -0.00006  -0.00006  -2.73903
   X19        1.37445  -0.00002   0.00000  -0.00002  -0.00002   1.37443
   Y19       -4.95253  -0.00002   0.00000  -0.00002  -0.00002  -4.95255
   Z19       -1.10575   0.00002   0.00000   0.00002   0.00002  -1.10573
   X20       -2.54382   0.00000   0.00000   0.00000   0.00000  -2.54383
   Y20       -1.89804   0.00001   0.00000   0.00001   0.00001  -1.89803
   Z20        0.66966  -0.00006   0.00000  -0.00006  -0.00006   0.66960
   X21        0.46876   0.00001   0.00000   0.00001   0.00001   0.46877
   Y21       -5.81683   0.00001   0.00000   0.00001   0.00001  -5.81682
   Z21        0.53487   0.00004   0.00000   0.00004   0.00004   0.53490
   X22        0.41324  -0.00001   0.00000  -0.00001  -0.00001   0.41323
   Y22       -5.60717   0.00004   0.00000   0.00004   0.00004  -5.60713
   Z22       -2.81043   0.00002   0.00000   0.00002   0.00002  -2.81041
   X23        3.33516   0.00001   0.00000   0.00001   0.00001   3.33517
   Y23       -5.59044   0.00002   0.00000   0.00002   0.00002  -5.59043
   Z23       -1.18871  -0.00004   0.00000  -0.00004  -0.00004  -1.18876
         Item               Value     Threshold  Converged?
 Maximum Force            0.000092     0.000450     YES
 RMS     Force            0.000033     0.000300     YES
 Maximum Displacement     0.000092     0.001800     YES
 RMS     Displacement     0.000033     0.001200     YES
 Predicted change in Energy=-3.858840D-08
 Optimization completed.
    -- Stationary point found.
 GradGradGradGradGradGradGradGradGradGradGradGradGradGradGradGradGradGrad

                          Input orientation:                          
 ---------------------------------------------------------------------
 Center     Atomic     Atomic              Coordinates (Angstroms)
 Number     Number      Type              X           Y           Z
 ---------------------------------------------------------------------
    1          6      10061003       -0.798908   -0.548938   -0.478029
    2          7      10071003       -0.849931    0.943175   -0.367952
    3          6      10061003       -0.136613    1.465909    0.838418
    4          6      10061003        0.668528   -1.072094   -0.495017
    5          6      10061003        1.340312    1.000637    0.861482
    6          6      10061003        1.445182   -0.540352    0.745334
    7          6      10061003       -2.228914    1.490640   -0.507436
    8          1      10011000       -1.282835   -0.859635   -1.408926
    9          1      10011000       -0.638032    1.132517    1.752879
   10          1      10011000       -0.143067    2.559595    0.830772
   11          1      10011000        1.154196   -0.675811   -1.393496
   12          1      10011000        1.812708    1.328829    1.791186
   13          1      10011000        1.875960    1.464318    0.027981
   14          1      10011000        1.045555   -0.994834    1.657135
   15          1      10011000        2.500329   -0.816971    0.667444
   16          1      10011000       -2.869014    1.162616    0.315261
   17          1      10011000       -2.205053    2.582025   -0.519670
   18          1      10011000       -2.673736    1.164131   -1.449399
   19          6      10061003        0.727327   -2.620767   -0.585138
   20          1      10011000       -1.346134   -1.004401    0.354371
   21          1      10011000        0.248057   -3.078133    0.283039
   22          1      10011000        0.218678   -2.967185   -1.487215
   23          1      10011000        1.764890   -2.958334   -0.629040
 ---------------------------------------------------------------------
                    Distance matrix (angstroms):
                    1          2          3          4          5
     1  C    0.000000
     2  N    1.497038   0.000000
     3  C    2.496253   1.495795   0.000000
     4  C    1.557995   2.526494   2.977879   0.000000
     5  C    2.961712   2.512364   1.548649   2.566632   0.000000
     6  C    2.555901   2.950898   2.556526   1.557052   1.548915
     7  C    2.491117   1.490224   2.487903   3.868195   3.854013
     8  H    1.094206   2.126301   3.431113   2.165222   3.936529
     9  H    2.798236   2.139784   1.094902   3.408878   2.173896
    10  H    3.435996   2.132935   1.093732   3.950389   2.152140
    11  H    2.160739   2.772974   3.351804   1.095527   2.816033
    12  H    3.936482   3.449675   2.174031   3.507179   1.093261
    13  H    3.385878   2.803362   2.169623   2.857413   1.093912
    14  H    2.856535   3.383744   2.850101   2.186292   2.168375
    15  H    3.502702   3.923570   3.492025   2.184468   2.164946
    16  H    2.800726   2.142808   2.798517   4.262004   4.247707
    17  H    3.432478   2.131948   2.714510   4.648727   4.120434
    18  H    2.719034   2.131810   3.429602   4.133071   4.634596
    19  C    2.575527   3.903408   4.412916   1.552407   3.947535
    20  H    1.095351   2.135654   2.792790   2.187442   3.390329
    21  H    2.841159   4.219038   4.593989   2.192340   4.261922
    22  H    2.811024   4.205424   5.018678   2.185907   4.745319
    23  H    3.521513   4.703959   5.034191   2.185835   4.251515
                    6          7          8          9         10
     6  C    0.000000
     7  C    4.381021   0.000000
     8  H    3.490680   2.689153   0.000000
     9  H    2.855419   2.787146   3.792289   0.000000
    10  H    3.484180   2.698930   4.243401   1.769696   0.000000
    11  H    2.162779   4.113885   2.444002   4.047444   4.134986
    12  H    2.173182   4.652372   4.961097   2.458889   2.502447
    13  H    2.172296   4.139730   4.176535   3.066843   2.433224
    14  H    1.094366   4.645976   3.852325   2.714637   3.837925
    15  H    1.093582   5.391768   4.315723   3.850712   4.291320
    16  H    4.658041   1.092775   3.094880   2.654229   3.106137
    17  H    4.967261   1.091714   3.672368   3.117869   2.464950
    18  H    4.968661   1.091682   2.455987   3.794690   3.681139
    19  C    2.571692   5.064491   2.796598   4.627923   5.440454
    20  H    2.856507   2.783387   1.770362   2.650217   3.791622
    21  H    2.843792   5.256798   3.182469   4.546994   5.677761
    22  H    3.518253   5.179082   2.588907   5.295254   6.004101
    23  H    2.799599   5.979853   3.781718   5.308732   6.018214
                   11         12         13         14         15
    11  H    0.000000
    12  H    3.820264   0.000000
    13  H    2.668649   1.769535   0.000000
    14  H    3.069190   2.450695   3.064497   0.000000
    15  H    2.465659   2.517951   2.450108   1.768472   0.000000
    16  H    4.741928   4.911670   4.763227   4.666805   5.733467
    17  H    4.760422   4.801350   4.266598   5.300835   5.924782
    18  H    4.247537   5.536849   4.792964   5.305168   5.930998
    19  C    2.149073   4.735428   4.287563   2.787959   2.822442
    20  H    3.068332   4.181708   4.072222   2.723501   3.863732
    21  H    3.066432   4.913650   4.832078   2.619976   3.214552
    22  H    2.476767   5.634233   4.967959   3.802739   3.804196
    23  H    2.483395   4.923368   4.472568   3.098285   2.609057
                   16         17         18         19         20
    16  H    0.000000
    17  H    1.775577   0.000000
    18  H    1.775432   1.759114   0.000000
    19  C    5.297015   5.972619   5.161359   0.000000
    20  H    2.648897   3.790005   3.117474   2.791873   0.000000
    21  H    5.263186   6.220890   5.434613   1.092068   2.616658
    22  H    5.462419   6.132239   5.043339   1.092003   3.113294
    23  H    6.272719   6.816743   6.113028   1.091979   3.803081
                   21         22         23
    21  H    0.000000
    22  H    1.773970   0.000000
    23  H    1.773985   1.768421   0.000000
 Stoichiometry    C7H15N
 Framework group  C1[X(C7H15N)]
 Deg. of freedom    63
 Full point group                 C1
 Largest Abelian subgroup         C1      NOp   1
 Largest concise Abelian subgroup C1      NOp   1
                         Standard orientation:                         
 ---------------------------------------------------------------------
 Center     Atomic     Atomic              Coordinates (Angstroms)
 Number     Number      Type              X           Y           Z
 ---------------------------------------------------------------------
    1          6      10061003       -0.009683   -1.070854    0.117723
    2          7      10071003       -1.249363   -0.333363   -0.282803
    3          6      10061003       -1.294019    1.065930    0.243873
    4          6      10061003        1.276459   -0.319750   -0.339477
    5          6      10061003       -0.050460    1.873074   -0.203782
    6          6      10061003        1.260589    1.145997    0.185638
    7          6      10061003       -2.497754   -1.097393   -0.002539
    8          1      10011000       -0.011018   -2.060583   -0.348883
    9          1      10011000       -1.350899    1.060797    1.337285
   10          1      10011000       -2.181440    1.579573   -0.136790
   11          1      10011000        1.272700   -0.286701   -1.434499
   12          1      10011000       -0.070002    2.862569    0.260691
   13          1      10011000       -0.081542    2.008187   -1.288873
   14          1      10011000        1.361509    1.151663    1.275325
   15          1      10011000        2.107186    1.697756   -0.232402
   16          1      10011000       -2.637344   -1.245531    1.071112
   17          1      10011000       -3.365332   -0.566484   -0.399126
   18          1      10011000       -2.462936   -2.073794   -0.489567
   19          6      10061003        2.565733   -1.068001    0.093949
   20          1      10011000        0.007989   -1.210613    1.203977
   21          1      10011000        2.623663   -1.142355    1.181942
   22          1      10011000        2.577739   -2.076072   -0.325717
   23          1      10011000        3.450078   -0.538896   -0.267161
 ---------------------------------------------------------------------
 Rotational constants (GHZ):      2.9582652      1.6008969      1.1140437
 1|1|UNPC-UNK|FOpt|Dreiding|ZDO|C7H15N1|PCUSER|15-Jan-2008|0||# opt dre
 iding||N,3-dimethylpiperidine-eq,eq||0,1|C,-0.7989082878,-0.5489383935
 ,-0.4780294121|N,-0.8499314439,0.9431749988,-0.3679517604|C,-0.1366126
 556,1.4659092821,0.8384183182|C,0.6685275862,-1.0720944322,-0.49501681
 95|C,1.3403115458,1.0006372259,0.8614821857|C,1.4451815385,-0.54035219
 91,0.7453337784|C,-2.2289144797,1.4906404041,-0.5074357049|H,-1.282834
 6255,-0.8596346603,-1.4089263871|H,-0.638031809,1.132517199,1.75287913
 82|H,-0.1430674481,2.559595448,0.8307716672|H,1.1541959827,-0.67581065
 37,-1.3934958913|H,1.8127084002,1.3288289194,1.7911864388|H,1.87596039
 1,1.464317894,0.0279805849|H,1.0455547568,-0.9948341224,1.6571345517|H
 ,2.5003292398,-0.8169712377,0.6674438128|H,-2.8690138014,1.1626163007,
 0.3152605804|H,-2.2050532588,2.5820247976,-0.5196695214|H,-2.673736262
 9,1.1641307276,-1.4493985211|C,0.7273265082,-2.6207671293,-0.585138120
 3|H,-1.3461337009,-1.0044009704,0.3543713269|H,0.2480574701,-3.0781326
 47,0.2830389421|H,0.2186783832,-2.9671851669,-1.4872146661|H,1.7648902
 612,-2.9583340849,-0.6290402613||Version=IA32W-G03RevD.01|HF=0.0297341
 |RMSD=0.000e+000|RMSF=3.344e-005|Thermal=0.|Dipole=0.,0.,0.|PG=C01 [X(
 C7H15N1)]||@


 Discoveries are often made by not following instructions,
 by going off the main road, by trying the untried.
 -- Frank Tyger
 Job cpu time:  0 days  0 hours  0 minutes  3.0 seconds.
 File lengths (MBytes):  RWF=     11 Int=      0 D2E=      0 Chk=      4 Scr=      1
 Normal termination of Gaussian 03 at Tue Jan 15 16:35:00 2008.
