 Entering Link 1 = C:\G03W\l1.exe PID=       644.
  
 Copyright (c) 1988,1990,1992,1993,1995,1998,2003,2004, Gaussian, Inc.
                  All Rights Reserved.
  
 This is the Gaussian(R) 03 program.  It is based on the
 the Gaussian(R) 98 system (copyright 1998, Gaussian, Inc.),
 the Gaussian(R) 94 system (copyright 1995, Gaussian, Inc.),
 the Gaussian 92(TM) system (copyright 1992, Gaussian, Inc.),
 the Gaussian 90(TM) system (copyright 1990, Gaussian, Inc.),
 the Gaussian 88(TM) system (copyright 1988, Gaussian, Inc.),
 the Gaussian 86(TM) system (copyright 1986, Carnegie Mellon
 University), and the Gaussian 82(TM) system (copyright 1983,
 Carnegie Mellon University). Gaussian is a federally registered
 trademark of Gaussian, Inc.
  
 This software contains proprietary and confidential information,
 including trade secrets, belonging to Gaussian, Inc.
  
 This software is provided under written license and may be
 used, copied, transmitted, or stored only in accord with that
 written license.
  
 The following legend is applicable only to US Government
 contracts under FAR:
  
                    RESTRICTED RIGHTS LEGEND
  
 Use, reproduction and disclosure by the US Government is
 subject to restrictions as set forth in subparagraphs (a)
 and (c) of the Commercial Computer Software - Restricted
 Rights clause in FAR 52.227-19.
  
 Gaussian, Inc.
 340 Quinnipiac St., Bldg. 40, Wallingford CT 06492
  
  
 ---------------------------------------------------------------
 Warning -- This program may not be used in any manner that
 competes with the business of Gaussian, Inc. or will provide
 assistance to any competitor of Gaussian, Inc.  The licensee
 of this program is prohibited from giving any competitor of
 Gaussian, Inc. access to this program.  By using this program,
 the user acknowledges that Gaussian, Inc. is engaged in the
 business of creating and licensing software in the field of
 computational chemistry and represents and warrants to the
 licensee that it is not a competitor of Gaussian, Inc. and that
 it will not use this program in any manner prohibited above.
 ---------------------------------------------------------------
  

 Cite this work as:
 Gaussian 03, Revision D.01,
 M. J. Frisch, G. W. Trucks, H. B. Schlegel, G. E. Scuseria, 
 M. A. Robb, J. R. Cheeseman, J. A. Montgomery, Jr., T. Vreven, 
 K. N. Kudin, J. C. Burant, J. M. Millam, S. S. Iyengar, J. Tomasi, 
 V. Barone, B. Mennucci, M. Cossi, G. Scalmani, N. Rega, 
 G. A. Petersson, H. Nakatsuji, M. Hada, M. Ehara, K. Toyota, 
 R. Fukuda, J. Hasegawa, M. Ishida, T. Nakajima, Y. Honda, O. Kitao, 
 H. Nakai, M. Klene, X. Li, J. E. Knox, H. P. Hratchian, J. B. Cross, 
 V. Bakken, C. Adamo, J. Jaramillo, R. Gomperts, R. E. Stratmann, 
 O. Yazyev, A. J. Austin, R. Cammi, C. Pomelli, J. W. Ochterski, 
 P. Y. Ayala, K. Morokuma, G. A. Voth, P. Salvador, J. J. Dannenberg, 
 V. G. Zakrzewski, S. Dapprich, A. D. Daniels, M. C. Strain, 
 O. Farkas, D. K. Malick, A. D. Rabuck, K. Raghavachari, 
 J. B. Foresman, J. V. Ortiz, Q. Cui, A. G. Baboul, S. Clifford, 
 J. Cioslowski, B. B. Stefanov, G. Liu, A. Liashenko, P. Piskorz, 
 I. Komaromi, R. L. Martin, D. J. Fox, T. Keith, M. A. Al-Laham, 
 C. Y. Peng, A. Nanayakkara, M. Challacombe, P. M. W. Gill, 
 B. Johnson, W. Chen, M. W. Wong, C. Gonzalez, and J. A. Pople, 
 Gaussian, Inc., Wallingford CT, 2004.
 
 ******************************************
 Gaussian 03:  IA32W-G03RevD.01 13-Oct-2005
                15-Jan-2008 
 ******************************************
 --------------
 # opt dreiding
 --------------
 1/6=10,10=10,14=-1,18=4000020,38=1,56=1,64=1/1,3;
 2/9=110,17=6,18=5,40=1/2;
 3/5=30,11=9,16=1,25=1,30=1/1;
 4/20=9,22=1001,24=3/2;
 7/44=-1/16;
 1/6=10,10=10,14=-1,18=4000020,64=1/3(2);
 2/9=110/2;
 99//99;
 2/9=110/2;
 3/5=30,11=9,16=1,25=1,30=1/1;
 4/16=2,20=9,22=1001,24=3/2;
 7/44=-1/16;
 1/6=10,10=10,14=-1,18=4000020,64=1/3(-4);
 2/9=110/2;
 99//99;
 ----------------------------
 N,4-dimethylpiperidine-eq,eq
 ----------------------------
 Symbolic Z-matrix:
 Charge =  0 Multiplicity = 1
 C                    -1.09836  -0.69639   0.61739 
 N                    -1.08036   0.75961   0.61639 
 C                     0.28464   1.26961   0.61639 
 C                    -0.35036  -1.27839  -0.59261 
 C                     1.08464   0.76161  -0.59361 
 C                     1.09964  -0.77339  -0.63161 
 C                    -1.83436   1.29161   1.74239 
 H                    -2.15436  -1.05839   0.58639 
 H                     0.80764   0.97161   1.55639 
 H                     0.26764   2.38561   0.58539 
 H                    -0.87636  -0.97639  -1.52961 
 H                     2.12964   1.15261  -0.55061 
 H                     0.62264   1.15461  -1.52961 
 H                     1.62964  -1.14639   0.27939 
 H                    -1.39136   0.97961   2.71639 
 H                    -1.86136   2.40461   1.70339 
 H                    -2.89136   0.94061   1.70439 
 H                    -0.64136  -1.08739   1.55739 
 C                     1.84264  -1.29739  -1.86961 
 H                    -0.36636  -2.39439  -0.54961 
 H                     1.35464  -0.95439  -2.81061 
 H                     2.89864  -0.94139  -1.88361 
 H                     1.86364  -2.41139  -1.88261 
 
 Include all MM classes
 MMInit generated parameter data with length LenPar=  2592.

 GradGradGradGradGradGradGradGradGradGradGradGradGradGradGradGradGradGrad
 Berny optimization.
 Initialization pass.
 No Z-matrix variables, so optimization will use Cartesian coordinates.
 Trust Radius=1.00D-01 FncErr=1.00D-07 GrdErr=1.00D-07
 Number of steps in this run=   2 maximum allowed number of steps=   2.
 GradGradGradGradGradGradGradGradGradGradGradGradGradGradGradGradGradGrad

                          Input orientation:                          
 ---------------------------------------------------------------------
 Center     Atomic     Atomic              Coordinates (Angstroms)
 Number     Number      Type              X           Y           Z
 ---------------------------------------------------------------------
    1          6      10061003       -1.098359   -0.696391    0.617391
    2          7      10071003       -1.080359    0.759609    0.616391
    3          6      10061003        0.284641    1.269609    0.616391
    4          6      10061003       -0.350359   -1.278391   -0.592609
    5          6      10061003        1.084641    0.761609   -0.593609
    6          6      10061003        1.099641   -0.773391   -0.631609
    7          6      10061003       -1.834359    1.291609    1.742391
    8          1      10011000       -2.154359   -1.058391    0.586391
    9          1      10011000        0.807641    0.971609    1.556391
   10          1      10011000        0.267641    2.385609    0.585391
   11          1      10011000       -0.876359   -0.976391   -1.529609
   12          1      10011000        2.129641    1.152609   -0.550609
   13          1      10011000        0.622641    1.154609   -1.529609
   14          1      10011000        1.629641   -1.146391    0.279391
   15          1      10011000       -1.391359    0.979609    2.716391
   16          1      10011000       -1.861359    2.404609    1.703391
   17          1      10011000       -2.891359    0.940609    1.704391
   18          1      10011000       -0.641359   -1.087391    1.557391
   19          6      10061003        1.842641   -1.297391   -1.869609
   20          1      10011000       -0.366359   -2.394391   -0.549609
   21          1      10011000        1.354641   -0.954391   -2.810609
   22          1      10011000        2.898641   -0.941391   -1.883609
   23          1      10011000        1.863641   -2.411391   -1.882609
 ---------------------------------------------------------------------
                    Distance matrix (angstroms):
                    1          2          3          4          5
     1  C    0.000000
     2  N    1.456112   0.000000
     3  C    2.403715   1.457163   0.000000
     4  C    1.536987   2.479521   2.890884   0.000000
     5  C    2.890981   2.480187   1.536933   2.494158   0.000000
     6  C    2.529256   2.942787   2.528948   1.535919   1.535544
     7  C    2.399889   1.455821   2.399692   3.776160   3.776024
     8  H    1.116755   2.111753   3.371825   2.166300   3.898195
     9  H    2.701255   2.119691   1.116214   3.319889   2.177919
    10  H    3.371306   2.112331   1.116560   3.898013   2.166773
    11  H    2.176532   2.767784   3.316286   1.116176   2.782492
    12  H    3.899104   3.438086   2.186230   3.473028   1.116582
    13  H    3.316271   2.767951   2.175496   2.782838   1.115343
    14  H    2.785449   3.330241   2.785615   2.167535   2.167860
    15  H    2.701967   2.134273   2.702420   4.139049   4.139348
    16  H    3.373094   2.120744   2.659908   4.595566   4.081002
    17  H    2.660110   2.120431   3.373272   4.081281   4.595805
    18  H    1.115944   2.118870   2.701556   2.177995   3.320343
    19  C    3.898186   4.353777   3.898339   2.537782   2.538153
    20  H    2.186531   3.437596   3.899776   1.116943   3.473856
    21  H    4.223145   4.539972   4.223198   2.816296   2.816495
    22  H    4.721338   4.997584   4.239283   3.512300   2.802660
    23  H    4.238475   4.996737   4.721017   2.801711   3.512306
                    6          7          8          9         10
     6  C    0.000000
     7  C    4.302146   0.000000
     8  H    3.486153   2.638415   0.000000
     9  H    2.813829   2.667801   3.719576   0.000000
    10  H    3.486057   2.637023   4.210371   1.798287   0.000000
    11  H    2.179952   4.094823   2.473351   4.019198   4.133401
    12  H    2.185621   4.581535   4.953175   2.493972   2.505560
    13  H    2.179706   4.094094   4.133589   3.096952   2.472774
    14  H    1.118012   4.481463   3.797453   2.606211   3.797855
    15  H    4.526278   1.114571   3.045080   2.486215   3.044713
    16  H    4.931473   1.114010   3.650467   3.032929   2.404772
    17  H    4.931812   1.114403   2.406054   3.702089   3.649584
    18  H    2.814498   2.667792   1.798013   2.517754   3.719246
    19  C    1.535991   5.767997   4.697347   4.237577   4.698100
    20  H    2.187126   4.582017   2.504463   4.140467   4.953643
    21  H    2.201324   5.995335   4.885029   4.804100   4.885692
    22  H    2.198210   6.366746   5.625602   4.457067   4.907856
    23  H    2.198122   6.366164   4.906210   4.938274   5.625784
                   11         12         13         14         15
    11  H    0.000000
    12  H    3.811446   0.000000
    13  H    2.605410   1.797079   0.000000
    14  H    3.095386   2.494855   3.095340   0.000000
    15  H    4.703156   4.806314   4.702695   4.425527   0.000000
    16  H    4.780552   4.751431   4.264393   5.179233   1.810440
    17  H    4.265427   5.508213   4.780455   5.179347   1.809880
    18  H    3.097921   4.140013   4.019183   2.606570   2.485613
    19  C    2.758913   2.797254   2.759765   2.164803   6.055979
    20  H    1.797561   4.337191   3.812338   2.495749   4.806377
    21  H    2.572704   3.185541   2.573843   3.108149   6.467503
    22  H    3.791723   2.598670   3.114275   2.516139   6.576803
    23  H    3.113107   3.814063   3.792235   2.515795   6.576071
                   16         17         18         19         20
    16  H    0.000000
    17  H    1.790027   0.000000
    18  H    3.701862   3.032638   0.000000
    19  C    6.339617   6.339785   4.237769   0.000000
    20  H    5.508306   4.751670   2.494659   2.797408   0.000000
    21  H    6.480874   6.481108   4.804282   1.114125   3.185524
    22  H    6.835195   7.066807   4.938967   1.114481   3.814576
    23  H    7.066037   6.834654   4.456636   1.114274   2.598091
                   21         22         23
    21  H    0.000000
    22  H    1.800954   0.000000
    23  H    1.800865   1.797811   0.000000
 Stoichiometry    C7H15N
 Framework group  C1[X(C7H15N)]
 Deg. of freedom    63
 Full point group                 C1
 Largest Abelian subgroup         C1      NOp   1
 Largest concise Abelian subgroup C1      NOp   1
                         Standard orientation:                         
 ---------------------------------------------------------------------
 Center     Atomic     Atomic              Coordinates (Angstroms)
 Number     Number      Type              X           Y           Z
 ---------------------------------------------------------------------
    1          6      10061003        0.773338    1.201776    0.173800
    2          7      10071003        1.417607    0.000596   -0.338396
    3          6      10061003        0.773346   -1.201939    0.173623
    4          6      10061003       -0.720430    1.246944   -0.185289
    5          6      10061003       -0.720362   -1.247215   -0.185471
    6          6      10061003       -1.445630   -0.000425    0.341212
    7          6      10061003        2.840447   -0.000255   -0.030271
    8          1      10011000        1.267154    2.105457   -0.258228
    9          1      10011000        0.888514   -1.258807    1.282423
   10          1      10011000        1.268092   -2.104914   -0.258311
   11          1      10011000       -0.830008    1.302268   -1.294694
   12          1      10011000       -1.186599   -2.168280    0.239991
   13          1      10011000       -0.829280   -1.303142   -1.294073
   14          1      10011000       -1.386790    0.000009    1.457674
   15          1      10011000        3.021677    0.000370    1.069468
   16          1      10011000        3.335271   -0.895026   -0.472485
   17          1      10011000        3.335511    0.895001   -0.472223
   18          1      10011000        0.888846    1.258946    1.282277
   19          6      10061003       -2.927457    0.000173   -0.063088
   20          1      10011000       -1.186581    2.168911    0.239258
   21          1      10011000       -3.045374    0.000098   -1.170955
   22          1      10011000       -3.451958   -0.898617    0.335842
   23          1      10011000       -3.451221    0.899195    0.335706
 ---------------------------------------------------------------------
 Rotational constants (GHZ):      4.3143715      1.3565636      1.1084571
 Standard basis: Dummy (5D, 7F)
 There are    23 symmetry adapted basis functions of A   symmetry.
 Integral buffers will be    262144 words long.
 Raffenetti 1 integral format.
 Two-electron integral symmetry is turned on.
    23 basis functions,    23 primitive gaussians,    23 cartesian basis functions
    15 alpha electrons       15 beta electrons
       nuclear repulsion energy        85.9198479419 Hartrees.
 NAtoms=   23 NActive=   23 NUniq=   23 SFac= 7.50D-01 NAtFMM=   80 NAOKFM=F Big=F
 Dreiding calculation of energy and first derivatives.
 MO and density RWFs will be updated without deorthogonalization.
 NRF= 0 NRA=   0 NVA=  23 HaveQM=F
 Convergence limit is  0.750E-04 MaxStp=  5000 StMxLn= 1.00D-04 StpMin= 1.00D-06.
 Convergence criteria           0.00011250 0.00007500 0.00045000 0.00030000
  Step  NS  ND Rises OKQ   Scale  Max. Force  RMS Force Max. Disp.  RMS Disp.     Energy   Flag
     1   0   0   F    T  1.00D+00 0.03941171 0.01257761 0.03941171 0.01257761    0.0396580 ----
     2   0   0   F    F  2.52D-01 0.03941171 0.01257761 0.03941171 0.01257761    0.0331190 ----
     3   0   0   F    T  4.77D+00 0.00942418 0.00320070 0.00814159 0.00330270    0.0328449 ----
     4   0   0   T    F  4.12D-01 0.00942418 0.00320070 0.03880437 0.01574131    0.0335699 ----
     5   0   0   F    T  1.99D+00 0.00536806 0.00252494 0.00841412 0.00325841    0.0321511 ----
     6   0   0   F    F  1.22D+00 0.00536806 0.00252494 0.01673680 0.00648141    0.0314744 ----
     7   0   0   F    T  3.92D+00 0.00612555 0.00233720 0.01024456 0.00366047    0.0311839 ----
     8   0   0   F    F -3.23D-01 0.00612555 0.00233720 0.04018335 0.01435785    0.0307971 ----
     9   0   0   F    T  2.79D+00 0.00634452 0.00204310 0.00996619 0.00348149    0.0306837 ----
    10   0   0   F    F -1.15D-02 0.00634452 0.00204310 0.02783412 0.00972330    0.0302866 ----
    11   0   0   F    T  4.99D+00 0.00365640 0.00129488 0.00552435 0.00192609    0.0302866 ----
    12   0   0   F    F -4.16D-01 0.00365640 0.00129488 0.02756873 0.00961194    0.0302040 ----
    13   0   0   F    T  4.23D+00 0.00221231 0.00091324 0.00417792 0.00132547    0.0301181 ----
    14   0   0   F    F  2.90D-02 0.00221231 0.00091324 0.01767882 0.00560872    0.0299929 ----
    15   0   0   F    T  4.45D+00 0.00179204 0.00080100 0.00488868 0.00129629    0.0299928 ----
    16   0   0   F    F -2.43D-01 0.00179204 0.00080100 0.02176576 0.00577146    0.0299259 ----
    17   0   0   F    T  2.46D+00 0.00264137 0.00087356 0.00750250 0.00177383    0.0299182 ----
    18   0   0   F    F  4.37D-01 0.00264137 0.00087356 0.01847844 0.00436890    0.0298339 ----
    19   0   0   F    T  7.28D+00 0.00136896 0.00053382 0.00371187 0.00086235    0.0298253 ----
    20   0   0   T    F  2.22D-01 0.00136896 0.00053382 0.02701650 0.00627655    0.0300041 ----
    21   0   0   F    T  3.06D+00 0.00086828 0.00032495 0.00189259 0.00045673    0.0298094 ----
    22   0   0   F    F  2.78D-01 0.00086828 0.00032495 0.00578320 0.00139564    0.0297959 ----
    23   0   0   F    T  5.16D+00 0.00078132 0.00023966 0.00122257 0.00034538    0.0297952 ----
    24   0   0   T    F  3.82D-01 0.00078132 0.00023966 0.00631175 0.00178309    0.0298015 ----
    25   0   0   F    T  3.39D+00 0.00059488 0.00014935 0.00048354 0.00020082    0.0297913 ---+
    26   0   0   F    F  1.58D-01 0.00059488 0.00014935 0.00163853 0.00068050    0.0297883 ----
    27   0   0   F    T  2.95D+00 0.00051421 0.00015531 0.00061048 0.00026696    0.0297883 ---+
    28   0   0   F    F  5.36D-01 0.00051421 0.00015531 0.00180195 0.00078798    0.0297850 ----
    29   0   0   F    T  3.36D+00 0.00058231 0.00016936 0.00089025 0.00035978    0.0297845 ----
    30   0   0   F    F -1.78D-01 0.00058231 0.00016936 0.00299395 0.00120996    0.0297819 ----
    31   0   0   F    T  3.01D+00 0.00046723 0.00015275 0.00083609 0.00033026    0.0297818 ----
    32   0   0   F    F  1.15D+00 0.00046723 0.00015275 0.00251925 0.00099513    0.0297780 ----
    33   0   0   F    T  5.00D+00 0.00036583 0.00016652 0.00102675 0.00042690    0.0297766 ----
    34   0   0   F    F -4.46D-01 0.00036583 0.00016652 0.00513664 0.00213572    0.0297756 ----
    35   0   0   F    T  2.70D+00 0.00049964 0.00016270 0.00110550 0.00043899    0.0297739 ----
    36   0   0   F    F  5.29D-01 0.00049964 0.00016270 0.00298218 0.00118421    0.0297706 ----
    37   0   0   F    T  5.01D+00 0.00032030 0.00014169 0.00091621 0.00036149    0.0297701 ----
    38   0   0   F    F -3.94D-01 0.00032030 0.00014169 0.00458821 0.00181026    0.0297689 ----
    39   0   0   F    T  1.91D+00 0.00054844 0.00017436 0.00161748 0.00057413    0.0297680 ----
    40   0   0   F    F  3.89D+00 0.00054844 0.00017436 0.00309177 0.00109743    0.0297644 ----
    41   0   0   F    T  5.01D+00 0.00091160 0.00023554 0.00291180 0.00107282    0.0297582 ----
    42   0   0   T    F  4.37D-01 0.00091160 0.00023554 0.01457726 0.00537083    0.0297610 ----
    43   0   0   F    T  4.62D+00 0.00036135 0.00015773 0.00122741 0.00050735    0.0297541 ----
    44   0   0   F    F  2.82D-01 0.00036135 0.00015773 0.00567438 0.00234551    0.0297492 ----
    45   0   0   F    T  2.47D+00 0.00066692 0.00024209 0.00300249 0.00121841    0.0297490 ----
    46   0   0   F    F  1.49D-01 0.00066692 0.00024209 0.00740703 0.00300577    0.0297433 ----
    47   0   0   F    T  4.44D+00 0.00080580 0.00019067 0.00183050 0.00077726    0.0297432 ----
    48   0   0   F    F -2.07D-01 0.00080580 0.00019067 0.00813265 0.00345325    0.0297391 ----
    49   0   0   F    T  3.74D+00 0.00051125 0.00018194 0.00156098 0.00073161    0.0297388 ----
    50   0   0   F    F -2.51D-01 0.00051125 0.00018194 0.00583952 0.00273690    0.0297360 ----
    51   0   0   F    T  3.42D+00 0.00044913 0.00016158 0.00133175 0.00059996    0.0297356 ----
    52   0   0   F    F  2.13D-01 0.00044913 0.00016158 0.00455118 0.00205032    0.0297320 ----
    53   0   0   F    T  3.42D+00 0.00071546 0.00017523 0.00168218 0.00072781    0.0297319 ----
    54   0   0   F    F  7.82D-02 0.00071546 0.00017523 0.00574810 0.00248696    0.0297280 ----
    55   0   0   F    T  5.21D+00 0.00047664 0.00014445 0.00114514 0.00051488    0.0297280 ----
    56   0   0   F    T  3.10D+00 0.00056684 0.00018517 0.00191186 0.00086363    0.0297242 ----
    57   0   0   F    F -1.15D-01 0.00056684 0.00018517 0.00593616 0.00268150    0.0297210 ----
    58   0   0   F    T  1.96D+01 0.00018237 0.00006183 0.00027813 0.00012132    0.0297209 -+++
    59   0   0   T    F  2.53D-01 0.00018237 0.00006183 0.00544244 0.00237404    0.0297260 -+--
    60   0   0   F    T  2.12D+00 0.00029659 0.00009198 0.00072115 0.00028361    0.0297203 ---+
    61   0   0   F    T  8.97D+00 0.00017656 0.00003870 0.00017999 0.00006710    0.0297197 -+++
    62   0   0   T    F  3.23D-01 0.00017656 0.00003870 0.00161386 0.00060165    0.0297202 -+--
    63   0   0   F    T  3.57D+00 0.00009123 0.00003197 0.00015917 0.00005447    0.0297195 ====
 Energy=    0.029719533990 NIter=   0.
 Dipole moment=       0.000000       0.000000       0.000000
 ***** Axes restored to original set *****
 -------------------------------------------------------------------
 Center     Atomic                   Forces (Hartrees/Bohr)
 Number     Number              X              Y              Z
 -------------------------------------------------------------------
    1          6          -0.000053503   -0.000026952    0.000063698
    2          7          -0.000018863   -0.000026020    0.000005477
    3          6           0.000014561    0.000016114    0.000027216
    4          6           0.000006627    0.000006350   -0.000060602
    5          6           0.000034024    0.000004741   -0.000073563
    6          6           0.000060547    0.000012944    0.000041833
    7          6           0.000018632   -0.000025985    0.000008968
    8          1           0.000071149    0.000007294    0.000048791
    9          1          -0.000013834   -0.000000164   -0.000016671
   10          1           0.000023087   -0.000021363    0.000048858
   11          1          -0.000015350    0.000057583    0.000008195
   12          1          -0.000034078   -0.000034488   -0.000024661
   13          1          -0.000059138   -0.000014733    0.000020512
   14          1           0.000000322   -0.000010071   -0.000020832
   15          1          -0.000030856    0.000021271    0.000024448
   16          1          -0.000029569    0.000008641   -0.000020801
   17          1          -0.000000160    0.000026529   -0.000024036
   18          1          -0.000009968    0.000027205   -0.000044045
   19          6          -0.000000283    0.000002964   -0.000043048
   20          1           0.000010671    0.000000472   -0.000025269
   21          1           0.000066513   -0.000048870    0.000050975
   22          1          -0.000013979    0.000023600    0.000004280
   23          1          -0.000026551   -0.000007062    0.000000276
 -------------------------------------------------------------------
 Cartesian Forces:  Max     0.000073563 RMS     0.000031974

 GradGradGradGradGradGradGradGradGradGradGradGradGradGradGradGradGradGrad
 Berny optimization.
 Search for a local minimum.
 Step number   1 out of a maximum of   2
 All quantities printed in internal units (Hartrees-Bohrs-Radians)
 Second derivative matrix not updated -- unit matrix used.
 RFO step:  Lambda=-7.05423564D-08.
 Linear search not attempted -- first point.
 TrRot=  0.000000  0.000000  0.000000  0.000000  0.000000  0.000000
 Variable       Old X    -DE/DX   Delta X   Delta X   Delta X     New X
                                 (Linear)    (Quad)   (Total)
    X1       -2.08493  -0.00005   0.00000  -0.00005  -0.00005  -2.08498
    Y1       -1.41368  -0.00003   0.00000  -0.00003  -0.00003  -1.41371
    Z1        1.22123   0.00006   0.00000   0.00006   0.00006   1.22129
    X2       -2.00547  -0.00002   0.00000  -0.00002  -0.00002  -2.00549
    Y2        1.41146  -0.00003   0.00000  -0.00003  -0.00003   1.41144
    Z2        1.26566   0.00001   0.00000   0.00001   0.00001   1.26567
    X3        0.62674   0.00001   0.00000   0.00001   0.00001   0.62676
    Y3        2.44028   0.00002   0.00000   0.00002   0.00002   2.44029
    Z3        1.21992   0.00003   0.00000   0.00003   0.00003   1.21995
    X4       -0.66260   0.00001   0.00000   0.00001   0.00001  -0.66260
    Y4       -2.48518   0.00001   0.00000   0.00001   0.00001  -2.48518
    Z4       -1.10399  -0.00006   0.00000  -0.00006  -0.00006  -1.10405
    X5        2.11464   0.00003   0.00000   0.00003   0.00003   2.11468
    Y5        1.46229   0.00000   0.00000   0.00000   0.00000   1.46229
    Z5       -1.10546  -0.00007   0.00000  -0.00007  -0.00007  -1.10554
    X6        2.09803   0.00006   0.00000   0.00006   0.00006   2.09809
    Y6       -1.47685   0.00001   0.00000   0.00001   0.00001  -1.47683
    Z6       -1.24251   0.00004   0.00000   0.00004   0.00004  -1.24246
    X7       -3.57951   0.00002   0.00000   0.00002   0.00002  -3.57950
    Y7        2.51969  -0.00003   0.00000  -0.00003  -0.00003   2.51967
    Z7        3.32071   0.00001   0.00000   0.00001   0.00001   3.32072
    X8       -4.04604   0.00007   0.00000   0.00007   0.00007  -4.04597
    Y8       -2.05879   0.00001   0.00000   0.00001   0.00001  -2.05879
    Z8        1.11635   0.00005   0.00000   0.00005   0.00005   1.11640
    X9        1.63485  -0.00001   0.00000  -0.00001  -0.00001   1.63484
    Y9        1.91882   0.00000   0.00000   0.00000   0.00000   1.91882
    Z9        2.95005  -0.00002   0.00000  -0.00002  -0.00002   2.95003
   X10        0.57159   0.00002   0.00000   0.00002   0.00002   0.57162
   Y10        4.50384  -0.00002   0.00000  -0.00002  -0.00002   4.50382
   Z10        1.11416   0.00005   0.00000   0.00005   0.00005   1.11421
   X11       -1.68966  -0.00002   0.00000  -0.00002  -0.00002  -1.68968
   Y11       -1.94953   0.00006   0.00000   0.00006   0.00006  -1.94947
   Z11       -2.81670   0.00001   0.00000   0.00001   0.00001  -2.81669
   X12        4.06186  -0.00003   0.00000  -0.00003  -0.00003   4.06182
   Y12        2.14589  -0.00003   0.00000  -0.00003  -0.00003   2.14586
   Z12       -0.99109  -0.00002   0.00000  -0.00002  -0.00002  -0.99111
   X13        1.26283  -0.00006   0.00000  -0.00006  -0.00006   1.26277
   Y13        2.24725  -0.00001   0.00000  -0.00001  -0.00001   2.24724
   Z13       -2.81823   0.00002   0.00000   0.00002   0.00002  -2.81821
   X14        3.12849   0.00000   0.00000   0.00000   0.00000   3.12849
   Y14       -2.20107  -0.00001   0.00000  -0.00001  -0.00001  -2.20108
   Z14        0.40096  -0.00002   0.00000  -0.00002  -0.00002   0.40094
   X15       -2.84642  -0.00003   0.00000  -0.00003  -0.00003  -2.84645
   Y15        2.00460   0.00002   0.00000   0.00002   0.00002   2.00462
   Z15        5.18148   0.00002   0.00000   0.00002   0.00002   5.18151
   X16       -3.61411  -0.00003   0.00000  -0.00003  -0.00003  -3.61413
   Y16        4.57708   0.00001   0.00000   0.00001   0.00001   4.57708
   Z16        3.16883  -0.00002   0.00000  -0.00002  -0.00002   3.16881
   X17       -5.52782   0.00000   0.00000   0.00000   0.00000  -5.52782
   Y17        1.85737   0.00003   0.00000   0.00003   0.00003   1.85740
   Z17        3.16990  -0.00002   0.00000  -0.00002  -0.00002   3.16987
   X18       -1.25324  -0.00001   0.00000  -0.00001  -0.00001  -1.25325
   Y18       -2.18569   0.00003   0.00000   0.00003   0.00003  -2.18566
   Z18        2.95161  -0.00004   0.00000  -0.00004  -0.00004   2.95157
   X19        3.48731   0.00000   0.00000   0.00000   0.00000   3.48731
   Y19       -2.45496   0.00000   0.00000   0.00000   0.00000  -2.45496
   Z19       -3.63354  -0.00004   0.00000  -0.00004  -0.00004  -3.63358
   X20       -0.64810   0.00001   0.00000   0.00001   0.00001  -0.64809
   Y20       -4.54865   0.00000   0.00000   0.00000   0.00000  -4.54865
   Z20       -0.98841  -0.00003   0.00000  -0.00003  -0.00003  -0.98844
   X21        2.54803   0.00007   0.00000   0.00007   0.00007   2.54810
   Y21       -1.79472  -0.00005   0.00000  -0.00005  -0.00005  -1.79477
   Z21       -5.34888   0.00005   0.00000   0.00005   0.00005  -5.34883
   X22        5.43907  -0.00001   0.00000  -0.00001  -0.00001   5.43905
   Y22       -1.78506   0.00002   0.00000   0.00002   0.00002  -1.78503
   Z22       -3.65068   0.00000   0.00000   0.00000   0.00000  -3.65068
   X23        3.51619  -0.00003   0.00000  -0.00003  -0.00003   3.51616
   Y23       -4.51825  -0.00001   0.00000  -0.00001  -0.00001  -4.51826
   Z23       -3.64974   0.00000   0.00000   0.00000   0.00000  -3.64974
         Item               Value     Threshold  Converged?
 Maximum Force            0.000074     0.000450     YES
 RMS     Force            0.000032     0.000300     YES
 Maximum Displacement     0.000074     0.001800     YES
 RMS     Displacement     0.000032     0.001200     YES
 Predicted change in Energy=-3.527117D-08
 Optimization completed.
    -- Stationary point found.
 GradGradGradGradGradGradGradGradGradGradGradGradGradGradGradGradGradGrad

                          Input orientation:                          
 ---------------------------------------------------------------------
 Center     Atomic     Atomic              Coordinates (Angstroms)
 Number     Number      Type              X           Y           Z
 ---------------------------------------------------------------------
    1          6      10061003       -1.103297   -0.748089    0.646245
    2          7      10071003       -1.061249    0.746913    0.669759
    3          6      10061003        0.331657    1.291339    0.645554
    4          6      10061003       -0.350634   -1.315102   -0.584207
    5          6      10061003        1.119022    0.773809   -0.584986
    6          6      10061003        1.110229   -0.781514   -0.657505
    7          6      10061003       -1.894197    1.333365    1.757245
    8          1      10011000       -2.141075   -1.089466    0.590745
    9          1      10011000        0.865126    1.015394    1.561097
   10          1      10011000        0.302474    2.383329    0.589588
   11          1      10011000       -0.894130   -1.031646   -1.490533
   12          1      10011000        2.149443    1.135557   -0.524462
   13          1      10011000        0.668261    1.189194   -1.491345
   14          1      10011000        1.655525   -1.164758    0.212179
   15          1      10011000       -1.506261    1.060786    2.741923
   16          1      10011000       -1.912502    2.422084    1.676874
   17          1      10011000       -2.925194    0.982878    1.677437
   18          1      10011000       -0.663187   -1.156617    1.561926
   19          6      10061003        1.845405   -1.299108   -1.922786
   20          1      10011000       -0.342960   -2.407042   -0.523045
   21          1      10011000        1.348361   -0.949727   -2.830503
   22          1      10011000        2.878231   -0.944611   -1.931857
   23          1      10011000        1.860688   -2.390954   -1.931357
 ---------------------------------------------------------------------
                    Distance matrix (angstroms):
                    1          2          3          4          5
     1  C    0.000000
     2  N    1.495778   0.000000
     3  C    2.493664   1.495718   0.000000
     4  C    1.549844   2.515812   2.961650   0.000000
     5  C    2.961554   2.515688   1.549842   2.554102   0.000000
     6  C    2.569160   2.968676   2.569214   1.556988   1.557038
     7  C    2.488432   1.490086   2.488383   3.857378   3.857284
     8  H    1.093893   2.131797   3.433022   2.153393   3.934764
     9  H    2.796698   2.139506   1.094967   3.392877   2.174512
    10  H    3.432955   2.131672   1.093813   3.934811   2.153353
    11  H    2.165635   2.803223   3.385510   1.094149   2.851747
    12  H    3.936876   3.447571   2.167383   3.501384   1.093752
    13  H    3.385377   2.803068   2.165658   2.851762   1.094173
    14  H    2.823672   3.353315   2.823624   2.163680   2.163643
    15  H    2.797548   2.142526   2.797474   4.247759   4.247681
    16  H    3.430307   2.131926   2.716331   4.638801   4.125889
    17  H    2.716415   2.131991   3.430308   4.126028   4.638744
    18  H    1.095018   2.139589   2.796773   2.174556   3.392940
    19  C    3.949479   4.399560   3.949459   2.571894   2.571833
    20  H    2.167366   3.447630   3.936846   1.093678   3.501291
    21  H    4.258998   4.575658   4.258995   2.840059   2.839986
    22  H    4.747399   5.014894   4.257647   3.518380   2.803898
    23  H    4.257728   5.014951   4.747388   2.803965   3.518311
                    6          7          8          9         10
     6  C    0.000000
     7  C    4.396625   0.000000
     8  H    3.496275   2.700330   0.000000
     9  H    2.865511   2.784501   3.795954   0.000000
    10  H    3.496276   2.700224   4.246321   1.769648   0.000000
    11  H    2.184939   4.140226   2.426918   4.074040   4.173825
    12  H    2.184681   4.647186   4.960137   2.452237   2.491854
    13  H    2.185021   4.140087   4.173699   3.063717   2.426940
    14  H    1.095707   4.607426   3.816169   2.682792   3.816032
    15  H    4.668641   1.092879   3.107111   2.649507   3.106958
    16  H    4.984905   1.091835   3.682785   3.115670   2.467754
    17  H    4.984945   1.091863   2.467864   3.792245   3.682733
    18  H    2.865586   2.784519   1.769705   2.655819   3.795940
    19  C    1.552199   5.870023   4.717394   4.295965   4.717309
    20  H    2.184532   4.647225   2.491937   4.185235   4.960060
    21  H    2.192469   6.064168   4.888827   4.835429   4.888780
    22  H    2.185498   6.447846   5.619425   4.482738   4.905853
    23  H    2.185448   6.447907   4.906014   4.979116   5.619339
                   11         12         13         14         15
    11  H    0.000000
    12  H    3.859197   0.000000
    13  H    2.715363   1.769643   0.000000
    14  H    3.068825   2.465369   3.068839   0.000000
    15  H    4.760951   4.902961   4.760840   4.620556   0.000000
    16  H    4.795602   4.795876   4.268251   5.267028   1.775526
    17  H    4.268437   5.533860   4.795484   5.267097   1.775549
    18  H    3.063733   4.185446   4.074070   2.682966   2.649537
    19  C    2.786293   2.824066   2.786298   2.147599   6.209853
    20  H    1.769615   4.331523   3.859157   2.465313   4.902970
    21  H    2.613618   3.210603   2.613592   3.065698   6.575939
    22  H    3.799085   2.615147   3.103408   2.477976   6.714880
    23  H    3.103396   3.807758   3.799073   2.477983   6.714939
                   16         17         18         19         20
    16  H    0.000000
    17  H    1.759790   0.000000
    18  H    3.792242   3.115680   0.000000
    19  C    6.397397   6.397475   4.296109   0.000000
    20  H    5.533856   4.795999   2.452185   2.824134   0.000000
    21  H    6.505290   6.505364   4.835552   1.092277   3.210716
    22  H    6.878132   7.100842   4.979267   1.092008   3.807825
    23  H    7.100819   6.878285   4.482919   1.091986   2.615276
                   21         22         23
    21  H    0.000000
    22  H    1.774287   0.000000
    23  H    1.774282   1.768418   0.000000
 Stoichiometry    C7H15N
 Framework group  C1[X(C7H15N)]
 Deg. of freedom    63
 Full point group                 C1
 Largest Abelian subgroup         C1      NOp   1
 Largest concise Abelian subgroup C1      NOp   1
                         Standard orientation:                         
 ---------------------------------------------------------------------
 Center     Atomic     Atomic              Coordinates (Angstroms)
 Number     Number      Type              X           Y           Z
 ---------------------------------------------------------------------
    1          6      10061003        0.772104    1.246843    0.202302
    2          7      10071003        1.432235   -0.000032   -0.294571
    3          6      10061003        0.772131   -1.246821    0.202371
    4          6      10061003       -0.731791    1.277092   -0.171062
    5          6      10061003       -0.731736   -1.277010   -0.171107
    6          6      10061003       -1.470829    0.000047    0.326119
    7          6      10061003        2.906918   -0.000023   -0.080874
    8          1      10011000        1.246901    2.123193   -0.248453
    9          1      10011000        0.878748   -1.327836    1.289119
   10          1      10011000        1.246915   -2.123128   -0.248287
   11          1      10011000       -0.822872    1.357736   -1.258427
   12          1      10011000       -1.189536   -2.165785    0.272504
   13          1      10011000       -0.822749   -1.357627   -1.258504
   14          1      10011000       -1.448646   -0.000034    1.421601
   15          1      10011000        3.151175   -0.000025    0.984359
   16          1      10011000        3.358048   -0.879922   -0.543868
   17          1      10011000        3.358113    0.879868   -0.543887
   18          1      10011000        0.878824    1.327983    1.289082
   19          6      10061003       -2.963070   -0.000070   -0.101127
   20          1      10011000       -1.189569    2.165737    0.272652
   21          1      10011000       -3.055047   -0.000073   -1.189525
   22          1      10011000       -3.469111   -0.884320    0.291944
   23          1      10011000       -3.469196    0.884098    0.291961
 ---------------------------------------------------------------------
 Rotational constants (GHZ):      4.1499128      1.3215733      1.0720319
 1|1|UNPC-UNK|FOpt|Dreiding|ZDO|C7H15N1|PCUSER|15-Jan-2008|0||# opt dre
 iding||N,4-dimethylpiperidine-eq,eq||0,1|C,-1.1032972712,-0.7480886656
 ,0.6462447859|N,-1.0612488539,0.7469133723,0.6697587467|C,0.331657136,
 1.2913391396,0.6455542661|C,-0.3506344893,-1.3151021615,-0.5842070052|
 C,1.1190215331,0.7738090203,-0.5849864395|C,1.1102293412,-0.7815142495
 ,-0.6575054941|C,-1.8941971335,1.3333651381,1.7572451202|H,-2.14107467
 53,-1.0894663785,0.5907452303|H,0.8651261415,1.0153942984,1.5610970797
 |H,0.3024739149,2.3833290471,0.5895877893|H,-0.8941301526,-1.031645511
 7,-1.4905328009|H,2.1494427745,1.1355574041,-0.5244618034|H,0.66826147
 97,1.1891940836,-1.491344956|H,1.6555248151,-1.1647577036,0.2121788819
 |H,-1.5062610209,1.0607864623,2.7419230638|H,-1.9125021169,2.422084111
 ,1.676874005|H,-2.9251943215,0.9828779879,1.6774367345|H,-0.6631867172
 ,-1.1566167397,1.5619261111|C,1.8454046295,-1.2991083405,-1.9227863967
 |H,-0.3429604666,-2.4070421249,-0.5230449643|H,1.34836124,-0.949727220
 9,-2.8305033781|H,2.8782309815,-0.9446112513,-1.9318566761|H,1.8606877
 219,-2.390954207,-1.9313574204||Version=IA32W-G03RevD.01|HF=0.0297195|
 RMSD=0.000e+000|RMSF=3.197e-005|Thermal=0.|Dipole=0.,0.,0.|PG=C01 [X(C
 7H15N1)]||@


 Discoveries are often made by not following instructions,
 by going off the main road, by trying the untried.
 -- Frank Tyger
 Job cpu time:  0 days  0 hours  0 minutes  3.0 seconds.
 File lengths (MBytes):  RWF=     11 Int=      0 D2E=      0 Chk=      4 Scr=      1
 Normal termination of Gaussian 03 at Tue Jan 15 16:35:07 2008.
