 Entering Link 1 = C:\G03W\l1.exe PID=      3796.
  
 Copyright (c) 1988,1990,1992,1993,1995,1998,2003,2004, Gaussian, Inc.
                  All Rights Reserved.
  
 This is the Gaussian(R) 03 program.  It is based on the
 the Gaussian(R) 98 system (copyright 1998, Gaussian, Inc.),
 the Gaussian(R) 94 system (copyright 1995, Gaussian, Inc.),
 the Gaussian 92(TM) system (copyright 1992, Gaussian, Inc.),
 the Gaussian 90(TM) system (copyright 1990, Gaussian, Inc.),
 the Gaussian 88(TM) system (copyright 1988, Gaussian, Inc.),
 the Gaussian 86(TM) system (copyright 1986, Carnegie Mellon
 University), and the Gaussian 82(TM) system (copyright 1983,
 Carnegie Mellon University). Gaussian is a federally registered
 trademark of Gaussian, Inc.
  
 This software contains proprietary and confidential information,
 including trade secrets, belonging to Gaussian, Inc.
  
 This software is provided under written license and may be
 used, copied, transmitted, or stored only in accord with that
 written license.
  
 The following legend is applicable only to US Government
 contracts under FAR:
  
                    RESTRICTED RIGHTS LEGEND
  
 Use, reproduction and disclosure by the US Government is
 subject to restrictions as set forth in subparagraphs (a)
 and (c) of the Commercial Computer Software - Restricted
 Rights clause in FAR 52.227-19.
  
 Gaussian, Inc.
 340 Quinnipiac St., Bldg. 40, Wallingford CT 06492
  
  
 ---------------------------------------------------------------
 Warning -- This program may not be used in any manner that
 competes with the business of Gaussian, Inc. or will provide
 assistance to any competitor of Gaussian, Inc.  The licensee
 of this program is prohibited from giving any competitor of
 Gaussian, Inc. access to this program.  By using this program,
 the user acknowledges that Gaussian, Inc. is engaged in the
 business of creating and licensing software in the field of
 computational chemistry and represents and warrants to the
 licensee that it is not a competitor of Gaussian, Inc. and that
 it will not use this program in any manner prohibited above.
 ---------------------------------------------------------------
  

 Cite this work as:
 Gaussian 03, Revision D.01,
 M. J. Frisch, G. W. Trucks, H. B. Schlegel, G. E. Scuseria, 
 M. A. Robb, J. R. Cheeseman, J. A. Montgomery, Jr., T. Vreven, 
 K. N. Kudin, J. C. Burant, J. M. Millam, S. S. Iyengar, J. Tomasi, 
 V. Barone, B. Mennucci, M. Cossi, G. Scalmani, N. Rega, 
 G. A. Petersson, H. Nakatsuji, M. Hada, M. Ehara, K. Toyota, 
 R. Fukuda, J. Hasegawa, M. Ishida, T. Nakajima, Y. Honda, O. Kitao, 
 H. Nakai, M. Klene, X. Li, J. E. Knox, H. P. Hratchian, J. B. Cross, 
 V. Bakken, C. Adamo, J. Jaramillo, R. Gomperts, R. E. Stratmann, 
 O. Yazyev, A. J. Austin, R. Cammi, C. Pomelli, J. W. Ochterski, 
 P. Y. Ayala, K. Morokuma, G. A. Voth, P. Salvador, J. J. Dannenberg, 
 V. G. Zakrzewski, S. Dapprich, A. D. Daniels, M. C. Strain, 
 O. Farkas, D. K. Malick, A. D. Rabuck, K. Raghavachari, 
 J. B. Foresman, J. V. Ortiz, Q. Cui, A. G. Baboul, S. Clifford, 
 J. Cioslowski, B. B. Stefanov, G. Liu, A. Liashenko, P. Piskorz, 
 I. Komaromi, R. L. Martin, D. J. Fox, T. Keith, M. A. Al-Laham, 
 C. Y. Peng, A. Nanayakkara, M. Challacombe, P. M. W. Gill, 
 B. Johnson, W. Chen, M. W. Wong, C. Gonzalez, and J. A. Pople, 
 Gaussian, Inc., Wallingford CT, 2004.
 
 ******************************************
 Gaussian 03:  IA32W-G03RevD.01 13-Oct-2005
                09-Apr-2008 
 ******************************************
 --------------
 # opt dreiding
 --------------
 1/6=10,10=10,14=-1,18=4000020,38=1,56=1,64=1/1,3;
 2/9=110,17=6,18=5,40=1/2;
 3/5=30,11=9,16=1,25=1,30=1/1;
 4/20=9,22=1001,24=3/2;
 7/44=-1/16;
 1/6=10,10=10,14=-1,18=4000020,64=1/3(2);
 2/9=110/2;
 99//99;
 2/9=110/2;
 3/5=30,11=9,16=1,25=1,30=1/1;
 4/16=2,20=9,22=1001,24=3/2;
 7/44=-1/16;
 1/6=10,10=10,14=-1,18=4000020,64=1/3(-4);
 2/9=110/2;
 99//99;
 -------------------
 N-Ac-Ala-N-Me-g--g+
 -------------------
 Symbolic Z-matrix:
 Charge =  0 Multiplicity = 1
 C                    -1.13578  -2.93633   0.65256 
 C                    -1.03678  -1.45333   0.34656 
 O                    -1.53478  -0.63933   1.08656 
 N                    -0.33278  -1.13733  -0.79844 
 C                    -0.11478   0.22067  -1.26444 
 C                     1.00022   0.92067  -0.48644 
 O                     1.92822   1.42467  -1.07544 
 N                     0.86422   0.95867   0.88356 
 H                    -0.11678  -3.36733   0.78256 
 H                    -1.64878  -3.46533  -0.18344 
 H                    -1.71378  -3.11833   1.58656 
 C                    -1.37678   1.09367  -1.33144 
 H                     0.25022   0.09867  -2.31244 
 C                     1.84522   1.62467   1.70456 
 H                     0.08322  -1.92033  -1.30844 
 H                     0.02822   0.54067   1.29656 
 H                     1.58822   1.45167   2.77356 
 H                     1.83322   2.72067   1.50856 
 H                     2.86322   1.21467   1.51556 
 H                    -2.19278   0.57367  -1.88444 
 H                    -1.76278   1.36867  -0.32444 
 H                    -1.16678   2.05067  -1.86344 
 
 I=    8 IAn=  7 Valence=33.
          JB=  1 J=    6 IAn=  6 IBT=11 Dist= 1.38D+00
          JB=  2 J=   14 IAn=  6 IBT= 1 Dist= 1.44D+00
          JB=  3 J=   16 IAn=  1 IBT= 1 Dist= 1.02D+00
 Include all MM classes
 MMInit generated parameter data with length LenPar=  2140.

 GradGradGradGradGradGradGradGradGradGradGradGradGradGradGradGradGradGrad
 Berny optimization.
 Initialization pass.
 No Z-matrix variables, so optimization will use Cartesian coordinates.
 Trust Radius=1.00D-01 FncErr=1.00D-07 GrdErr=1.00D-07
 Number of steps in this run=   2 maximum allowed number of steps=   2.
 GradGradGradGradGradGradGradGradGradGradGradGradGradGradGradGradGradGrad

                          Input orientation:                          
 ---------------------------------------------------------------------
 Center     Atomic     Atomic              Coordinates (Angstroms)
 Number     Number      Type              X           Y           Z
 ---------------------------------------------------------------------
    1          6      10061003       -1.135782   -2.936333    0.652564
    2          6      10061002       -1.036782   -1.453333    0.346564
    3          8      10081002       -1.534782   -0.639333    1.086564
    4          7      10071000       -0.332782   -1.137333   -0.798436
    5          6      10061003       -0.114782    0.220667   -1.264436
    6          6      10061002        1.000218    0.920667   -0.486436
    7          8      10081002        1.928218    1.424667   -1.075436
    8          7      10071000        0.864218    0.958667    0.883564
    9          1      10011000       -0.116782   -3.367333    0.782564
   10          1      10011000       -1.648782   -3.465333   -0.183436
   11          1      10011000       -1.713782   -3.118333    1.586564
   12          6      10061003       -1.376782    1.093667   -1.331436
   13          1      10011000        0.250218    0.098667   -2.312436
   14          6      10061003        1.845218    1.624667    1.704564
   15          1      10011000        0.083218   -1.920333   -1.308436
   16          1      10011000        0.028218    0.540667    1.296564
   17          1      10011000        1.588218    1.451667    2.773564
   18          1      10011000        1.833218    2.720667    1.508564
   19          1      10011000        2.863218    1.214667    1.515564
   20          1      10011000       -2.192782    0.573667   -1.884436
   21          1      10011000       -1.762782    1.368667   -0.324436
   22          1      10011000       -1.166782    2.050667   -1.863436
 ---------------------------------------------------------------------
                    Distance matrix (angstroms):
                    1          2          3          4          5
     1  C    0.000000
     2  C    1.517474   0.000000
     3  O    2.371448   1.207560   0.000000
     4  N    2.446755   1.380760   2.290422   0.000000
     5  C    3.831968   2.499536   2.878055   1.452186   0.000000
     6  C    4.553709   3.237149   3.366624   2.471760   1.529218
     7  O    5.602892   4.369919   4.574572   3.428220   2.378904
     8  N    4.384562   3.117678   2.889639   2.941963   2.473255
     9  H    1.114012   2.167923   3.089518   2.742101   4.130854
    10  H    1.114408   2.168776   3.100350   2.744024   4.136220
    11  H    1.113357   2.183610   2.535248   3.394075   4.672678
    12  C    4.498359   3.068956   2.979090   2.520196   1.535989
    13  H    4.463569   3.336968   3.909485   2.039554   1.116429
    14  C    5.549395   4.429918   4.114854   4.317098   3.824628
    15  H    2.522645   2.052197   3.161473   1.022861   2.150586
    16  H    3.722789   2.452093   1.969637   2.708326   2.584873
    17  H    5.583311   4.606515   4.119633   4.811688   4.552034
    18  H    6.445878   5.197059   4.776098   4.989786   4.211203
    19  H    5.828170   4.867729   4.792052   4.593573   4.193438
    20  H    4.457995   3.228378   3.275847   2.750730   2.197065
    21  H    4.458776   2.990151   2.464745   2.923972   2.217523
    22  H    5.585820   4.144758   4.009242   3.463109   2.194175
                    6          7          8          9         10
     6  C    0.000000
     7  O    1.209182   0.000000
     8  N    1.377258   2.277484   0.000000
     9  H    4.609229   5.531496   4.436985   0.000000
    10  H    5.132836   6.123944   5.198599   1.813776   0.000000
    11  H    5.289295   6.402285   4.874651   1.805222   1.804864
    12  C    2.528652   3.331384   3.153812   5.094813   4.709179
    13  H    2.138331   2.470654   3.366157   4.661209   4.565188
    14  C    2.451555   2.788421   1.442206   5.442388   6.456058
    15  H    3.096426   3.827184   3.701819   2.550704   2.579239
    16  H    2.065980   3.165097   1.021856   3.944323   4.588111
    17  H    3.354893   3.864082   2.083105   5.485788   6.587785
    18  H    2.813168   2.892351   2.105761   6.433764   7.297519
    19  H    2.750493   2.762536   2.112099   5.514745   6.719163
    20  H    3.502865   4.285011   4.141895   5.191738   4.416204
    21  H    2.803768   3.767044   2.920358   5.134633   4.837399
    22  H    2.805159   3.254511   3.586563   6.120338   5.786275
                   11         12         13         14         15
    11  H    0.000000
    12  C    5.135099   0.000000
    13  H    5.422968   2.144648   0.000000
    14  C    5.930974   4.458760   4.583556   0.000000
    15  H    3.611847   3.349078   2.261032   4.974921   0.000000
    16  H    4.062874   3.030877   3.642736   2.154764   3.584072
    17  H    5.761690   5.076457   5.430308   1.112987   5.504374
    18  H    6.832365   4.584412   4.897021   1.113452   5.704110
    19  H    6.303083   5.108586   4.767264   1.113618   5.052880
    20  H    5.090005   1.114480   2.525284   5.503723   3.425199
    21  H    4.877242   1.112956   3.101163   4.147293   3.897883
    22  H    6.238611   1.114887   2.453527   4.688736   4.199925
                   16         17         18         19         20
    16  H    0.000000
    17  H    2.333463   0.000000
    18  H    2.838198   1.808483   0.000000
    19  H    2.922236   1.806753   1.824551   0.000000
    20  H    3.879780   6.063317   5.686012   6.126501   0.000000
    21  H    2.553606   4.564394   4.256643   4.980883   1.802921
    22  H    3.700503   5.426840   4.562815   5.325170   1.798512
                   21         22
    21  H    0.000000
    22  H    1.785738   0.000000
 Stoichiometry    C6H12N2O2
 Framework group  C1[X(C6H12N2O2)]
 Deg. of freedom    60
 Full point group                 C1
 Largest Abelian subgroup         C1      NOp   1
 Largest concise Abelian subgroup C1      NOp   1
                         Standard orientation:                         
 ---------------------------------------------------------------------
 Center     Atomic     Atomic              Coordinates (Angstroms)
 Number     Number      Type              X           Y           Z
 ---------------------------------------------------------------------
    1          6      10061003       -3.026175   -0.875562   -0.643077
    2          6      10061002       -1.791555   -0.310395    0.034437
    3          8      10081002       -1.478112   -0.674985    1.142149
    4          7      10071000       -1.079247    0.604602   -0.715160
    5          6      10061003        0.134684    1.255844   -0.255703
    6          6      10061002        1.353828    0.339721   -0.369354
    7          8      10081002        2.338139    0.709335   -0.966546
    8          7      10071000        1.264888   -0.883365    0.257534
    9          1      10011000       -2.738873   -1.397761   -1.584240
   10          1      10011000       -3.737606   -0.053429   -0.887758
   11          1      10011000       -3.549969   -1.604908    0.015147
   12          6      10061003        0.043121    1.886426    1.141882
   13          1      10011000        0.290857    2.092311   -0.978437
   14          6      10061003        2.373449   -1.805664    0.237126
   15          1      10011000       -1.424815    0.787081   -1.660426
   16          1      10011000        0.409472   -1.099532    0.773019
   17          1      10011000        2.051566   -2.756495    0.717803
   18          1      10011000        3.232517   -1.389990    0.810705
   19          1      10011000        2.684745   -2.026838   -0.808972
   20          1      10011000       -0.855575    2.540055    1.226620
   21          1      10011000       -0.004718    1.126553    1.953654
   22          1      10011000        0.938585    2.517283    1.349575
 ---------------------------------------------------------------------
 Rotational constants (GHZ):      1.8972331      0.9292988      0.7861712
 Standard basis: Dummy (5D, 7F)
 There are    22 symmetry adapted basis functions of A   symmetry.
 Integral buffers will be    262144 words long.
 Raffenetti 1 integral format.
 Two-electron integral symmetry is turned on.
    22 basis functions,    22 primitive gaussians,    22 cartesian basis functions
    15 alpha electrons       15 beta electrons
       nuclear repulsion energy        80.0103318248 Hartrees.
 NAtoms=   22 NActive=   22 NUniq=   22 SFac= 7.50D-01 NAtFMM=   80 NAOKFM=F Big=F
 Dreiding calculation of energy and first derivatives.
 MO and density RWFs will be updated without deorthogonalization.
 NRF= 0 NRA=   0 NVA=  22 HaveQM=F
 Convergence limit is  0.750E-04 MaxStp=  5000 StMxLn= 1.00D-04 StpMin= 1.00D-06.
 Convergence criteria           0.00011250 0.00007500 0.00045000 0.00030000
  Step  NS  ND Rises OKQ   Scale  Max. Force  RMS Force Max. Disp.  RMS Disp.     Energy   Flag
     1   0   0   F    T  1.00D+00 0.12474871 0.02665541 0.12474871 0.02665541    0.0838609 ----
     2   0   0   F    F  2.36D-01 0.12474871 0.02665541 0.12474871 0.02665541    0.0572671 ----
     3   0   0   F    F -2.58D-02 0.12474871 0.02665541 0.02940140 0.00628228    0.0563703 ----
     4   0   0   F    T  2.02D+00 0.04426017 0.01428406 0.06928183 0.01620574    0.0563697 ----
     5   0   0   F    F -2.16D-01 0.04426017 0.01428406 0.14011928 0.03277536    0.0466749 ----
     6   0   0   F    F -5.02D-03 0.04426017 0.01428406 0.03023165 0.00707150    0.0459351 ----
     7   0   0   F    T  2.40D+00 0.02944993 0.00801227 0.04071146 0.01074100    0.0459351 ----
     8   0   0   F    F -3.55D-01 0.02944993 0.00801227 0.09755960 0.02573938    0.0436504 ----
     9   0   0   F    T  4.55D+00 0.01122255 0.00296911 0.01430497 0.00364478    0.0426865 ----
    10   0   0   F    F -2.86D-01 0.01122255 0.00296911 0.06512987 0.01659453    0.0418941 ----
    11   0   0   F    T  2.36D+00 0.00889011 0.00306970 0.01743350 0.00502299    0.0417453 ----
    12   0   0   F    F  6.28D-01 0.00889011 0.00306970 0.04112661 0.01184952    0.0407306 ----
    13   0   0   F    T  3.78D+00 0.00786788 0.00279039 0.01561157 0.00510696    0.0405539 ----
    14   0   0   F    F -3.71D-01 0.00786788 0.00279039 0.05897260 0.01929152    0.0401541 ----
    15   0   0   F    T  2.45D+00 0.00823898 0.00253564 0.01479455 0.00496109    0.0399451 ----
    16   0   0   F    F -1.75D-01 0.00823898 0.00253564 0.03620833 0.01214181    0.0395346 ----
    17   0   0   F    T  1.90D+00 0.00749667 0.00246192 0.01764997 0.00526467    0.0395152 ----
    18   0   0   F    F  7.52D-01 0.00749667 0.00246192 0.03360059 0.01002245    0.0389715 ----
    19   0   0   F    T  2.73D+00 0.01049835 0.00261411 0.02120617 0.00642289    0.0388490 ----
    20   0   0   F    F -2.88D-01 0.01049835 0.00261411 0.05795992 0.01755480    0.0384822 ----
    21   0   0   F    T  3.46D+00 0.00513368 0.00182516 0.01189374 0.00360635    0.0384098 ----
    22   0   0   F    F  3.57D-02 0.00513368 0.00182516 0.04119999 0.01249243    0.0380168 ----
    23   0   0   F    T  2.89D+00 0.00591818 0.00192781 0.01430965 0.00447555    0.0380163 ----
    24   0   0   F    F -5.72D-02 0.00591818 0.00192781 0.04136740 0.01293826    0.0376841 ----
    25   0   0   F    T  4.75D+00 0.00322401 0.00132910 0.00696052 0.00256639    0.0376829 ----
    26   0   0   T    F  4.11D-01 0.00322401 0.00132910 0.03308462 0.01219851    0.0378017 ----
    27   0   0   F    T  1.86D+00 0.00417776 0.00127556 0.00596100 0.00269578    0.0375690 ----
    28   0   0   F    F  1.78D-01 0.00417776 0.00127556 0.01109623 0.00501811    0.0374539 ----
    29   0   0   F    T  2.79D+00 0.00316571 0.00105259 0.00534918 0.00211781    0.0374512 ----
    30   0   0   F    F -1.45D-01 0.00316571 0.00105259 0.01493179 0.00591168    0.0373664 ----
    31   0   0   F    T  3.68D+00 0.00196909 0.00077061 0.00423843 0.00137220    0.0373639 ----
    32   0   0   F    F  1.42D-01 0.00196909 0.00077061 0.01561108 0.00505410    0.0372827 ----
    33   0   0   F    T  2.98D+00 0.00330600 0.00086713 0.00550382 0.00193822    0.0372814 ----
    34   0   0   F    F -2.00D-02 0.00330600 0.00086713 0.01639537 0.00577377    0.0372090 ----
    35   0   0   F    T  3.84D+00 0.00238346 0.00070912 0.00391337 0.00147229    0.0372090 ----
    36   0   0   F    F -3.72D-01 0.00238346 0.00070912 0.01503995 0.00565835    0.0371830 ----
    37   0   0   F    T  2.20D+00 0.00232538 0.00070502 0.00573834 0.00161669    0.0371689 ----
    38   0   0   F    F  9.58D-02 0.00232538 0.00070502 0.01260919 0.00355246    0.0371298 ----
    39   0   0   F    T  1.89D+00 0.00271195 0.00076475 0.00566714 0.00205532    0.0371295 ----
    40   0   0   F    F  5.25D-01 0.00271195 0.00076475 0.01073389 0.00389289    0.0370803 ----
    41   0   0   F    T  2.62D+00 0.00236092 0.00077613 0.00642761 0.00226590    0.0370737 ----
    42   0   0   F    F  2.74D-01 0.00236092 0.00077613 0.01684392 0.00593792    0.0370104 ----
    43   0   0   F    T  2.67D+00 0.00217150 0.00084858 0.00805738 0.00283220    0.0370074 ----
    44   0   0   F    T  3.65D+00 0.00152746 0.00070465 0.00608587 0.00207548    0.0369437 ----
    45   0   0   F    F  4.08D-02 0.00152746 0.00070465 0.02218416 0.00756552    0.0368813 ----
    46   0   0   F    T  4.03D+00 0.00146582 0.00066470 0.00600054 0.00195418    0.0368812 ----
    47   0   0   F    F -1.54D-01 0.00146582 0.00066470 0.02417900 0.00787431    0.0368330 ----
    48   0   0   F    T  2.04D+00 0.00279523 0.00084854 0.00882137 0.00325934    0.0368314 ----
    49   0   0   F    F  2.28D-01 0.00279523 0.00084854 0.01802273 0.00665908    0.0367738 ----
    50   0   0   F    T  1.98D+00 0.00291349 0.00094575 0.01263332 0.00412788    0.0367717 ----
    51   0   0   F    F  1.63D-01 0.00291349 0.00094575 0.02503195 0.00817909    0.0367051 ----
    52   0   0   F    T  3.64D+00 0.00242888 0.00073686 0.00701062 0.00261302    0.0367037 ----
    53   0   0   F    F  2.62D-01 0.00242888 0.00073686 0.02551880 0.00951144    0.0366257 ----
    54   0   0   F    T  3.02D+00 0.00228598 0.00089151 0.01108149 0.00397265    0.0366222 ----
    55   0   0   F    F -2.25D-01 0.00228598 0.00089151 0.03348402 0.01200381    0.0365659 ----
    56   0   0   F    T  3.28D+00 0.00186093 0.00073296 0.00863001 0.00283717    0.0365606 ----
    57   0   0   F    F -1.43D-01 0.00186093 0.00073296 0.02829210 0.00930120    0.0365123 ----
    58   0   0   F    T  3.27D+00 0.00196424 0.00066756 0.00777011 0.00243678    0.0365109 ----
    59   0   0   F    F -3.05D-01 0.00196424 0.00066756 0.02540975 0.00796873    0.0364838 ----
    60   0   0   F    T  2.10D+00 0.00224701 0.00068722 0.00855365 0.00264107    0.0364773 ----
    61   0   0   F    F  7.55D-03 0.00224701 0.00068722 0.01794525 0.00554088    0.0364444 ----
    62   0   0   F    T  3.39D+00 0.00140367 0.00053225 0.00520695 0.00164683    0.0364444 ----
    63   0   0   F    F -2.86D-01 0.00140367 0.00053225 0.01765151 0.00558274    0.0364253 ----
    64   0   0   F    T  3.62D+00 0.00146441 0.00041945 0.00325332 0.00110052    0.0364217 ----
    65   0   0   F    F -1.19D-02 0.00146441 0.00041945 0.01178885 0.00398789    0.0364010 ----
    66   0   0   F    T  4.20D+00 0.00125696 0.00037029 0.00251448 0.00093866    0.0364010 ----
    67   0   0   F    F -4.78D-01 0.00125696 0.00037029 0.01055522 0.00394026    0.0363993 ----
    68   0   0   F    T  2.67D+00 0.00109772 0.00031926 0.00177759 0.00077011    0.0363910 ----
    69   0   0   F    F -1.28D-01 0.00109772 0.00031926 0.00474871 0.00205729    0.0363834 ----
    70   0   0   F    T  1.81D+00 0.00109986 0.00035013 0.00237792 0.00099097    0.0363832 ----
    71   0   0   F    F  5.03D-01 0.00109986 0.00035013 0.00430376 0.00179354    0.0363734 ----
    72   0   0   F    T  3.29D+00 0.00073246 0.00030631 0.00202601 0.00081921    0.0363722 ----
    73   0   0   F    F -1.68D-01 0.00073246 0.00030631 0.00666852 0.00269638    0.0363641 ----
    74   0   0   F    T  2.51D+00 0.00087390 0.00031059 0.00210912 0.00089498    0.0363637 ----
    75   0   0   F    F  9.68D-01 0.00087390 0.00031059 0.00528802 0.00224391    0.0363518 ----
    76   0   0   F    T  2.65D+00 0.00129728 0.00041844 0.00445913 0.00166736    0.0363480 ----
    77   0   0   F    F -1.32D-01 0.00129728 0.00041844 0.01181296 0.00441712    0.0363350 ----
    78   0   0   F    T  3.01D+00 0.00112215 0.00035857 0.00413003 0.00127293    0.0363347 ----
    79   0   0   F    F -3.80D-02 0.00112215 0.00035857 0.01243645 0.00383308    0.0363225 ----
    80   0   0   F    T  1.98D+00 0.00137125 0.00042673 0.00651333 0.00186114    0.0363224 ----
    81   0   0   F    F  3.51D-02 0.00137125 0.00042673 0.01290475 0.00368745    0.0363101 ----
    82   0   0   F    T  3.28D+00 0.00111949 0.00032803 0.00432722 0.00116425    0.0363101 ----
    83   0   0   F    F -2.61D-01 0.00111949 0.00032803 0.01418692 0.00381705    0.0363026 ----
    84   0   0   F    T  3.47D+00 0.00073713 0.00026590 0.00315863 0.00081173    0.0363015 ----
    85   0   0   F    F  4.92D-01 0.00073713 0.00026590 0.01097112 0.00281944    0.0362907 ----
    86   0   0   F    T  3.07D+00 0.00097092 0.00034029 0.00531515 0.00136901    0.0362894 ----
    87   0   0   F    F -1.98D-01 0.00097092 0.00034029 0.01633709 0.00420790    0.0362806 ----
    88   0   0   F    T  3.21D+00 0.00120309 0.00029311 0.00398867 0.00105283    0.0362800 ----
    89   0   0   F    F -3.17D-01 0.00120309 0.00029311 0.01278840 0.00337556    0.0362751 ----
    90   0   0   F    T  1.76D+00 0.00137327 0.00032194 0.00483311 0.00130867    0.0362738 ----
    91   0   0   F    F  7.92D-01 0.00137327 0.00032194 0.00851526 0.00230569    0.0362651 ----
    92   0   0   F    T  2.86D+00 0.00076885 0.00033418 0.00523810 0.00144427    0.0362630 ----
    93   0   0   F    F  4.38D-02 0.00076885 0.00033418 0.01498903 0.00413284    0.0362520 ----
    94   0   0   F    T  3.30D+00 0.00084213 0.00031485 0.00480697 0.00130746    0.0362519 ----
    95   0   0   F    F  1.90D-01 0.00084213 0.00031485 0.01586069 0.00431400    0.0362394 ----
    96   0   0   F    T  2.20D+00 0.00110440 0.00041838 0.00877648 0.00233239    0.0362391 ----
    97   0   0   F    F  6.00D-01 0.00110440 0.00041838 0.01931706 0.00513360    0.0362217 ----
    98   0   0   F    T  2.91D+00 0.00128463 0.00045574 0.01081656 0.00282498    0.0362189 ----
    99   0   0   F    F -2.28D-01 0.00128463 0.00045574 0.03145489 0.00821514    0.0362049 ----
   100   0   0   F    T  2.92D+00 0.00201216 0.00039265 0.00848555 0.00217067    0.0362035 ----
   101   0   0   F    F -3.45D-01 0.00201216 0.00039265 0.02478394 0.00633993    0.0361965 ----
   102   0   0   F    T  2.31D+00 0.00148307 0.00035468 0.00718813 0.00179577    0.0361938 ----
   103   0   0   F    F  2.21D-01 0.00148307 0.00035468 0.01662061 0.00415223    0.0361824 ----
   104   0   0   F    T  5.59D+00 0.00051902 0.00025057 0.00374097 0.00090748    0.0361820 ----
   105   0   0   F    F -4.47D-01 0.00051902 0.00025057 0.02090040 0.00507002    0.0361798 ----
   106   0   0   F    T  3.19D+00 0.00067819 0.00024240 0.00364568 0.00087763    0.0361756 ----
   107   0   0   F    F  3.91D-01 0.00067819 0.00024240 0.01163745 0.00280151    0.0361677 ----
   108   0   0   F    T  4.22D+00 0.00076363 0.00024469 0.00369466 0.00092421    0.0361670 ----
   109   0   0   T    F  4.30D-01 0.00076363 0.00024469 0.01557389 0.00389575    0.0361697 ----
   110   0   0   F    T  2.32D+00 0.00091830 0.00021091 0.00264887 0.00072181    0.0361634 ----
   111   0   0   F    F  2.42D-01 0.00091830 0.00021091 0.00615239 0.00167651    0.0361594 ----
   112   0   0   F    T  2.17D+00 0.00074457 0.00023867 0.00322503 0.00095939    0.0361592 ----
   113   0   0   F    F  5.16D-02 0.00074457 0.00023867 0.00699988 0.00208234    0.0361549 ----
   114   0   0   F    T  2.94D+00 0.00065378 0.00020554 0.00257865 0.00074527    0.0361549 ----
   115   0   0   F    F  1.59D-02 0.00065378 0.00020554 0.00757701 0.00218988    0.0361507 ----
   116   0   0   F    T  3.06D+00 0.00044653 0.00019877 0.00246487 0.00072642    0.0361507 ----
   117   0   0   F    F  6.48D-02 0.00044653 0.00019877 0.00754910 0.00222479    0.0361465 ----
   118   0   0   F    T  3.70D+00 0.00071131 0.00018302 0.00214569 0.00064058    0.0361465 ----
   119   0   0   F    F  1.18D-01 0.00071131 0.00018302 0.00793476 0.00236887    0.0361420 ----
   120   0   0   F    T  3.36D+00 0.00053393 0.00020021 0.00267421 0.00078752    0.0361419 ----
   121   0   0   F    F -3.43D-01 0.00053393 0.00020021 0.00899655 0.00264937    0.0361398 ----
   122   0   0   F    T  1.83D+00 0.00073488 0.00021743 0.00332838 0.00095126    0.0361390 ----
   123   0   0   F    F  5.06D-01 0.00073488 0.00021743 0.00609134 0.00174092    0.0361352 ----
   124   0   0   F    T  2.47D+00 0.00085171 0.00022734 0.00387449 0.00106304    0.0361347 ----
   125   0   0   F    F  1.85D-02 0.00085171 0.00022734 0.00955569 0.00262178    0.0361304 ----
   126   0   0   F    T  4.07D+00 0.00054863 0.00017537 0.00250379 0.00065667    0.0361304 ----
   127   0   0   F    F -9.80D-02 0.00054863 0.00017537 0.01018107 0.00267018    0.0361267 ----
   128   0   0   F    T  3.11D+00 0.00047398 0.00018719 0.00309266 0.00077382    0.0361267 ----
   129   0   0   F    F  3.11D-01 0.00047398 0.00018719 0.00962602 0.00240854    0.0361222 ----
   130   0   0   F    T  3.66D+00 0.00053229 0.00019422 0.00354487 0.00086193    0.0361220 ----
   131   0   0   F    F -3.86D-01 0.00053229 0.00019422 0.01298334 0.00315687    0.0361203 ----
   132   0   0   F    T  2.65D+00 0.00057118 0.00017615 0.00304894 0.00073140    0.0361192 ----
   133   0   0   F    F -2.39D-01 0.00057118 0.00017615 0.00807928 0.00193812    0.0361173 ----
   134   0   0   F    T  2.27D+00 0.00050091 0.00016350 0.00269439 0.00064862    0.0361171 ----
   135   0   0   F    F  2.72D-01 0.00050091 0.00016350 0.00612290 0.00147396    0.0361147 ----
   136   0   0   F    T  3.09D+00 0.00050739 0.00015592 0.00245491 0.00060749    0.0361146 ----
   137   0   0   F    F -2.54D-01 0.00050739 0.00015592 0.00757394 0.00187425    0.0361129 ----
   138   0   0   F    T  3.45D+00 0.00035816 0.00012428 0.00149708 0.00040566    0.0361127 ----
   139   0   0   F    F -4.33D-02 0.00035816 0.00012428 0.00516181 0.00139868    0.0361110 ----
   140   0   0   F    T  2.85D+00 0.00036469 0.00013103 0.00157409 0.00046988    0.0361110 ----
   141   0   0   F    F  3.28D-01 0.00036469 0.00013103 0.00448258 0.00133810    0.0361090 ----
   142   0   0   F    T  4.64D+00 0.00036538 0.00011539 0.00111026 0.00038283    0.0361089 ----
   143   0   0   F    F -3.60D-01 0.00036538 0.00011539 0.00515363 0.00177701    0.0361080 ----
   144   0   0   F    T  1.76D+00 0.00045283 0.00014783 0.00178517 0.00064543    0.0361076 ----
   145   0   0   F    F  2.75D-01 0.00045283 0.00014783 0.00314576 0.00113735    0.0361060 ----
   146   0   0   F    T  2.66D+00 0.00039322 0.00013383 0.00150601 0.00054544    0.0361060 ----
   147   0   0   F    F -1.37D-01 0.00039322 0.00013383 0.00400268 0.00144966    0.0361046 ----
   148   0   0   F    T  4.01D+00 0.00027643 0.00009861 0.00091012 0.00031212    0.0361046 ----
   149   0   0   F    F  4.66D-02 0.00027643 0.00009861 0.00364947 0.00125156    0.0361033 ----
   150   0   0   F    T  2.23D+00 0.00041936 0.00013363 0.00183440 0.00058826    0.0361033 ----
   151   0   0   F    F  8.25D-01 0.00041936 0.00013363 0.00408467 0.00130989    0.0361014 ----
   152   0   0   F    T  3.22D+00 0.00036414 0.00014867 0.00232289 0.00074147    0.0361009 ----
   153   0   0   F    F -1.91D-01 0.00036414 0.00014867 0.00748765 0.00239008    0.0360991 ----
   154   0   0   F    T  2.48D+00 0.00045991 0.00015106 0.00246285 0.00077941    0.0360990 ----
   155   0   0   F    F  2.82D-01 0.00045991 0.00015106 0.00611198 0.00193424    0.0360967 ----
   156   0   0   F    T  2.08D+00 0.00070822 0.00018555 0.00380265 0.00119134    0.0360966 ----
   157   0   0   F    F -6.17D-02 0.00070822 0.00018555 0.00791608 0.00248004    0.0360944 ----
   158   0   0   F    T  2.82D+00 0.00039708 0.00015302 0.00263994 0.00082628    0.0360943 ----
   159   0   0   F    F  2.99D-01 0.00039708 0.00015302 0.00743447 0.00232691    0.0360917 ----
   160   0   0   F    T  2.43D+00 0.00049956 0.00018629 0.00395306 0.00124173    0.0360915 ----
   161   0   0   F    F  8.58D-01 0.00049956 0.00018629 0.00962148 0.00302230    0.0360874 ----
   162   0   0   F    T  4.21D+00 0.00056321 0.00019175 0.00425878 0.00133554    0.0360863 ----
   163   0   0   F    F -1.71D-01 0.00056321 0.00019175 0.01790853 0.00561605    0.0360823 ----
   164   0   0   F    T  3.01D+00 0.00062196 0.00020590 0.00488910 0.00154672    0.0360821 ----
   165   0   0   F    F  1.49D-01 0.00062196 0.00020590 0.01472425 0.00465820    0.0360773 ----
   166   0   0   F    T  1.98D+00 0.00126076 0.00027137 0.00856146 0.00269693    0.0360773 ----
   167   0   0   F    F  7.22D-02 0.00126076 0.00027137 0.01698915 0.00535172    0.0360721 ----
   168   0   0   F    T  2.43D+00 0.00089457 0.00025264 0.00758985 0.00236173    0.0360721 ----
   169   0   0   F    F  1.71D-01 0.00089457 0.00025264 0.01843964 0.00573786    0.0360662 ----
   170   0   0   F    T  2.97D+00 0.00065899 0.00024523 0.00739438 0.00225892    0.0360661 ----
   171   0   0   F    F  6.23D-01 0.00065899 0.00024523 0.02198604 0.00671655    0.0360580 ----
   172   0   0   F    T  2.44D+00 0.00084909 0.00034244 0.01488432 0.00445768    0.0360566 ----
   173   0   0   F    F  4.06D-01 0.00084909 0.00034244 0.03639087 0.01089863    0.0360444 ----
   174   0   0   F    T  3.01D+00 0.00103597 0.00036308 0.01713898 0.00508651    0.0360433 ----
   175   0   0   F    F  3.76D-01 0.00103597 0.00036308 0.05164928 0.01532849    0.0360263 ----
   176   0   0   F    F -8.35D-03 0.00103597 0.00036308 0.01942915 0.00576619    0.0360249 ----
   177   0   0   F    T  1.96D+00 0.00155307 0.00053577 0.03667856 0.01076008    0.0360249 ----
   178   0   0   F    F  1.31D-01 0.00155307 0.00053577 0.07174261 0.02104652    0.0360030 ----
   179   0   0   F    T  3.60D+00 0.00151160 0.00049863 0.02319098 0.00661301    0.0360027 ----
   180   0   0   F    F -3.17D-01 0.00151160 0.00049863 0.08347067 0.02380203    0.0359868 ----
   181   0   0   F    T  2.05D+00 0.00137353 0.00057028 0.02845846 0.00793334    0.0359823 ----
   182   0   0   F    F  5.98D-01 0.00137353 0.00057028 0.05834057 0.01626356    0.0359517 ----
   183   0   0   F    F -1.23D-02 0.00137353 0.00057028 0.03488062 0.00972365    0.0359466 ----
   184   0   0   F    T  3.38D+00 0.00169704 0.00058881 0.02818259 0.00764733    0.0359466 ----
   185   0   0   F    F -1.94D-01 0.00169704 0.00058881 0.09532919 0.02586752    0.0359171 ----
   186   0   0   F    T  2.59D+00 0.00176421 0.00061938 0.02998736 0.00805583    0.0359152 ----
   187   0   0   F    F  4.10D-02 0.00176421 0.00061938 0.07758379 0.02084219    0.0358814 ----
   188   0   0   F    T  2.14D+00 0.00200036 0.00069270 0.03771630 0.01015185    0.0358814 ----
   189   0   0   F    F  1.43D-01 0.00200036 0.00069270 0.08060479 0.02169586    0.0358438 ----
   190   0   0   F    T  2.84D+00 0.00203817 0.00061645 0.03227289 0.00872455    0.0358432 ----
   191   0   0   F    F  2.35D-01 0.00203817 0.00061645 0.09174923 0.02480319    0.0358005 ----
   192   0   0   F    F -1.69D-02 0.00203817 0.00061645 0.02155608 0.00582740    0.0357989 ----
   193   0   0   F    T  4.04D+00 0.00171762 0.00056667 0.02755998 0.00756565    0.0357989 ----
   194   0   0   F    F -4.69D-01 0.00171762 0.00056667 0.11122082 0.03053186    0.0357946 ----
   195   0   0   F    T  2.05D+00 0.00207100 0.00059094 0.02817758 0.00790035    0.0357761 ----
   196   0   0   F    F  3.07D-01 0.00207100 0.00059094 0.05777370 0.01619843    0.0357467 ----
   197   0   0   F    T  3.53D+00 0.00138811 0.00053053 0.02093833 0.00599337    0.0357449 ----
   198   0   0   F    F -1.43D-01 0.00138811 0.00053053 0.07396247 0.02117097    0.0357175 ----
   199   0   0   F    T  2.67D+00 0.00160900 0.00057154 0.02360307 0.00679279    0.0357168 ----
   200   0   0   F    F -6.31D-02 0.00160900 0.00057154 0.06303193 0.01814011    0.0356899 ----
   201   0   0   F    T  2.27D+00 0.00150733 0.00060012 0.02606239 0.00749451    0.0356898 ----
   202   0   0   F    F  2.26D-01 0.00150733 0.00060012 0.05910460 0.01699613    0.0356580 ----
   203   0   0   F    T  3.03D+00 0.00177551 0.00056836 0.02396760 0.00688033    0.0356569 ----
   204   0   0   F    F -2.04D-01 0.00177551 0.00056836 0.07258901 0.02083797    0.0356329 ----
   205   0   0   F    T  2.63D+00 0.00190468 0.00053994 0.02188823 0.00630738    0.0356313 ----
   206   0   0   F    F  8.11D-02 0.00190468 0.00053994 0.05758405 0.01659359    0.0356042 ----
   207   0   0   F    T  2.71D+00 0.00146437 0.00054419 0.02276757 0.00661783    0.0356040 ----
   208   0   0   F    F -7.06D-02 0.00146437 0.00054419 0.06171993 0.01794008    0.0355797 ----
   209   0   0   F    T  3.60D+00 0.00142565 0.00044308 0.01585492 0.00462815    0.0355796 ----
   210   0   0   T    F  4.99D-01 0.00142565 0.00044308 0.05711649 0.01667266    0.0355798 ----
   211   0   0   F    T  2.74D+00 0.00106100 0.00035620 0.01036968 0.00304033    0.0355679 ----
   212   0   0   F    F  7.64D-02 0.00106100 0.00035620 0.02837106 0.00831822    0.0355557 ----
   213   0   0   F    T  3.25D+00 0.00097436 0.00033802 0.00912282 0.00275849    0.0355556 ----
   214   0   0   F    F -6.91D-02 0.00097436 0.00033802 0.02961160 0.00895375    0.0355443 ----
   215   0   0   F    T  3.22D+00 0.00129152 0.00032424 0.00813191 0.00258802    0.0355443 ----
   216   0   0   F    F -4.49D-01 0.00129152 0.00032424 0.02619031 0.00833518    0.0355422 ----
   217   0   0   F    T  2.41D+00 0.00085596 0.00027513 0.00543683 0.00190888    0.0355381 ----
   218   0   0   F    F  3.98D-01 0.00085596 0.00027513 0.01308058 0.00459262    0.0355304 ----
   219   0   0   F    T  3.30D+00 0.00066877 0.00027444 0.00555882 0.00194253    0.0355297 ----
   220   0   0   F    F -1.25D-01 0.00066877 0.00027444 0.01837128 0.00641984    0.0355227 ----
   221   0   0   F    T  2.75D+00 0.00075809 0.00027883 0.00614437 0.00204134    0.0355226 ----
   222   0   0   F    F -1.09D-01 0.00075809 0.00027883 0.01690305 0.00561570    0.0355164 ----
   223   0   0   F    T  2.12D+00 0.00096935 0.00029804 0.00740207 0.00235811    0.0355163 ----
   224   0   0   F    F  3.99D-01 0.00096935 0.00029804 0.01571204 0.00500544    0.0355083 ----
   225   0   0   F    T  2.92D+00 0.00094135 0.00029976 0.00772292 0.00239858    0.0355076 ----
   226   0   0   F    F -2.14D-01 0.00094135 0.00029976 0.02255417 0.00700487    0.0355012 ----
   227   0   0   F    T  3.67D+00 0.00070125 0.00023721 0.00501186 0.00150200    0.0355007 ----
   228   0   0   F    F -8.18D-02 0.00070125 0.00023721 0.01837191 0.00550587    0.0354945 ----
   229   0   0   F    T  1.82D+00 0.00118289 0.00032180 0.00932889 0.00278037    0.0354945 ----
   230   0   0   F    F  4.50D-01 0.00118289 0.00032180 0.01696202 0.00505535    0.0354863 ----
   231   0   0   F    T  3.54D+00 0.00063092 0.00027694 0.00687109 0.00207208    0.0354855 ----
   232   0   0   F    F -3.10D-01 0.00063092 0.00027694 0.02430989 0.00733101    0.0354805 ----
   233   0   0   F    T  2.08D+00 0.00078063 0.00029880 0.00794295 0.00242941    0.0354793 ----
   234   0   0   F    F  5.79D-01 0.00078063 0.00029880 0.01654166 0.00505938    0.0354709 ----
   235   0   0   F    T  3.62D+00 0.00091962 0.00028186 0.00709318 0.00220615    0.0354696 ----
   236   0   0   F    F -3.83D-01 0.00091962 0.00028186 0.02568760 0.00798947    0.0354660 ----
   237   0   0   F    T  2.36D+00 0.00067767 0.00027114 0.00667882 0.00208481    0.0354638 ----
   238   0   0   F    F  5.12D-01 0.00067767 0.00027114 0.01579147 0.00492935    0.0354561 ----
   239   0   0   F    T  1.99D+00 0.00136458 0.00036186 0.01174777 0.00373850    0.0354551 ----
   240   0   0   F    F  1.92D-01 0.00136458 0.00036186 0.02342651 0.00745504    0.0354451 ----
   241   0   0   F    T  3.44D+00 0.00058611 0.00030060 0.00808097 0.00258002    0.0354448 ----
   242   0   0   F    F -5.76D-02 0.00058611 0.00030060 0.02782745 0.00888448    0.0354352 ----
   243   0   0   F    T  2.95D+00 0.00071344 0.00031555 0.00862036 0.00283433    0.0354351 ----
   244   0   0   F    F -5.39D-02 0.00071344 0.00031555 0.02546618 0.00837314    0.0354260 ----
   245   0   0   F    T  1.90D+00 0.00107098 0.00038351 0.01269949 0.00417814    0.0354260 ----
   246   0   0   F    F  4.42D-01 0.00107098 0.00038351 0.02407897 0.00792199    0.0354138 ----
   247   0   0   F    T  2.99D+00 0.00114958 0.00036909 0.01180903 0.00381761    0.0354126 ----
   248   0   0   F    F -1.36D-01 0.00114958 0.00036909 0.03533006 0.01142145    0.0354013 ----
   249   0   0   F    T  2.74D+00 0.00106665 0.00035693 0.01117234 0.00359459    0.0354011 ----
   250   0   0   F    F  5.04D-01 0.00106665 0.00035693 0.03065526 0.00986304    0.0353856 ----
   251   0   0   F    T  2.46D+00 0.00113568 0.00045723 0.01875339 0.00602352    0.0353837 ----
   252   0   0   F    F -2.06D-01 0.00113568 0.00045723 0.04619878 0.01483888    0.0353712 ----
   253   0   0   F    T  2.95D+00 0.00090568 0.00036996 0.01298047 0.00398589    0.0353703 ----
   254   0   0   F    F -2.32D-02 0.00090568 0.00036996 0.03835171 0.01177660    0.0353571 ----
   255   0   0   F    T  2.09D+00 0.00105504 0.00043690 0.01835477 0.00550464    0.0353571 ----
   256   0   0   F    F  1.02D+00 0.00105504 0.00043690 0.03835822 0.01150372    0.0353371 ----
   257   0   0   F    F -2.33D-02 0.00105504 0.00043690 0.03911225 0.01172986    0.0353304 ----
   258   0   0   F    T  4.51D+00 0.00142391 0.00044869 0.01728032 0.00509148    0.0353304 ----
   259   0   0   F    F -4.73D-01 0.00142391 0.00044869 0.07792525 0.02295994    0.0353277 ----
   260   0   0   F    T  1.88D+00 0.00150605 0.00051297 0.02210130 0.00643463    0.0353144 ----
   261   0   0   F    F  6.35D-01 0.00150605 0.00051297 0.04158080 0.01210595    0.0352921 ----
   262   0   0   F    F -1.23D-02 0.00150605 0.00051297 0.02641707 0.00769114    0.0352883 ----
   263   0   0   F    T  2.92D+00 0.00135052 0.00052524 0.02315488 0.00674562    0.0352883 ----
   264   0   0   F    F -2.97D-01 0.00135052 0.00052524 0.06763029 0.01970247    0.0352729 ----
   265   0   0   F    T  3.54D+00 0.00131105 0.00038842 0.01397436 0.00391290    0.0352696 ----
   266   0   0   F    F -2.01D-01 0.00131105 0.00038842 0.04949785 0.01385968    0.0352565 ----
   267   0   0   F    T  2.40D+00 0.00165431 0.00041330 0.01679028 0.00460638    0.0352556 ----
   268   0   0   F    F  3.94D-02 0.00165431 0.00041330 0.04036982 0.01107539    0.0352416 ----
   269   0   0   F    T  2.98D+00 0.00117032 0.00036456 0.01405018 0.00385678    0.0352416 ----
   270   0   0   F    F -1.42D-01 0.00117032 0.00036456 0.04193760 0.01151188    0.0352308 ----
   271   0   0   F    T  2.36D+00 0.00103014 0.00037278 0.01497297 0.00418499    0.0352305 ----
   272   0   0   F    F  9.38D-02 0.00103014 0.00037278 0.03532837 0.00987439    0.0352187 ----
   273   0   0   F    T  2.73D+00 0.00097295 0.00035782 0.01416505 0.00395937    0.0352186 ----
   274   0   0   F    F  3.60D-01 0.00097295 0.00035782 0.03864065 0.01080070    0.0352038 ----
   275   0   0   F    T  3.70D+00 0.00100539 0.00036772 0.01452443 0.00397589    0.0352027 ----
   276   0   0   F    F -4.56D-01 0.00100539 0.00036772 0.05367173 0.01469198    0.0352001 ----
   277   0   0   F    T  2.25D+00 0.00112817 0.00035458 0.01315579 0.00354317    0.0351937 ----
   278   0   0   F    F  3.90D-01 0.00112817 0.00035458 0.02966167 0.00798860    0.0351817 ----
   279   0   0   F    T  2.29D+00 0.00118702 0.00041711 0.01805443 0.00485756    0.0351806 ----
   280   0   0   F    F  3.91D-01 0.00118702 0.00041711 0.04128459 0.01110766    0.0351639 ----
   281   0   0   F    F -9.22D-03 0.00118702 0.00041711 0.01613130 0.00434014    0.0351625 ----
   282   0   0   F    T  3.68D+00 0.00106283 0.00038973 0.01531838 0.00418762    0.0351625 ----
   283   0   0   F    F -3.39D-01 0.00106283 0.00038973 0.05636189 0.01540778    0.0351534 ----
   284   0   0   F    T  1.85D+00 0.00151862 0.00044674 0.02006726 0.00551631    0.0351502 ----
   285   0   0   F    F  1.21D+00 0.00151862 0.00044674 0.03707622 0.01019192    0.0351315 ----
   286   0   0   F    F -3.18D-02 0.00151862 0.00044674 0.04472115 0.01229344    0.0351238 ----
   287   0   0   F    T  2.56D+00 0.00157416 0.00055868 0.03158399 0.00863409    0.0351238 ----
   288   0   0   F    F -1.53D-01 0.00157416 0.00055868 0.08082216 0.02209427    0.0351020 ----
   289   0   0   F    F -9.35D-03 0.00157416 0.00055868 0.01239132 0.00338740    0.0351012 ----
   290   0   0   F    T  3.46D+00 0.00160072 0.00045588 0.01999125 0.00541760    0.0351012 ----
   291   0   0   F    F -2.54D-01 0.00160072 0.00045588 0.06914621 0.01873854    0.0350855 ----
   292   0   0   F    T  2.92D+00 0.00100886 0.00043687 0.01758094 0.00478256    0.0350834 ----
   293   0   0   F    F -1.23D-01 0.00100886 0.00043687 0.05137129 0.01397459    0.0350677 ----
   294   0   0   F    T  2.73D+00 0.00136365 0.00042088 0.01618589 0.00448563    0.0350673 ----
   295   0   0   F    F -1.06D-01 0.00136365 0.00042088 0.04422235 0.01225544    0.0350533 ----
   296   0   0   F    T  2.28D+00 0.00138072 0.00043073 0.01729928 0.00481724    0.0350531 ----
   297   0   0   F    F  2.08D-01 0.00138072 0.00043073 0.03936293 0.01096118    0.0350369 ----
   298   0   0   F    T  3.53D+00 0.00148849 0.00037178 0.01365813 0.00374593    0.0350364 ----
   299   0   0   F    F -1.73D-01 0.00148849 0.00037178 0.04826628 0.01323769    0.0350237 ----
   300   0   0   F    T  2.69D+00 0.00123374 0.00037989 0.01489315 0.00406595    0.0350231 ----
   301   0   0   F    F -1.51D-01 0.00123374 0.00037989 0.04012203 0.01095365    0.0350127 ----
   302   0   0   F    T  2.46D+00 0.00113399 0.00035633 0.01372293 0.00377381    0.0350124 ----
   303   0   0   F    F  9.31D-03 0.00113399 0.00035633 0.03380673 0.00929687    0.0350020 ----
   304   0   0   F    T  2.99D+00 0.00073929 0.00031618 0.01116517 0.00314349    0.0350020 ----
   305   0   0   F    F -4.27D-02 0.00073929 0.00031618 0.03332850 0.00938344    0.0349926 ----
   306   0   0   F    T  3.42D+00 0.00090395 0.00028612 0.00887052 0.00262674    0.0349926 ----
   307   0   0   F    F -2.12D-01 0.00090395 0.00028612 0.03033501 0.00898283    0.0349858 ----
   308   0   0   F    T  2.59D+00 0.00101265 0.00029366 0.00872717 0.00272970    0.0349852 ----
   309   0   0   F    F -2.00D-01 0.00101265 0.00029366 0.02262421 0.00707644    0.0349797 ----
   310   0   0   F    T  2.56D+00 0.00085915 0.00026706 0.00727465 0.00221059    0.0349793 ----
   311   0   0   F    F  3.02D-01 0.00085915 0.00026706 0.01862168 0.00565868    0.0349718 ----
   312   0   0   F    T  3.27D+00 0.00088251 0.00027306 0.00750039 0.00225189    0.0349714 ----
   313   0   0   F    F -2.93D-01 0.00088251 0.00027306 0.02453894 0.00736748    0.0349667 ----
   314   0   0   F    T  2.97D+00 0.00060761 0.00024136 0.00568252 0.00175603    0.0349657 ----
   315   0   0   F    F -1.39D-01 0.00060761 0.00024136 0.01685029 0.00520713    0.0349609 ----
   316   0   0   F    T  2.48D+00 0.00070406 0.00024278 0.00542508 0.00180830    0.0349608 ----
   317   0   0   F    F -1.38D-01 0.00070406 0.00024278 0.01344905 0.00448286    0.0349568 ----
   318   0   0   F    T  3.49D+00 0.00068283 0.00018736 0.00344322 0.00110814    0.0349567 ----
   319   0   0   F    F -1.10D-01 0.00068283 0.00018736 0.01201207 0.00386588    0.0349531 ----
   320   0   0   F    T  1.98D+00 0.00080739 0.00023337 0.00508471 0.00173754    0.0349531 ----
   321   0   0   F    F  7.30D-01 0.00080739 0.00023337 0.01006299 0.00343872    0.0349480 ----
   322   0   0   F    T  3.48D+00 0.00080379 0.00023140 0.00518162 0.00171082    0.0349469 ----
   323   0   0   F    F -4.44D-01 0.00080379 0.00023140 0.01801852 0.00594920    0.0349457 ----
   324   0   0   F    T  3.04D+00 0.00055132 0.00018417 0.00286491 0.00108641    0.0349435 ----
   325   0   0   F    F -3.05D-01 0.00055132 0.00018417 0.00871926 0.00330647    0.0349416 ----
   326   0   0   F    T  2.88D+00 0.00041897 0.00015655 0.00228367 0.00079854    0.0349411 ----
   327   0   0   F    F  1.63D-01 0.00041897 0.00015655 0.00656997 0.00229736    0.0349385 ----
   328   0   0   F    T  2.35D+00 0.00044536 0.00018569 0.00298979 0.00113841    0.0349384 ----
   329   0   0   F    F  2.63D-01 0.00044536 0.00018569 0.00701444 0.00267086    0.0349352 ----
   330   0   0   F    T  2.95D+00 0.00054341 0.00018484 0.00328877 0.00114359    0.0349350 ----
   331   0   0   F    F -1.74D-01 0.00054341 0.00018484 0.00970470 0.00337459    0.0349324 ----
   332   0   0   F    T  1.88D+00 0.00073832 0.00020924 0.00393661 0.00148113    0.0349323 ----
   333   0   0   F    F  9.95D-01 0.00073832 0.00020924 0.00740824 0.00278731    0.0349282 ----
   334   0   0   F    T  2.88D+00 0.00056220 0.00023791 0.00543442 0.00192858    0.0349269 ----
   335   0   0   F    F -2.16D-01 0.00056220 0.00023791 0.01566533 0.00555937    0.0349230 ----
   336   0   0   F    T  3.43D+00 0.00052928 0.00019186 0.00332843 0.00127234    0.0349227 ----
   337   0   0   F    F  2.23D-01 0.00052928 0.00019186 0.01140697 0.00436047    0.0349177 ----
   338   0   0   F    T  1.62D+00 0.00111271 0.00030836 0.00919895 0.00329995    0.0349176 ----
   339   0   0   F    F  2.38D-01 0.00111271 0.00030836 0.01486872 0.00533388    0.0349115 ----
   340   0   0   F    T  5.88D+00 0.00051926 0.00018224 0.00270276 0.00112268    0.0349113 ----
   341   0   0   F    F -4.25D-01 0.00051926 0.00018224 0.01589826 0.00660385    0.0349096 ----
   342   0   0   F    T  2.44D+00 0.00083880 0.00021376 0.00360469 0.00155759    0.0349075 ----
   343   0   0   F    F  1.33D-01 0.00083880 0.00021376 0.00879508 0.00380035    0.0349034 ----
   344   0   0   F    T  2.23D+00 0.00077630 0.00023676 0.00457107 0.00193421    0.0349034 ----
   345   0   0   F    F  2.48D-02 0.00077630 0.00023676 0.01017936 0.00430731    0.0348992 ----
   346   0   0   F    T  2.84D+00 0.00066556 0.00021042 0.00374501 0.00155206    0.0348992 ----
   347   0   0   F    F  1.54D-01 0.00066556 0.00021042 0.01065116 0.00441420    0.0348944 ----
   348   0   0   F    T  2.72D+00 0.00091645 0.00022988 0.00465817 0.00186956    0.0348944 ----
   349   0   0   F    F  1.68D-01 0.00091645 0.00022988 0.01268698 0.00509194    0.0348889 ----
   350   0   0   F    T  2.72D+00 0.00093315 0.00024775 0.00561643 0.00218889    0.0348888 ----
   351   0   0   F    F -2.92D-01 0.00093315 0.00024775 0.01525616 0.00594579    0.0348856 ----
   352   0   0   F    T  2.89D+00 0.00058069 0.00020144 0.00392870 0.00145578    0.0348849 ----
   353   0   0   F    F  2.63D-02 0.00058069 0.00020144 0.01136794 0.00421239    0.0348810 ----
   354   0   0   F    T  2.40D+00 0.00055543 0.00022354 0.00510033 0.00179927    0.0348809 ----
   355   0   0   F    F  1.31D-01 0.00055543 0.00022354 0.01225437 0.00432303    0.0348765 ----
   356   0   0   F    T  3.64D+00 0.00079435 0.00019226 0.00396157 0.00134261    0.0348765 ----
   357   0   0   F    F -3.79D-01 0.00079435 0.00019226 0.01443058 0.00489064    0.0348747 ----
   358   0   0   F    T  2.54D+00 0.00058323 0.00018019 0.00356177 0.00119450    0.0348737 ----
   359   0   0   F    F  1.48D-01 0.00058323 0.00018019 0.00905952 0.00303827    0.0348706 ----
   360   0   0   F    T  2.33D+00 0.00057371 0.00020074 0.00439402 0.00149841    0.0348706 ----
   361   0   0   F    F  6.85D-02 0.00057371 0.00020074 0.01022472 0.00348675    0.0348673 ----
   362   0   0   F    T  2.81D+00 0.00052620 0.00018717 0.00379945 0.00132445    0.0348673 ----
   363   0   0   F    F -3.84D-02 0.00052620 0.00018717 0.01068794 0.00372572    0.0348642 ----
   364   0   0   F    T  3.01D+00 0.00056493 0.00017591 0.00341870 0.00118930    0.0348641 ----
   365   0   0   F    F  1.64D-01 0.00056493 0.00017591 0.01029866 0.00358271    0.0348606 ----
   366   0   0   F    T  2.32D+00 0.00064356 0.00021571 0.00522487 0.00179675    0.0348606 ----
   367   0   0   F    F -1.61D-01 0.00064356 0.00021571 0.01212519 0.00416967    0.0348577 ----
   368   0   0   F    T  3.09D+00 0.00065259 0.00017151 0.00333704 0.00113176    0.0348576 ----
   369   0   0   F    F -4.14D-02 0.00065259 0.00017151 0.01031059 0.00349684    0.0348547 ----
   370   0   0   F    T  2.28D+00 0.00056241 0.00019547 0.00436702 0.00147310    0.0348547 ----
   371   0   0   F    F  7.12D-01 0.00056241 0.00019547 0.00993769 0.00335221    0.0348506 ----
   372   0   0   F    T  3.75D+00 0.00055198 0.00019920 0.00458950 0.00153140    0.0348498 ----
   373   0   0   T    F  4.80D-01 0.00055198 0.00019920 0.01719968 0.00573911    0.0348502 ----
   374   0   0   F    T  2.20D+00 0.00055113 0.00017901 0.00384419 0.00125140    0.0348474 ----
   375   0   0   F    F  5.73D-01 0.00055113 0.00017901 0.00845448 0.00275220    0.0348443 ----
   376   0   0   F    T  2.92D+00 0.00049076 0.00019350 0.00463692 0.00148394    0.0348438 ----
   377   0   0   F    F -1.35D-01 0.00049076 0.00019350 0.01352539 0.00432849    0.0348407 ----
   378   0   0   F    T  2.71D+00 0.00042997 0.00018546 0.00426618 0.00138399    0.0348407 ----
   379   0   0   F    F  4.09D-01 0.00042997 0.00018546 0.01154018 0.00374375    0.0348367 ----
   380   0   0   F    T  2.13D+00 0.00077197 0.00024775 0.00748303 0.00248203    0.0348363 ----
   381   0   0   F    F  3.87D-02 0.00077197 0.00024775 0.01590531 0.00527560    0.0348319 ----
   382   0   0   F    T  2.89D+00 0.00061162 0.00021704 0.00552309 0.00189550    0.0348318 ----
   383   0   0   F    F -1.85D-02 0.00061162 0.00021704 0.01596615 0.00547951    0.0348274 ----
   384   0   0   F    T  2.70D+00 0.00060835 0.00022340 0.00595328 0.00199385    0.0348274 ----
   385   0   0   F    F  6.22D-02 0.00060835 0.00022340 0.01605791 0.00537806    0.0348227 ----
   386   0   0   F    T  2.92D+00 0.00063053 0.00022286 0.00599853 0.00195873    0.0348227 ----
   387   0   0   F    F  6.42D-02 0.00063053 0.00022286 0.01749417 0.00571247    0.0348176 ----
   388   0   0   F    T  2.03D+00 0.00078210 0.00027569 0.00924975 0.00299412    0.0348176 ----
   389   0   0   F    F  1.41D-01 0.00078210 0.00027569 0.01877994 0.00607903    0.0348119 ----
   390   0   0   F    T  3.03D+00 0.00061714 0.00023975 0.00715062 0.00229329    0.0348118 ----
   391   0   0   F    F  1.92D-01 0.00061714 0.00023975 0.02163681 0.00693917    0.0348052 ----
   392   0   0   F    T  2.23D+00 0.00082008 0.00030344 0.01201009 0.00371128    0.0348050 ----
   393   0   0   F    F  2.08D-01 0.00082008 0.00030344 0.02676321 0.00827020    0.0347971 ----
   394   0   0   F    T  3.32D+00 0.00064921 0.00027004 0.01013140 0.00300508    0.0347968 ----
   395   0   0   F    F -2.23D-01 0.00064921 0.00027004 0.03368419 0.00999110    0.0347911 ----
   396   0   0   F    T  2.04D+00 0.00103931 0.00030178 0.01306241 0.00379845    0.0347906 ----
   397   0   0   F    F  2.96D-01 0.00103931 0.00030178 0.02668153 0.00775878    0.0347831 ----
   398   0   0   F    T  3.18D+00 0.00076364 0.00027461 0.01090624 0.00316473    0.0347827 ----
   399   0   0   F    F -1.35D-01 0.00076364 0.00027461 0.03465375 0.01005568    0.0347760 ----
   400   0   0   F    T  3.13D+00 0.00061151 0.00026001 0.00964503 0.00277339    0.0347758 ----
   401   0   0   F    F -7.89D-02 0.00061151 0.00026001 0.03023603 0.00869424    0.0347694 ----
   402   0   0   F    T  2.35D+00 0.00088127 0.00028854 0.01176325 0.00340639    0.0347694 ----
   403   0   0   F    F  9.44D-02 0.00088127 0.00028854 0.02765583 0.00800854    0.0347624 ----
   404   0   0   F    T  2.09D+00 0.00098143 0.00031788 0.01437075 0.00419193    0.0347623 ----
   405   0   0   F    F  4.76D-01 0.00098143 0.00031788 0.03004738 0.00876478    0.0347532 ----
   406   0   0   F    T  3.90D+00 0.00108034 0.00027453 0.01114247 0.00331541    0.0347521 ----
   407   0   0   F    F -3.99D-01 0.00108034 0.00027453 0.04346763 0.01293365    0.0347489 ----
   408   0   0   F    T  2.54D+00 0.00095384 0.00025989 0.01013749 0.00306521    0.0347463 ----
   409   0   0   F    F  1.08D-01 0.00095384 0.00025989 0.02571340 0.00777479    0.0347401 ----
   410   0   0   F    T  2.56D+00 0.00087290 0.00027010 0.01105954 0.00336154    0.0347401 ----
   411   0   0   F    F -7.93D-02 0.00087290 0.00027010 0.02835141 0.00861739    0.0347344 ----
   412   0   0   F    T  2.94D+00 0.00065122 0.00024312 0.00893922 0.00269896    0.0347344 ----
   413   0   0   F    F -1.07D-01 0.00065122 0.00024312 0.02627752 0.00793380    0.0347293 ----
   414   0   0   F    T  2.52D+00 0.00077498 0.00024749 0.00913807 0.00281479    0.0347293 ----
   415   0   0   F    F  4.16D-01 0.00077498 0.00024749 0.02300586 0.00708647    0.0347227 ----
   416   0   0   F    T  2.73D+00 0.00074498 0.00028020 0.01176141 0.00367122    0.0347221 ----
   417   0   0   F    F -2.85D-01 0.00074498 0.00028020 0.03214139 0.01003267    0.0347178 ----
   418   0   0   F    T  3.89D+00 0.00077182 0.00019650 0.00578265 0.00184231    0.0347170 ----
   419   0   0   F    F -4.49D-01 0.00077182 0.00019650 0.02250845 0.00717102    0.0347161 ----
   420   0   0   F    T  2.02D+00 0.00066125 0.00020115 0.00594710 0.00195531    0.0347143 ----
   421   0   0   F    F  1.22D+00 0.00066125 0.00020115 0.01202075 0.00395223    0.0347101 ----
   422   0   0   F    T  3.47D+00 0.00067873 0.00022541 0.00716970 0.00253121    0.0347083 ----
   423   0   0   F    F -4.11D-01 0.00067873 0.00022541 0.02488889 0.00878685    0.0347066 ----
   424   0   0   F    T  3.18D+00 0.00043522 0.00017877 0.00426852 0.00162663    0.0347049 ----
   425   0   0   F    F -9.87D-02 0.00043522 0.00017877 0.01357732 0.00517400    0.0347019 ----
   426   0   0   F    T  1.77D+00 0.00080020 0.00022735 0.00668397 0.00263469    0.0347019 ----
   427   0   0   F    F  4.59D-01 0.00080020 0.00022735 0.01183020 0.00466323    0.0346979 ----
   428   0   0   F    T  4.62D+00 0.00057045 0.00017285 0.00356730 0.00147226    0.0346975 ----
   429   0   0   F    F -1.67D-01 0.00057045 0.00017285 0.01648127 0.00680197    0.0346938 ----
   430   0   0   F    T  2.42D+00 0.00072377 0.00021906 0.00547383 0.00233884    0.0346937 ----
   431   0   0   F    F  1.21D-01 0.00072377 0.00021906 0.01326080 0.00566602    0.0346894 ----
   432   0   0   F    T  2.01D+00 0.00077046 0.00025563 0.00731473 0.00316289    0.0346893 ----
   433   0   0   F    F  2.15D-01 0.00077046 0.00025563 0.01469079 0.00635229    0.0346843 ----
   434   0   0   F    T  3.71D+00 0.00059369 0.00020644 0.00471063 0.00207983    0.0346841 ----
   435   0   0   F    F -3.83D-01 0.00059369 0.00020644 0.01747476 0.00771542    0.0346821 ----
   436   0   0   F    T  3.37D+00 0.00046706 0.00016786 0.00327706 0.00141463    0.0346809 ----
   437   0   0   F    F  1.29D-01 0.00046706 0.00016786 0.01102842 0.00476070    0.0346774 ----
   438   0   0   F    T  1.83D+00 0.00082464 0.00024008 0.00683121 0.00293249    0.0346774 ----
   439   0   0   F    F  2.60D-01 0.00082464 0.00024008 0.01251971 0.00537445    0.0346732 ----
   440   0   0   F    T  3.96D+00 0.00045173 0.00017948 0.00411343 0.00170904    0.0346730 ----
   441   0   0   F    F -4.33D-01 0.00045173 0.00017948 0.01630416 0.00677402    0.0346720 ----
   442   0   0   F    T  2.27D+00 0.00050769 0.00017815 0.00403197 0.00169153    0.0346706 ----
   443   0   0   F    F  4.39D-01 0.00050769 0.00017815 0.00916155 0.00384355    0.0346675 ----
   444   0   0   F    T  3.13D+00 0.00058115 0.00018307 0.00423363 0.00176446    0.0346672 ----
   445   0   0   F    F -1.78D-01 0.00058115 0.00018307 0.01327032 0.00553069    0.0346644 ----
   446   0   0   F    T  2.95D+00 0.00052453 0.00017253 0.00368265 0.00154144    0.0346643 ----
   447   0   0   F    F  2.27D-02 0.00052453 0.00017253 0.01086074 0.00454597    0.0346613 ----
   448   0   0   F    T  1.99D+00 0.00073631 0.00021212 0.00571319 0.00233264    0.0346613 ----
   449   0   0   F    F  5.39D-02 0.00073631 0.00021212 0.01138663 0.00464905    0.0346582 ----
   450   0   0   F    T  4.19D+00 0.00050069 0.00014789 0.00296142 0.00116878    0.0346582 ----
   451   0   0   F    F -3.29D-01 0.00050069 0.00014789 0.01241450 0.00489961    0.0346567 ----
   452   0   0   F    T  2.55D+00 0.00051882 0.00015418 0.00346910 0.00128742    0.0346562 ----
   453   0   0   F    F  2.77D-01 0.00051882 0.00015418 0.00885576 0.00328647    0.0346538 ----
   454   0   0   F    T  2.83D+00 0.00045706 0.00016483 0.00414582 0.00148258    0.0346536 ----
   455   0   0   F    F -2.43D-01 0.00045706 0.00016483 0.01173325 0.00419591    0.0346519 ----
   456   0   0   F    T  2.19D+00 0.00077716 0.00016266 0.00416289 0.00145278    0.0346517 ----
   457   0   0   F    F  2.90D-01 0.00077716 0.00016266 0.00910674 0.00317812    0.0346494 ----
   458   0   0   F    T  3.71D+00 0.00037075 0.00014170 0.00321095 0.00110609    0.0346493 ----
   459   0   0   F    F -2.58D-01 0.00037075 0.00014170 0.01190309 0.00410031    0.0346477 ----
   460   0   0   F    T  3.30D+00 0.00035670 0.00012905 0.00269421 0.00092028    0.0346474 ----
   461   0   0   F    F -2.77D-01 0.00035670 0.00012905 0.00890373 0.00304132    0.0346463 ----
   462   0   0   F    T  2.18D+00 0.00042092 0.00013471 0.00299110 0.00100968    0.0346461 ----
   463   0   0   F    F  2.44D-01 0.00042092 0.00013471 0.00651622 0.00219964    0.0346446 ----
   464   0   0   F    T  2.56D+00 0.00041183 0.00013819 0.00323615 0.00106986    0.0346445 ----
   465   0   0   F    F  6.24D-02 0.00041183 0.00013819 0.00827606 0.00273604    0.0346428 ----
   466   0   0   F    T  3.51D+00 0.00035140 0.00012078 0.00260610 0.00082839    0.0346428 ----
   467   0   0   F    F -3.52D-01 0.00035140 0.00012078 0.00914499 0.00290688    0.0346420 ----
   468   0   0   F    T  3.12D+00 0.00028855 0.00010213 0.00201239 0.00060399    0.0346417 ----
   469   0   0   F    F -1.47D-01 0.00028855 0.00010213 0.00627720 0.00188400    0.0346408 ----
   470   0   0   F    T  2.33D+00 0.00035435 0.00010841 0.00239339 0.00069041    0.0346408 ----
   471   0   0   F    F  1.08D-01 0.00035435 0.00010841 0.00557050 0.00160689    0.0346398 ----
   472   0   0   F    T  2.39D+00 0.00031727 0.00011193 0.00263230 0.00074478    0.0346398 ----
   473   0   0   F    F  9.92D-02 0.00031727 0.00011193 0.00629408 0.00178085    0.0346387 ----
   474   0   0   F    T  3.62D+00 0.00030742 0.00009460 0.00191421 0.00054060    0.0346387 ----
   475   0   0   F    F -1.18D-01 0.00030742 0.00009460 0.00693164 0.00195757    0.0346378 ----
   476   0   0   F    T  2.19D+00 0.00031666 0.00011369 0.00275236 0.00078799    0.0346377 ----
   477   0   0   F    F  1.76D-01 0.00031666 0.00011369 0.00603013 0.00172641    0.0346367 ----
   478   0   0   F    T  3.06D+00 0.00035046 0.00010404 0.00224403 0.00066402    0.0346366 ----
   479   0   0   F    F -3.10D-01 0.00035046 0.00010404 0.00686148 0.00203036    0.0346360 ----
   480   0   0   F    T  2.41D+00 0.00024948 0.00009680 0.00189447 0.00058227    0.0346359 ----
   481   0   0   F    F  3.82D-01 0.00024948 0.00009680 0.00455983 0.00140147    0.0346349 ----
   482   0   0   F    T  3.14D+00 0.00025282 0.00009883 0.00198803 0.00061739    0.0346349 ----
   483   0   0   F    F -1.84D-01 0.00025282 0.00009883 0.00623627 0.00193668    0.0346341 ----
   484   0   0   F    T  3.11D+00 0.00033627 0.00008870 0.00165278 0.00050773    0.0346340 ----
   485   0   0   F    F -2.78D-01 0.00033627 0.00008870 0.00514389 0.00158020    0.0346335 ----
   486   0   0   F    T  2.33D+00 0.00031764 0.00008643 0.00163353 0.00049043    0.0346335 ----
   487   0   0   F    F  1.36D-01 0.00031764 0.00008643 0.00380093 0.00114114    0.0346328 ----
   488   0   0   F    T  2.57D+00 0.00024942 0.00008701 0.00173523 0.00050455    0.0346328 ----
   489   0   0   F    F  3.43D-01 0.00024942 0.00008701 0.00445688 0.00129592    0.0346320 ----
   490   0   0   F    T  3.01D+00 0.00024476 0.00009272 0.00206234 0.00057828    0.0346319 ----
   491   0   0   F    F -2.31D-01 0.00024476 0.00009272 0.00620859 0.00174088    0.0346313 ----
   492   0   0   F    T  2.52D+00 0.00022978 0.00008834 0.00193527 0.00052999    0.0346313 ----
   493   0   0   F    F  3.30D-01 0.00022978 0.00008834 0.00488610 0.00133809    0.0346305 ----
   494   0   0   F    T  2.41D+00 0.00035763 0.00010395 0.00267777 0.00073924    0.0346304 ----
   495   0   0   F    F -2.71D-01 0.00035763 0.00010395 0.00644793 0.00178005    0.0346299 ----
   496   0   0   F    T  4.33D+00 0.00020579 0.00006544 0.00102931 0.00029954    0.0346298 -+-+
   497   0   0   F    F -2.69D-01 0.00020579 0.00006544 0.00445750 0.00129718    0.0346294 -+--
   498   0   0   F    T  2.14D+00 0.00024743 0.00007900 0.00146270 0.00044403    0.0346293 ----
   499   0   0   F    F  4.95D-01 0.00024743 0.00007900 0.00312462 0.00094854    0.0346288 ----
   500   0   0   F    T  3.78D+00 0.00023374 0.00007181 0.00113861 0.00037551    0.0346287 -+--
   501   0   0   T    F  4.96D-01 0.00023374 0.00007181 0.00429863 0.00141768    0.0346287 -+--
   502   0   0   F    T  1.85D+00 0.00015766 0.00007156 0.00113829 0.00037995    0.0346284 -+--
   503   0   0   F    F  1.50D+00 0.00015766 0.00007156 0.00210800 0.00070363    0.0346279 -+--
   504   0   0   F    T  3.49D+00 0.00026143 0.00008203 0.00155466 0.00050479    0.0346276 ----
   505   0   0   F    F -2.88D-01 0.00026143 0.00008203 0.00542372 0.00176106    0.0346271 ----
   506   0   0   F    T  2.75D+00 0.00020472 0.00007752 0.00143179 0.00045560    0.0346270 ----
   507   0   0   F    F  9.16D-02 0.00020472 0.00007752 0.00394094 0.00125402    0.0346264 ----
   508   0   0   F    T  1.94D+00 0.00032337 0.00009605 0.00222997 0.00070511    0.0346264 ----
   509   0   0   F    F  3.18D-01 0.00032337 0.00009605 0.00432917 0.00136888    0.0346257 ----
   510   0   0   F    T  3.04D+00 0.00019968 0.00008752 0.00188387 0.00059287    0.0346257 ----
   511   0   0   F    F -1.55D-01 0.00019968 0.00008752 0.00573271 0.00180414    0.0346250 ----
   512   0   0   F    T  3.46D+00 0.00020328 0.00007464 0.00136982 0.00043998    0.0346250 -+--
   513   0   0   F    F -4.51D-02 0.00020328 0.00007464 0.00474364 0.00152362    0.0346244 -+--
   514   0   0   F    T  1.79D+00 0.00036415 0.00010094 0.00254097 0.00081206    0.0346244 ----
   515   0   0   F    F  8.64D-01 0.00036415 0.00010094 0.00455253 0.00145492    0.0346235 ----
   516   0   0   F    T  2.50D+00 0.00034226 0.00011607 0.00343360 0.00108305    0.0346233 ----
   517   0   0   F    F -9.82D-02 0.00034226 0.00011607 0.00859754 0.00271190    0.0346223 ----
   518   0   0   F    T  3.14D+00 0.00033208 0.00009787 0.00247620 0.00077767    0.0346223 ----
   519   0   0   F    F -1.52D-01 0.00033208 0.00009787 0.00778694 0.00244555    0.0346215 ----
   520   0   0   F    T  2.60D+00 0.00035383 0.00009872 0.00249300 0.00079696    0.0346214 ----
   521   0   0   F    F  9.34D-02 0.00035383 0.00009872 0.00648988 0.00207468    0.0346205 ----
   522   0   0   F    T  3.20D+00 0.00031652 0.00009292 0.00218501 0.00070906    0.0346205 ----
   523   0   0   F    F -2.16D-01 0.00031652 0.00009292 0.00699066 0.00226855    0.0346199 ----
   524   0   0   F    T  2.29D+00 0.00033074 0.00009709 0.00242181 0.00077536    0.0346198 ----
   525   0   0   F    F  1.04D-01 0.00033074 0.00009709 0.00555517 0.00177853    0.0346190 ----
   526   0   0   F    T  2.17D+00 0.00029988 0.00010480 0.00288717 0.00090475    0.0346190 ----
   527   0   0   F    F  8.25D-01 0.00029988 0.00010480 0.00626697 0.00196388    0.0346179 ----
   528   0   0   F    T  3.89D+00 0.00027075 0.00010519 0.00284558 0.00092067    0.0346176 ----
   529   0   0   F    F -3.14D-01 0.00027075 0.00010519 0.01107870 0.00358446    0.0346168 ----
   530   0   0   F    T  2.06D+00 0.00035888 0.00011892 0.00361511 0.00119112    0.0346166 ----
   531   0   0   F    F  2.60D-01 0.00035888 0.00011892 0.00746025 0.00245802    0.0346154 ----
   532   0   0   F    T  2.29D+00 0.00048597 0.00012600 0.00406671 0.00135120    0.0346154 ----
   533   0   0   F    F  2.59D-01 0.00048597 0.00012600 0.00932445 0.00309814    0.0346139 ----
   534   0   0   F    T  3.78D+00 0.00030350 0.00010972 0.00302642 0.00103199    0.0346139 ----
   535   0   0   F    F -2.04D-01 0.00030350 0.00010972 0.01143571 0.00389951    0.0346128 ----
   536   0   0   F    T  2.80D+00 0.00039829 0.00011370 0.00319739 0.00110983    0.0346127 ----
   537   0   0   F    F -2.27D-01 0.00039829 0.00011370 0.00894452 0.00310467    0.0346118 ----
   538   0   0   F    T  2.48D+00 0.00030901 0.00010599 0.00276803 0.00096772    0.0346118 ----
   539   0   0   F    F  1.44D-01 0.00030901 0.00010599 0.00686690 0.00240072    0.0346107 ----
   540   0   0   F    T  2.43D+00 0.00030492 0.00011439 0.00319619 0.00113242    0.0346107 ----
   541   0   0   F    F  9.15D-02 0.00030492 0.00011439 0.00775212 0.00274660    0.0346096 ----
   542   0   0   F    T  3.80D+00 0.00020408 0.00009501 0.00218536 0.00078888    0.0346096 ----
   543   0   0   F    F -3.09D-01 0.00020408 0.00009501 0.00830476 0.00299790    0.0346089 ----
   544   0   0   F    T  2.44D+00 0.00030075 0.00009807 0.00230722 0.00084793    0.0346088 ----
   545   0   0   F    F  5.34D-02 0.00030075 0.00009807 0.00563813 0.00207207    0.0346080 ----
   546   0   0   F    T  2.83D+00 0.00028202 0.00009318 0.00202450 0.00077139    0.0346080 ----
   547   0   0   F    F -1.73D-01 0.00028202 0.00009318 0.00572844 0.00218269    0.0346073 ----
   548   0   0   F    T  2.22D+00 0.00025250 0.00009554 0.00206380 0.00081431    0.0346073 ----
   549   0   0   F    F  6.06D-01 0.00025250 0.00009554 0.00457429 0.00180487    0.0346064 ----
   550   0   0   F    T  3.37D+00 0.00025252 0.00009820 0.00213173 0.00086030    0.0346062 ----
   551   0   0   F    F -3.31D-01 0.00025252 0.00009820 0.00718279 0.00289874    0.0346057 ----
   552   0   0   F    T  2.83D+00 0.00024433 0.00008747 0.00173052 0.00068592    0.0346055 ----
   553   0   0   F    F  1.88D-01 0.00024433 0.00008747 0.00489313 0.00193947    0.0346047 ----
   554   0   0   F    T  1.99D+00 0.00043759 0.00011352 0.00302458 0.00116047    0.0346047 ----
   555   0   0   F    F  6.07D-02 0.00043759 0.00011352 0.00600775 0.00230504    0.0346038 ----
   556   0   0   F    T  3.71D+00 0.00017680 0.00008512 0.00176754 0.00065962    0.0346038 ----
   557   0   0   F    F -9.72D-02 0.00017680 0.00008512 0.00655178 0.00244501    0.0346030 ----
   558   0   0   F    T  2.26D+00 0.00030027 0.00010319 0.00255645 0.00097659    0.0346030 ----
   559   0   0   F    F  5.22D-01 0.00030027 0.00010319 0.00577858 0.00220747    0.0346019 ----
   560   0   0   F    T  2.82D+00 0.00044920 0.00011338 0.00311701 0.00119319    0.0346018 ----
   561   0   0   F    F -3.05D-01 0.00044920 0.00011338 0.00877452 0.00335888    0.0346011 ----
   562   0   0   F    T  2.57D+00 0.00026577 0.00009825 0.00239793 0.00090741    0.0346009 ----
   563   0   0   F    F  2.53D-01 0.00026577 0.00009825 0.00616993 0.00233478    0.0345999 ----
   564   0   0   F    T  2.41D+00 0.00033395 0.00011351 0.00319682 0.00121545    0.0345999 ----
   565   0   0   F    F  2.26D-01 0.00033395 0.00011351 0.00769731 0.00292656    0.0345987 ----
   566   0   0   F    T  2.96D+00 0.00026304 0.00011350 0.00315825 0.00121208    0.0345986 ----
   567   0   0   F    F -8.27D-02 0.00026304 0.00011350 0.00934770 0.00358747    0.0345975 ----
   568   0   0   F    T  3.06D+00 0.00029619 0.00010730 0.00279642 0.00107590    0.0345975 ----
   569   0   0   F    F -2.12D-01 0.00029619 0.00010730 0.00855325 0.00329080    0.0345966 ----
   570   0   0   F    T  1.86D+00 0.00045376 0.00012207 0.00353860 0.00139016    0.0345966 ----
   571   0   0   F    F  8.69D-01 0.00045376 0.00012207 0.00659782 0.00259200    0.0345952 ----
   572   0   0   F    T  3.25D+00 0.00031619 0.00012653 0.00364805 0.00149262    0.0345949 ----
   573   0   0   F    F -2.98D-01 0.00031619 0.00012653 0.01184193 0.00484521    0.0345939 ----
   574   0   0   F    T  2.97D+00 0.00030813 0.00011096 0.00272818 0.00114538    0.0345936 ----
   575   0   0   F    F  3.52D-01 0.00030813 0.00011096 0.00809617 0.00339905    0.0345921 ----
   576   0   0   F    T  2.10D+00 0.00053657 0.00015336 0.00542685 0.00218688    0.0345920 ----
   577   0   0   F    F -2.08D-02 0.00053657 0.00015336 0.01140515 0.00459598    0.0345904 ----
   578   0   0   F    T  3.23D+00 0.00030301 0.00012154 0.00365153 0.00139333    0.0345904 ----
   579   0   0   F    F -2.02D-01 0.00030301 0.00012154 0.01179378 0.00450020    0.0345892 ----
   580   0   0   F    T  2.45D+00 0.00029627 0.00012414 0.00406311 0.00146357    0.0345892 ----
   581   0   0   F    F  6.93D-01 0.00029627 0.00012414 0.00996613 0.00358989    0.0345874 ----
   582   0   0   F    T  2.75D+00 0.00047147 0.00015269 0.00632677 0.00221321    0.0345871 ----
   583   0   0   F    F -9.32D-02 0.00047147 0.00015269 0.01737858 0.00607932    0.0345852 ----
   584   0   0   F    T  2.46D+00 0.00061088 0.00015384 0.00654933 0.00224475    0.0345851 ----
   585   0   0   F    F -1.17D-01 0.00061088 0.00015384 0.01608387 0.00551267    0.0345835 ----
   586   0   0   F    T  2.52D+00 0.00035890 0.00014186 0.00574613 0.00193214    0.0345835 ----
   587   0   0   F    F  6.68D-01 0.00035890 0.00014186 0.01447489 0.00486718    0.0345811 ----
   588   0   0   F    T  3.89D+00 0.00037934 0.00014542 0.00631087 0.00208572    0.0345807 ----
   589   0   0   F    F -4.84D-01 0.00037934 0.00014542 0.02456004 0.00811699    0.0345805 ----
   590   0   0   F    T  2.20D+00 0.00039303 0.00013742 0.00581902 0.00190254    0.0345793 ----
   591   0   0   F    F  6.21D-01 0.00039303 0.00013742 0.01280828 0.00418769    0.0345774 ----
   592   0   0   F    T  2.47D+00 0.00045621 0.00016356 0.00839508 0.00274670    0.0345771 ----
   593   0   0   F    F -1.45D-01 0.00045621 0.00016356 0.02074350 0.00678687    0.0345752 ----
   594   0   0   F    T  3.55D+00 0.00039951 0.00012686 0.00502271 0.00163350    0.0345752 ----
   595   0   0   F    F -2.48D-01 0.00039951 0.00012686 0.01784588 0.00580389    0.0345739 ----
   596   0   0   F    T  2.76D+00 0.00038007 0.00012550 0.00496626 0.00158149    0.0345738 ----
   597   0   0   F    F  6.99D-02 0.00038007 0.00012550 0.01369814 0.00436212    0.0345722 ----
   598   0   0   F    T  2.55D+00 0.00044184 0.00013520 0.00583790 0.00182975    0.0345722 ----
   599   0   0   F    F  1.48D-01 0.00044184 0.00013520 0.01488975 0.00466682    0.0345705 ----
   600   0   0   F    T  2.09D+00 0.00046613 0.00015978 0.00827867 0.00256264    0.0345705 ----
   601   0   0   F    F  8.48D-02 0.00046613 0.00015978 0.01730626 0.00535711    0.0345686 ----
   602   0   0   F    T  3.50D+00 0.00030045 0.00012725 0.00545338 0.00165889    0.0345686 ----
   603   0   0   F    F -4.78D-02 0.00030045 0.00012725 0.01910419 0.00581138    0.0345668 ----
   604   0   0   F    T  2.53D+00 0.00046019 0.00014558 0.00718785 0.00218910    0.0345668 ----
   605   0   0   F    F  1.03D-01 0.00046019 0.00014558 0.01816925 0.00553355    0.0345648 ----
   606   0   0   F    T  3.19D+00 0.00038579 0.00013657 0.00629426 0.00191359    0.0345648 ----
   607   0   0   F    F -3.45D-01 0.00038579 0.00013657 0.02008108 0.00610508    0.0345639 ----
   608   0   0   F    T  1.95D+00 0.00040780 0.00014224 0.00680539 0.00205488    0.0345635 ----
   609   0   0   F    F  1.01D+00 0.00040780 0.00014224 0.01323672 0.00399682    0.0345616 ----
   610   0   0   F    T  3.72D+00 0.00033463 0.00014631 0.00709949 0.00215803    0.0345609 ----
   611   0   0   F    F -2.65D-01 0.00033463 0.00014631 0.02643244 0.00803465    0.0345593 ----
   612   0   0   F    T  2.87D+00 0.00042223 0.00014218 0.00666915 0.00205707    0.0345590 ----
   613   0   0   F    F -2.03D-01 0.00042223 0.00014218 0.01914882 0.00590637    0.0345576 ----
   614   0   0   F    T  2.11D+00 0.00045708 0.00014701 0.00717475 0.00222750    0.0345575 ----
   615   0   0   F    F  4.20D-01 0.00045708 0.00014701 0.01516264 0.00470745    0.0345555 ----
   616   0   0   F    T  2.56D+00 0.00039563 0.00015837 0.00847062 0.00260794    0.0345553 ----
   617   0   0   F    F  3.18D-01 0.00039563 0.00015837 0.02171040 0.00668422    0.0345527 ----
   618   0   0   F    T  4.20D+00 0.00038078 0.00014079 0.00690050 0.00209512    0.0345526 ----
   619   0   0   T    F  4.40D-01 0.00038078 0.00014079 0.02901376 0.00880912    0.0345533 ----
   620   0   0   F    T  2.61D+00 0.00032478 0.00011842 0.00497761 0.00148613    0.0345514 ----
   621   0   0   F    F  1.32D-01 0.00032478 0.00011842 0.01298585 0.00387711    0.0345500 ----
   622   0   0   F    T  2.78D+00 0.00032723 0.00012214 0.00532990 0.00157592    0.0345500 ----
   623   0   0   F    F -3.30D-01 0.00032723 0.00012214 0.01483954 0.00438769    0.0345493 ----
   624   0   0   F    T  3.93D+00 0.00024737 0.00008437 0.00257680 0.00074771    0.0345491 ----
   625   0   0   F    F -2.48D-01 0.00024737 0.00008437 0.01012375 0.00293762    0.0345485 ----
   626   0   0   F    T  2.45D+00 0.00026542 0.00009239 0.00316059 0.00090116    0.0345484 ----
   627   0   0   F    F  1.08D-01 0.00026542 0.00009239 0.00774692 0.00220883    0.0345476 ----
   628   0   0   F    T  3.69D+00 0.00023299 0.00007886 0.00234971 0.00066303    0.0345476 ----
   629   0   0   F    F -4.85D-01 0.00023299 0.00007886 0.00867022 0.00244652    0.0345476 ----
   630   0   0   F    T  2.21D+00 0.00023494 0.00007268 0.00200092 0.00056931    0.0345472 -+--
   631   0   0   F    F  4.71D-01 0.00023494 0.00007268 0.00442640 0.00125942    0.0345467 -+--
   632   0   0   F    T  3.09D+00 0.00026049 0.00007416 0.00206185 0.00060018    0.0345467 -+--
   633   0   0   F    F -3.86D-02 0.00026049 0.00007416 0.00636435 0.00185257    0.0345461 -+--
   634   0   0   F    T  3.11D+00 0.00020067 0.00007209 0.00200353 0.00057245    0.0345461 -+--
   635   0   0   F    F -2.33D-01 0.00020067 0.00007209 0.00623371 0.00178111    0.0345457 -+--
   636   0   0   F    T  2.34D+00 0.00021627 0.00007259 0.00206751 0.00058400    0.0345457 -+--
   637   0   0   F    T  3.24D+00 0.00020389 0.00006174 0.00147450 0.00042170    0.0345453 -+--
   638   0   0   F    F -2.51D-01 0.00020389 0.00006174 0.00477685 0.00136615    0.0345450 -+--
   639   0   0   F    T  2.55D+00 0.00017599 0.00005937 0.00138104 0.00040168    0.0345450 -+--
   640   0   0   F    F  6.15D-01 0.00017599 0.00005937 0.00351920 0.00102356    0.0345446 -+--
   641   0   0   F    T  2.43D+00 0.00023272 0.00007736 0.00234000 0.00067935    0.0345445 ----
   642   0   0   F    F -7.92D-02 0.00023272 0.00007736 0.00569449 0.00165322    0.0345441 ----
   643   0   0   F    T  3.16D+00 0.00020617 0.00006502 0.00166761 0.00048178    0.0345441 -+--
   644   0   0   F    F -3.27D-01 0.00020617 0.00006502 0.00526890 0.00152221    0.0345438 -+--
   645   0   0   F    T  2.61D+00 0.00019249 0.00005838 0.00136733 0.00039172    0.0345438 -+--
   646   0   0   F    F  1.69D-01 0.00019249 0.00005838 0.00357415 0.00102395    0.0345434 -+--
   647   0   0   F    T  2.75D+00 0.00019826 0.00006128 0.00155403 0.00043586    0.0345434 -+--
   648   0   0   F    F -6.28D-02 0.00019826 0.00006128 0.00426962 0.00119751    0.0345431 -+--
   649   0   0   F    T  3.35D+00 0.00016465 0.00005322 0.00120911 0.00033495    0.0345431 -+--
   650   0   0   F    F -1.55D-01 0.00016465 0.00005322 0.00405143 0.00112233    0.0345429 -+--
   651   0   0   F    T  1.92D+00 0.00020380 0.00006427 0.00176716 0.00049392    0.0345428 -+--
   652   0   0   F    F  3.32D-01 0.00020380 0.00006427 0.00339243 0.00094819    0.0345425 -+--
   653   0   0   F    T  2.91D+00 0.00015700 0.00005998 0.00153436 0.00043421    0.0345425 -+--
   654   0   0   F    F -7.71D-02 0.00015700 0.00005998 0.00446265 0.00126289    0.0345422 -+--
   655   0   0   F    T  4.50D+00 0.00010671 0.00004611 0.00092930 0.00025915    0.0345422 ++-+
   656   0   0   F    F -4.66D-01 0.00010671 0.00004611 0.00417951 0.00116551    0.0345421 ++--
   657   0   0   F    T  2.27D+00 0.00013969 0.00004710 0.00098521 0.00027410    0.0345420 -+-+
   658   0   0   F    F  1.91D-01 0.00013969 0.00004710 0.00223751 0.00062252    0.0345418 -+--
   659   0   0   F    T  2.47D+00 0.00016245 0.00004894 0.00106521 0.00029984    0.0345418 -+-+
   660   0   0   F    F -1.84D-01 0.00016245 0.00004894 0.00263419 0.00074148    0.0345417 -+--
   661   0   0   F    T  4.36D+00 0.00010548 0.00003280 0.00048894 0.00013878    0.0345417 ++-+
   662   0   0   F    F -1.74D-01 0.00010548 0.00003280 0.00213051 0.00060473    0.0345415 ++--
   663   0   0   F    T  2.00D+00 0.00012674 0.00004368 0.00088437 0.00025010    0.0345415 -+-+
   664   0   0   F    F  4.57D-01 0.00012674 0.00004368 0.00176553 0.00049929    0.0345414 -+--
   665   0   0   F    T  2.95D+00 0.00011682 0.00004300 0.00086127 0.00024655    0.0345413 -+-+
   666   0   0   F    F -3.04D-01 0.00011682 0.00004300 0.00254137 0.00072749    0.0345412 -+--
   667   0   0   F    T  2.38D+00 0.00010222 0.00003960 0.00072692 0.00021284    0.0345412 ++-+
   668   0   0   F    F  3.44D-01 0.00010222 0.00003960 0.00172868 0.00050615    0.0345411 ++--
[...]
   697   0   0   F    F -1.32D-01 0.00008955 0.00003552 0.00219807 0.00072510    0.0345383 ++--
   698   0   0   F    T  2.10D+00 0.00014841 0.00004282 0.00091056 0.00029984    0.0345383 -+-+
   699   0   0   F    F  2.15D-01 0.00014841 0.00004282 0.00191219 0.00062967    0.0345382 -+--
   700   0   0   F    T  2.86D+00 0.00012016 0.00004116 0.00080967 0.00026751    0.0345382 -+-+
   701   0   0   F    F -1.50D-01 0.00012016 0.00004116 0.00231612 0.00076522    0.0345380 -+--
   702   0   0   F    T  2.72D+00 0.00008720 0.00003869 0.00070525 0.00023942    0.0345380 ++-+
   703   0   0   F    F -1.08D-01 0.00008720 0.00003869 0.00191555 0.00065029    0.0345379 ++--
   704   0   0   F    T  2.70D+00 0.00013754 0.00003638 0.00059718 0.00021449    0.0345379 -+-+
   705   0   0   F    F  6.63D-01 0.00013754 0.00003638 0.00161491 0.00058002    0.0345377 -+--
   706   0   0   F    T  2.71D+00 0.00015634 0.00004669 0.00095809 0.00035636    0.0345377 -+--
   707   0   0   F    F -3.61D-01 0.00015634 0.00004669 0.00259271 0.00096434    0.0345376 -+--
   708   0   0   F    T  3.24D+00 0.00010370 0.00003373 0.00050839 0.00018998    0.0345376 ++-+
   709   0   0   F    F -1.80D-01 0.00010370 0.00003373 0.00164890 0.00061618    0.0345375 ++--
   710   0   0   F    T  2.10D+00 0.00008672 0.00003770 0.00066543 0.00024046    0.0345375 ++-+
   711   0   0   F    F  8.03D-01 0.00008672 0.00003770 0.00139853 0.00050537    0.0345373 ++--
   712   0   0   F    T  4.77D+00 0.00009517 0.00003337 0.00052471 0.00019090    0.0345373 ++-+
   713   0   0   T    F  4.05D-01 0.00009517 0.00003337 0.00250432 0.00091113    0.0345374 ++--
   714   0   0   F    T  2.04D+00 0.00010915 0.00003225 0.00045707 0.00018099    0.0345372 ++-+
   715   0   0   F    F  9.50D-01 0.00010915 0.00003225 0.00093130 0.00036878    0.0345371 ++--
   716   0   0   F    T  2.37D+00 0.00015704 0.00004161 0.00078279 0.00030407    0.0345371 -+--
   717   0   0   F    F -1.46D-01 0.00015704 0.00004161 0.00185143 0.00071918    0.0345370 -+--
   718   0   0   F    T  3.89D+00 0.00008776 0.00002968 0.00042950 0.00015779    0.0345370 ====
 Energy=    0.034536982306 NIter=   0.
 Dipole moment=       0.000000       0.000000       0.000000
 ***** Axes restored to original set *****
 -------------------------------------------------------------------
 Center     Atomic                   Forces (Hartrees/Bohr)
 Number     Number              X              Y              Z
 -------------------------------------------------------------------
    1          6           0.000017251    0.000004218   -0.000017574
    2          6           0.000014581   -0.000012297    0.000033819
    3          8          -0.000035339    0.000003978    0.000025462
    4          7           0.000024608    0.000026152    0.000019746
    5          6           0.000002305    0.000010425    0.000034734
    6          6          -0.000067014   -0.000057525    0.000045487
    7          8           0.000044751    0.000003922   -0.000069683
    8          7           0.000027631    0.000003457    0.000083160
    9          1           0.000009449    0.000021517   -0.000007035
   10          1          -0.000016547    0.000006271   -0.000007788
   11          1          -0.000022025    0.000019922   -0.000018582
   12          6          -0.000016916   -0.000000956   -0.000027508
   13          1          -0.000022635   -0.000006127   -0.000019224
   14          6          -0.000008719    0.000026380   -0.000023921
   15          1           0.000020830   -0.000044051    0.000000007
   16          1          -0.000010582   -0.000053628   -0.000019059
   17          1           0.000028295    0.000008156   -0.000011119
   18          1          -0.000050028   -0.000008891    0.000032448
   19          1           0.000000531    0.000034573   -0.000037798
   20          1           0.000026434    0.000041095   -0.000006675
   21          1           0.000043048   -0.000001606   -0.000044062
   22          1          -0.000009909   -0.000024985    0.000035164
 -------------------------------------------------------------------
 Cartesian Forces:  Max     0.000083160 RMS     0.000029683

 GradGradGradGradGradGradGradGradGradGradGradGradGradGradGradGradGradGrad
 Berny optimization.
 Search for a local minimum.
 Step number   1 out of a maximum of   2
 All quantities printed in internal units (Hartrees-Bohrs-Radians)
 Second derivative matrix not updated -- unit matrix used.
 RFO step:  Lambda=-5.81520933D-08.
 Linear search not attempted -- first point.
 TrRot=  0.000000  0.000000  0.000000  0.000000  0.000000  0.000000
 Variable       Old X    -DE/DX   Delta X   Delta X   Delta X     New X
                                 (Linear)    (Quad)   (Total)
    X1       -3.03279   0.00002   0.00000   0.00002   0.00002  -3.03278
    Y1       -5.73028   0.00000   0.00000   0.00000   0.00000  -5.73028
    Z1        0.18636  -0.00002   0.00000  -0.00002  -0.00002   0.18634
    X2       -2.01428   0.00001   0.00000   0.00001   0.00001  -2.01426
    Y2       -3.26400  -0.00001   0.00000  -0.00001  -0.00001  -3.26401
    Z2        0.78431   0.00003   0.00000   0.00003   0.00003   0.78434
    X3       -2.89631  -0.00004   0.00000  -0.00004  -0.00004  -2.89634
    Y3       -2.06065   0.00000   0.00000   0.00000   0.00000  -2.06065
    Z3        2.55112   0.00003   0.00000   0.00003   0.00003   2.55115
    X4       -0.09127   0.00002   0.00000   0.00002   0.00002  -0.09124
    Y4       -2.31437   0.00003   0.00000   0.00003   0.00003  -2.31434
    Z4       -0.54271   0.00002   0.00000   0.00002   0.00002  -0.54269
    X5       -0.02457   0.00000   0.00000   0.00000   0.00000  -0.02457
    Y5        0.09545   0.00001   0.00000   0.00001   0.00001   0.09546
    Z5       -1.82621   0.00003   0.00000   0.00003   0.00003  -1.82618
    X6        1.94995  -0.00007   0.00000  -0.00007  -0.00007   1.94988
    Y6        1.69494  -0.00006   0.00000  -0.00006  -0.00006   1.69488
    Z6       -0.72425   0.00005   0.00000   0.00005   0.00005  -0.72421
    X7        3.71646   0.00004   0.00000   0.00004   0.00004   3.71651
    Y7        2.32985   0.00000   0.00000   0.00000   0.00000   2.32985
    Z7       -2.08305  -0.00007   0.00000  -0.00007  -0.00007  -2.08312
    X8        1.88271   0.00003   0.00000   0.00003   0.00003   1.88274
    Y8        2.45797   0.00000   0.00000   0.00000   0.00000   2.45797
    Z8        1.69938   0.00008   0.00000   0.00008   0.00008   1.69946
    X9       -1.56227   0.00001   0.00000   0.00001   0.00001  -1.56226
    Y9       -7.16297   0.00002   0.00000   0.00002   0.00002  -7.16295
    Z9        0.38372  -0.00001   0.00000  -0.00001  -0.00001   0.38371
   X10       -3.72198  -0.00002   0.00000  -0.00002  -0.00002  -3.72200
   Y10       -5.74120   0.00001   0.00000   0.00001   0.00001  -5.74119
   Z10       -1.75746  -0.00001   0.00000  -0.00001  -0.00001  -1.75747
   X11       -4.59879  -0.00002   0.00000  -0.00002  -0.00002  -4.59882
   Y11       -6.22810   0.00002   0.00000   0.00002   0.00002  -6.22808
   Z11        1.43669  -0.00002   0.00000  -0.00002  -0.00002   1.43667
   X12       -2.56928  -0.00002   0.00000  -0.00002  -0.00002  -2.56930
   Y12        1.55717   0.00000   0.00000   0.00000   0.00000   1.55717
   Z12       -2.04391  -0.00003   0.00000  -0.00003  -0.00003  -2.04394
   X13        0.49296  -0.00002   0.00000  -0.00002  -0.00002   0.49294
   Y13       -0.35072  -0.00001   0.00000  -0.00001  -0.00001  -0.35073
   Z13       -3.78397  -0.00002   0.00000  -0.00002  -0.00002  -3.78399
   X14        3.79695  -0.00001   0.00000  -0.00001  -0.00001   3.79694
   Y14        3.96161   0.00003   0.00000   0.00003   0.00003   3.96164
   Z14        2.88098  -0.00002   0.00000  -0.00002  -0.00002   2.88096
   X15        1.40725   0.00002   0.00000   0.00002   0.00002   1.40727
   Y15       -3.38287  -0.00004   0.00000  -0.00004  -0.00004  -3.38292
   Z15       -0.69321   0.00000   0.00000   0.00000   0.00000  -0.69321
   X16        0.45363  -0.00001   0.00000  -0.00001  -0.00001   0.45362
   Y16        1.95718  -0.00005   0.00000  -0.00005  -0.00005   1.95713
   Z16        2.74728  -0.00002   0.00000  -0.00002  -0.00002   2.74726
   X17        3.30331   0.00003   0.00000   0.00003   0.00003   3.30334
   Y17        4.35987   0.00001   0.00000   0.00001   0.00001   4.35988
   Z17        4.84597  -0.00001   0.00000  -0.00001  -0.00001   4.84596
   X18        4.00666  -0.00005   0.00000  -0.00005  -0.00005   4.00661
   Y18        5.75963  -0.00001   0.00000  -0.00001  -0.00001   5.75962
   Z18        1.89008   0.00003   0.00000   0.00003   0.00003   1.89011
   X19        5.60136   0.00000   0.00000   0.00000   0.00000   5.60136
   Y19        2.96076   0.00003   0.00000   0.00003   0.00003   2.96080
   Z19        2.85710  -0.00004   0.00000  -0.00004  -0.00004   2.85706
   X20       -3.99854   0.00003   0.00000   0.00003   0.00003  -3.99851
   Y20        0.35401   0.00004   0.00000   0.00004   0.00004   0.35405
   Z20       -2.92024  -0.00001   0.00000  -0.00001  -0.00001  -2.92025
   X21       -3.26296   0.00004   0.00000   0.00004   0.00004  -3.26291
   Y21        2.15806   0.00000   0.00000   0.00000   0.00000   2.15806
   Z21       -0.19705  -0.00004   0.00000  -0.00004  -0.00004  -0.19710
   X22       -2.33269  -0.00001   0.00000  -0.00001  -0.00001  -2.33270
   Y22        3.23376  -0.00002   0.00000  -0.00002  -0.00002   3.23374
   Z22       -3.22592   0.00004   0.00000   0.00004   0.00004  -3.22589
         Item               Value     Threshold  Converged?
 Maximum Force            0.000083     0.000450     YES
 RMS     Force            0.000030     0.000300     YES
 Maximum Displacement     0.000083     0.001800     YES
 RMS     Displacement     0.000030     0.001200     YES
 Predicted change in Energy=-2.907604D-08
 Optimization completed.
    -- Stationary point found.
 GradGradGradGradGradGradGradGradGradGradGradGradGradGradGradGradGradGrad

                          Input orientation:                          
 ---------------------------------------------------------------------
 Center     Atomic     Atomic              Coordinates (Angstroms)
 Number     Number      Type              X           Y           Z
 ---------------------------------------------------------------------
    1          6      10061003       -1.604885   -3.032334    0.098615
    2          6      10061002       -1.065910   -1.727232    0.415039
    3          8      10081002       -1.532659   -1.090450    1.349997
    4          7      10071000       -0.048296   -1.224712   -0.287192
    5          6      10061003       -0.013001    0.050510   -0.966390
    6          6      10061002        1.031868    0.896923   -0.383258
    7          8      10081002        1.966668    1.232903   -1.102304
    8          7      10071000        0.996290    1.300702    0.899271
    9          1      10011000       -0.826719   -3.790482    0.203055
   10          1      10011000       -1.969588   -3.038110   -0.930009
   11          1      10011000       -2.433577   -3.295768    0.760262
   12          6      10061003       -1.359606    0.824018   -1.081591
   13          1      10011000        0.260864   -0.185593   -2.002389
   14          6      10061003        2.009257    2.096395    1.524550
   15          1      10011000        0.744684   -1.790139   -0.366832
   16          1      10011000        0.240049    1.035696    1.453799
   17          1      10011000        1.748035    2.307143    2.564376
   18          1      10011000        2.120233    3.047865    1.000187
   19          1      10011000        2.964110    1.566768    1.511913
   20          1      10011000       -2.115935    0.187333   -1.545327
   21          1      10011000       -1.726682    1.141995   -0.104276
   22          1      10011000       -1.234405    1.711234   -1.707085
 ---------------------------------------------------------------------
                    Distance matrix (angstroms):
                    1          2          3          4          5
     1  C    0.000000
     2  C    1.447034   0.000000
     3  O    2.311295   1.223720   0.000000
     4  N    2.416467   1.334614   2.213989   0.000000
     5  C    3.629361   2.485424   2.996130   1.445249   0.000000
     6  C    4.756441   3.453136   3.678399   2.382712   1.465677
     7  O    5.691260   4.501251   4.863849   3.280908   2.309895
     8  N    5.116870   3.695340   3.509464   2.979357   2.462182
     9  H    1.091439   2.087858   3.017284   2.725704   4.096701
    10  H    1.091380   2.084272   3.030299   2.719005   3.656382
    11  H    1.092659   2.109501   2.454153   3.328062   4.476393
    12  C    4.040359   2.972379   3.099638   2.558885   1.557218
    13  H    3.999896   3.159263   3.908193   2.029100   1.097288
    14  C    6.434219   5.030686   4.767769   4.306470   3.805254
    15  H    2.698177   1.973203   2.936554   0.977173   2.078833
    16  H    4.667887   3.227743   2.770156   2.867688   2.625250
    17  H    6.769939   5.367879   4.876609   4.881828   4.545321
    18  H    7.187361   5.770222   5.530971   4.961328   4.171600
    19  H    6.635124   5.319270   5.225701   4.483718   4.159833
    20  H    3.651024   2.934476   3.218049   2.802125   2.185456
    21  H    4.181032   2.989779   2.671398   2.907188   2.207098
    22  H    5.089130   4.044114   4.157420   3.470263   2.190539
                    6          7          8          9         10
     6  C    0.000000
     7  O    1.226279   0.000000
     8  N    1.345059   2.225429   0.000000
     9  H    5.076404   5.894181   5.452360   0.000000
    10  H    4.979173   5.810795   5.564888   1.776527   0.000000
    11  H    5.558382   6.583325   5.736797   1.771218   1.771635
    12  C    2.492415   3.351375   3.114689   4.819533   3.912938
    13  H    2.094725   2.394170   3.342088   4.363719   3.776475
    14  C    2.456370   2.765465   1.431854   6.666666   6.944005
    15  H    2.702415   3.342596   3.349570   2.606809   3.040044
    16  H    2.005246   3.090917   0.974489   5.098466   5.211615
    17  H    3.345169   3.827052   2.085814   7.027534   7.389396
    18  H    2.779390   2.781751   2.079907   7.488854   7.582307
    19  H    2.788175   2.817887   2.078085   6.692057   7.176995
    20  H    3.429663   4.237585   4.111154   4.532321   3.286870
    21  H    2.783432   3.826899   2.906350   5.023318   4.267800
    22  H    2.748020   3.292632   3.455088   5.838127   4.868327
                   11         12         13         14         15
    11  H    0.000000
    12  C    4.638801   0.000000
    13  H    4.956353   2.119694   0.000000
    14  C    7.028395   4.445240   4.550126   0.000000
    15  H    3.693047   3.431141   2.341729   4.503512   0.000000
    16  H    5.137203   3.005313   3.665680   2.064022   3.399220
    17  H    7.220341   5.014994   5.411169   1.092652   5.136771
    18  H    7.812581   4.624778   4.788315   1.092048   5.212212
    19  H    7.303715   5.096318   4.767455   1.091974   4.441212
    20  H    4.189108   1.091994   2.448908   5.485059   3.671836
    21  H    4.576120   1.091330   3.052157   4.185833   3.843696
    22  H    5.709281   1.092735   2.433307   4.594906   4.239420
                   16         17         18         19         20
    16  H    0.000000
    17  H    2.263621   0.000000
    18  H    2.791000   1.770279   0.000000
    19  H    2.775954   1.770500   1.779786   0.000000
    20  H    3.907062   6.026070   5.710289   6.087398   0.000000
    21  H    2.511360   4.533534   4.432937   4.979561   1.771871
    22  H    3.552683   5.243609   4.513258   5.292480   1.767918
                   21         22
    21  H    0.000000
    22  H    1.770697   0.000000
 Stoichiometry    C6H12N2O2
 Framework group  C1[X(C6H12N2O2)]
 Deg. of freedom    60
 Full point group                 C1
 Largest Abelian subgroup         C1      NOp   1
 Largest concise Abelian subgroup C1      NOp   1
                         Standard orientation:                         
 ---------------------------------------------------------------------
 Center     Atomic     Atomic              Coordinates (Angstroms)
 Number     Number      Type              X           Y           Z
 ---------------------------------------------------------------------
    1          6      10061003       -3.327968   -0.253938   -0.584508
    2          6      10061002       -1.965041   -0.454991   -0.141885
    3          8      10081002       -1.731610   -1.256444    0.752919
    4          7      10071000       -0.959562    0.206459   -0.718679
    5          6      10061003        0.024567    1.032121   -0.056471
    6          6      10061002        1.361943    0.463764   -0.247799
    7          8      10081002        2.185521    1.128895   -0.866733
    8          7      10071000        1.700412   -0.749987    0.222763
    9          1      10011000       -3.419512   -0.523314   -1.638213
   10          1      10011000       -3.601555    0.795453   -0.461880
   11          1      10011000       -4.030508   -0.863236   -0.010838
   12          6      10061003       -0.231481    1.366846    1.442638
   13          1      10011000       -0.024264    2.000941   -0.569348
   14          6      10061003        2.979951   -1.363300    0.030842
   15          1      10011000       -0.899455    0.141434   -1.691832
   16          1      10011000        1.038388   -1.260384    0.723611
   17          1      10011000        3.017279   -2.340215    0.518828
   18          1      10011000        3.767034   -0.737733    0.457144
   19          1      10011000        3.172555   -1.505126   -1.034614
   20          1      10011000       -1.219698    1.816411    1.559980
   21          1      10011000       -0.180345    0.474802    2.069251
   22          1      10011000        0.511029    2.083044    1.802931
 ---------------------------------------------------------------------
 Rotational constants (GHZ):      2.3209334      0.7867243      0.7151919
 1|1|UNPC-UNK|FOpt|Dreiding|ZDO|C6H12N2O2|PCUSER|09-Apr-2008|0||# opt d
 reiding||N-Ac-Ala-N-Me-g--g+||0,1|C,-1.6048850569,-3.0323339124,0.0986
 149814|C,-1.0659104252,-1.7272323616,0.4150392988|O,-1.5326587898,-1.0
 904499077,1.3499965108|N,-0.0482961615,-1.2247115332,-0.2871922733|C,-
 0.0130010487,0.0505103602,-0.9663899263|C,1.0318681288,0.8969234226,-0
 .3832577125|O,1.9666678132,1.2329028396,-1.1023037364|N,0.9962897925,1
 .3007015633,0.8992713057|H,-0.826719315,-3.7904822273,0.2030546958|H,-
 1.9695875486,-3.0381097283,-0.930009488|H,-2.4335767454,-3.2957681247,
 0.7602616394|C,-1.3596056453,0.8240178186,-1.0815913922|H,0.2608639471
 ,-0.1855928966,-2.0023885358|C,2.0092574527,2.0963949596,1.5245504092|
 H,0.7446835039,-1.790138829,-0.366831759|H,0.2400488189,1.0356960526,1
 .4537989994|H,1.7480353597,2.3071433273,2.5643756375|H,2.1202328552,3.
 0478651094,1.0001866537|H,2.9641096964,1.5667682828,1.5119131595|H,-2.
 1159347817,0.1873331796,-1.5453268734|H,-1.7266822303,1.1419954407,-0.
 104275935|H,-1.2344047189,1.7112339052,-1.7070854607||Version=IA32W-G0
 3RevD.01|HF=0.034537|RMSD=0.000e+000|RMSF=2.968e-005|Thermal=0.|Dipole
 =0.,0.,0.|PG=C01 [X(C6H12N2O2)]||@


 THEORY:  SUPPOSITION WHICH HAS SCIENTIFIC BASIS,
          BUT NOT EXPERIMENTALLY PROVEN.
 FACT:    A THEORY WHICH HAS BEEN PROVEN BY ENOUGH 
          MONEY TO PAY FOR THE EXPERIMENTS.

                          --  THE WIZARD OF ID
 Job cpu time:  0 days  0 hours  0 minutes  6.0 seconds.
 File lengths (MBytes):  RWF=     11 Int=      0 D2E=      0 Chk=      4 Scr=      1
 Normal termination of Gaussian 03 at Wed Apr 09 19:57:37 2008.
