 Entering Link 1 = C:\G03W\l1.exe PID=      2740.
  
 Copyright (c) 1988,1990,1992,1993,1995,1998,2003,2004, Gaussian, Inc.
                  All Rights Reserved.
  
 This is the Gaussian(R) 03 program.  It is based on the
 the Gaussian(R) 98 system (copyright 1998, Gaussian, Inc.),
 the Gaussian(R) 94 system (copyright 1995, Gaussian, Inc.),
 the Gaussian 92(TM) system (copyright 1992, Gaussian, Inc.),
 the Gaussian 90(TM) system (copyright 1990, Gaussian, Inc.),
 the Gaussian 88(TM) system (copyright 1988, Gaussian, Inc.),
 the Gaussian 86(TM) system (copyright 1986, Carnegie Mellon
 University), and the Gaussian 82(TM) system (copyright 1983,
 Carnegie Mellon University). Gaussian is a federally registered
 trademark of Gaussian, Inc.
  
 This software contains proprietary and confidential information,
 including trade secrets, belonging to Gaussian, Inc.
  
 This software is provided under written license and may be
 used, copied, transmitted, or stored only in accord with that
 written license.
  
 The following legend is applicable only to US Government
 contracts under FAR:
  
                    RESTRICTED RIGHTS LEGEND
  
 Use, reproduction and disclosure by the US Government is
 subject to restrictions as set forth in subparagraphs (a)
 and (c) of the Commercial Computer Software - Restricted
 Rights clause in FAR 52.227-19.
  
 Gaussian, Inc.
 340 Quinnipiac St., Bldg. 40, Wallingford CT 06492
  
  
 ---------------------------------------------------------------
 Warning -- This program may not be used in any manner that
 competes with the business of Gaussian, Inc. or will provide
 assistance to any competitor of Gaussian, Inc.  The licensee
 of this program is prohibited from giving any competitor of
 Gaussian, Inc. access to this program.  By using this program,
 the user acknowledges that Gaussian, Inc. is engaged in the
 business of creating and licensing software in the field of
 computational chemistry and represents and warrants to the
 licensee that it is not a competitor of Gaussian, Inc. and that
 it will not use this program in any manner prohibited above.
 ---------------------------------------------------------------
  

 Cite this work as:
 Gaussian 03, Revision D.01,
 M. J. Frisch, G. W. Trucks, H. B. Schlegel, G. E. Scuseria, 
 M. A. Robb, J. R. Cheeseman, J. A. Montgomery, Jr., T. Vreven, 
 K. N. Kudin, J. C. Burant, J. M. Millam, S. S. Iyengar, J. Tomasi, 
 V. Barone, B. Mennucci, M. Cossi, G. Scalmani, N. Rega, 
 G. A. Petersson, H. Nakatsuji, M. Hada, M. Ehara, K. Toyota, 
 R. Fukuda, J. Hasegawa, M. Ishida, T. Nakajima, Y. Honda, O. Kitao, 
 H. Nakai, M. Klene, X. Li, J. E. Knox, H. P. Hratchian, J. B. Cross, 
 V. Bakken, C. Adamo, J. Jaramillo, R. Gomperts, R. E. Stratmann, 
 O. Yazyev, A. J. Austin, R. Cammi, C. Pomelli, J. W. Ochterski, 
 P. Y. Ayala, K. Morokuma, G. A. Voth, P. Salvador, J. J. Dannenberg, 
 V. G. Zakrzewski, S. Dapprich, A. D. Daniels, M. C. Strain, 
 O. Farkas, D. K. Malick, A. D. Rabuck, K. Raghavachari, 
 J. B. Foresman, J. V. Ortiz, Q. Cui, A. G. Baboul, S. Clifford, 
 J. Cioslowski, B. B. Stefanov, G. Liu, A. Liashenko, P. Piskorz, 
 I. Komaromi, R. L. Martin, D. J. Fox, T. Keith, M. A. Al-Laham, 
 C. Y. Peng, A. Nanayakkara, M. Challacombe, P. M. W. Gill, 
 B. Johnson, W. Chen, M. W. Wong, C. Gonzalez, and J. A. Pople, 
 Gaussian, Inc., Wallingford CT, 2004.
 
 ******************************************
 Gaussian 03:  IA32W-G03RevD.01 13-Oct-2005
                28-Mar-2008 
 ******************************************
 --------------
 # opt dreiding
 --------------
 1/6=10,10=10,14=-1,18=4000020,38=1,56=1,64=1/1,3;
 2/9=110,17=6,18=5,40=1/2;
 3/5=30,11=9,16=1,25=1,30=1/1;
 4/20=9,22=1001,24=3/2;
 7/44=-1/16;
 1/6=10,10=10,14=-1,18=4000020,64=1/3(2);
 2/9=110/2;
 99//99;
 2/9=110/2;
 3/5=30,11=9,16=1,25=1,30=1/1;
 4/16=2,20=9,22=1001,24=3/2;
 7/44=-1/16;
 1/6=10,10=10,14=-1,18=4000020,64=1/3(-4);
 2/9=110/2;
 99//99;
 ------
 NAPA-b
 ------
 Symbolic Z-matrix:
 Charge =  0 Multiplicity = 1
 C                    -2.96999  -3.62071   0.35687 
 C                    -1.94199  -2.69171  -0.26113 
 O                    -1.57799  -2.84271  -1.40413 
 N                    -1.47699  -1.69071   0.56787 
 C                    -0.42499  -0.77471   0.16287 
 C                     0.83601  -1.03671   0.98787 
 O                     0.78801  -1.58771   2.06187 
 N                     2.02401  -0.58771   0.46787 
 H                    -3.86699  -3.04071   0.67287 
 H                    -2.53599  -4.13071   1.24787 
 H                    -3.29599  -4.40171  -0.36713 
 C                    -0.91599   0.67529   0.32087 
 H                    -0.14999  -0.95271  -0.90413 
 H                     2.87001  -0.75371   1.01687 
 H                    -1.81999  -1.68371   1.53187 
 H                     2.05001  -0.12071  -0.43913 
 C                     0.10101   1.68729  -0.15613 
 C                     0.84901   2.44529   0.75287 
 C                     0.31401   1.88829  -1.52513 
 C                     1.25401   2.81729  -1.97713 
 C                     1.78901   3.37529   0.30787 
 C                     1.99501   3.56329  -1.05913 
 H                    -1.18199   0.86229   1.38687 
 H                    -1.85499   0.81729  -0.26413 
 H                     0.70401   2.30529   1.83687 
 H                    -0.26299   1.30429  -2.26013 
 H                     1.41201   2.96029  -3.05913 
 H                     2.37401   3.96129   1.03787 
 H                     2.73901   4.29629  -1.41313 
 
 I=    8 IAn=  7 Valence=33.
          JB=  1 J=    6 IAn=  6 IBT=11 Dist= 1.37D+00
          JB=  2 J=   14 IAn=  1 IBT= 1 Dist= 1.02D+00
          JB=  3 J=   16 IAn=  1 IBT= 1 Dist= 1.02D+00
 I=   18 IAn=  6 Valence=36.
          JB=  1 J=   17 IAn=  6 IBT=12 Dist= 1.40D+00
          JB=  2 J=   21 IAn=  6 IBT=12 Dist= 1.40D+00
          JB=  3 J=   25 IAn=  1 IBT= 1 Dist= 1.10D+00
 I=   19 IAn=  6 Valence=36.
          JB=  1 J=   17 IAn=  6 IBT=12 Dist= 1.40D+00
          JB=  2 J=   20 IAn=  6 IBT=12 Dist= 1.40D+00
          JB=  3 J=   26 IAn=  1 IBT= 1 Dist= 1.10D+00
 I=   20 IAn=  6 Valence=36.
          JB=  1 J=   19 IAn=  6 IBT=12 Dist= 1.40D+00
          JB=  2 J=   22 IAn=  6 IBT=12 Dist= 1.40D+00
          JB=  3 J=   27 IAn=  1 IBT= 1 Dist= 1.10D+00
 I=   21 IAn=  6 Valence=36.
          JB=  1 J=   18 IAn=  6 IBT=12 Dist= 1.40D+00
          JB=  2 J=   22 IAn=  6 IBT=12 Dist= 1.40D+00
          JB=  3 J=   28 IAn=  1 IBT= 1 Dist= 1.10D+00
 I=   22 IAn=  6 Valence=36.
          JB=  1 J=   20 IAn=  6 IBT=12 Dist= 1.40D+00
          JB=  2 J=   21 IAn=  6 IBT=12 Dist= 1.40D+00
          JB=  3 J=   29 IAn=  1 IBT= 1 Dist= 1.10D+00
 Include all MM classes
 MMInit generated parameter data with length LenPar=  2724.

 GradGradGradGradGradGradGradGradGradGradGradGradGradGradGradGradGradGrad
 Berny optimization.
 Initialization pass.
 No Z-matrix variables, so optimization will use Cartesian coordinates.
 Trust Radius=1.00D-01 FncErr=1.00D-07 GrdErr=1.00D-07
 Number of steps in this run=   2 maximum allowed number of steps=   2.
 GradGradGradGradGradGradGradGradGradGradGradGradGradGradGradGradGradGrad

                          Input orientation:                          
 ---------------------------------------------------------------------
 Center     Atomic     Atomic              Coordinates (Angstroms)
 Number     Number      Type              X           Y           Z
 ---------------------------------------------------------------------
    1          6      10061003       -2.969991   -3.620709    0.356873
    2          6      10061002       -1.941991   -2.691709   -0.261127
    3          8      10081002       -1.577991   -2.842709   -1.404127
    4          7      10071000       -1.476991   -1.690709    0.567873
    5          6      10061003       -0.424991   -0.774709    0.162873
    6          6      10061002        0.836009   -1.036709    0.987873
    7          8      10081002        0.788009   -1.587709    2.061873
    8          7      10071000        2.024009   -0.587709    0.467873
    9          1      10011000       -3.866991   -3.040709    0.672873
   10          1      10011000       -2.535991   -4.130709    1.247873
   11          1      10011000       -3.295991   -4.401709   -0.367127
   12          6      10061003       -0.915991    0.675291    0.320873
   13          1      10011000       -0.149991   -0.952709   -0.904127
   14          1      10011000        2.870009   -0.753709    1.016873
   15          1      10011000       -1.819991   -1.683709    1.531873
   16          1      10011000        2.050009   -0.120709   -0.439127
   17          6      10061000        0.101009    1.687291   -0.156127
   18          6      10061000        0.849009    2.445291    0.752873
   19          6      10061000        0.314009    1.888291   -1.525127
   20          6      10061000        1.254009    2.817291   -1.977127
   21          6      10061000        1.789009    3.375291    0.307873
   22          6      10061000        1.995009    3.563291   -1.059127
   23          1      10011000       -1.181991    0.862291    1.386873
   24          1      10011000       -1.854991    0.817291   -0.264127
   25          1      10011000        0.704009    2.305291    1.836873
   26          1      10011000       -0.262991    1.304291   -2.260127
   27          1      10011000        1.412009    2.960291   -3.059127
   28          1      10011000        2.374009    3.961291    1.037873
   29          1      10011000        2.739009    4.296291   -1.413127
 ---------------------------------------------------------------------
                    Distance matrix (angstroms):
                    1          2          3          4          5
     1  C    0.000000
     2  C    1.517152   0.000000
     3  O    2.375725   1.209027   0.000000
     4  N    2.449177   1.380387   2.286064   0.000000
     5  C    3.822875   2.481120   2.839282   1.452510   0.000000
     6  C    4.643367   3.466455   3.848467   2.440099   1.529506
     7  O    4.600291   3.750739   4.380198   2.715303   2.395525
     8  N    5.843924   4.548342   4.643685   3.672004   2.474994
     9  H    1.113941   2.167898   3.097201   2.746930   4.152375
    10  H    1.114602   2.168095   3.099970   2.745447   4.110509
    11  H    1.113738   2.183724   2.541136   3.395955   4.656036
    12  C    4.761914   3.567645   3.973688   2.444113   1.539008
    13  H    4.081758   2.578533   2.421009   2.114795   1.116153
    14  H    6.539181   5.342703   5.478126   4.469450   3.403936
    15  H    2.540688   2.060533   3.165745   1.023227   2.155567
    16  H    6.171225   4.751609   4.637121   3.989822   2.629780
    17  C    6.153785   4.833272   4.989734   3.798045   2.537692
    18  C    7.178992   5.933519   6.205314   4.748789   3.512773
    19  C    6.683985   5.259623   5.096731   4.516367   3.238369
    20  C    8.045966   6.596071   6.354853   5.852986   4.505675
    21  C    8.461353   7.145111   7.275380   6.033135   4.705882
    22  C    8.846815   7.433828   7.343173   6.504339   5.115460
    23  H    4.935092   3.990541   4.655483   2.697331   2.179677
    24  H    4.617869   3.510080   3.843427   2.669302   2.182130
    25  H    7.127843   6.030997   6.497192   4.726007   3.682841
    26  H    6.199368   4.773160   4.433911   4.294346   3.196782
    27  H    8.612813   7.143054   6.734533   6.567591   5.263656
    28  H    9.301012   8.036023   8.238694   6.855378   5.570433
    29  H    9.919903   8.489465   8.342775   7.585723   6.181401
                    6          7          8          9         10
     6  C    0.000000
     7  O    1.208048   0.000000
     8  N    1.372350   2.251340   0.000000
     9  H    5.121860   5.070459   6.384600   0.000000
    10  H    4.583756   4.263616   5.827079   1.813915   0.000000
    11  H    5.498425   5.522472   6.598956   1.805536   1.805344
    12  C    2.538767   3.325036   3.203182   4.758252   5.155712
    13  H    2.135162   3.174937   2.596514   4.545631   4.519268
    14  H    2.053798   2.474329   1.022092   7.122912   6.378270
    15  H    2.787271   2.663040   4.136381   2.601834   2.565370
    16  H    2.085469   3.162236   1.020497   6.691325   6.321192
    17  C    3.044526   4.014613   3.043506   6.227861   6.540192
    18  C    3.489945   4.240553   3.265109   7.234864   7.412626
    19  C    3.891436   5.017352   3.609255   6.826932   7.213903
    20  C    4.880498   5.994556   4.262036   8.219690   8.546311
    21  C    4.564685   5.358161   3.973184   8.560877   8.713740
    22  C    5.166574   6.142499   4.423050   8.998649   9.222247
    23  H    2.799594   3.215435   3.636688   4.790869   5.175199
    24  H    3.499472   4.263772   4.190047   4.450874   5.218487
    25  H    3.450679   3.900401   3.462082   7.129422   7.229565
    26  H    4.151817   5.305464   4.031379   6.361630   6.856516
    27  H    5.717167   6.877377   5.040097   8.820865   9.187994
    28  H    5.229527   5.861346   4.597913   9.386762   9.467453
    29  H    6.150374   7.106580   5.282314  10.090699  10.291787
                   11         12         13         14         15
    11  H    0.000000
    12  C    5.649219   0.000000
    13  H    4.699073   2.176641   0.000000
    14  H    7.296774   4.106124   3.584723   0.000000
    15  H    3.629366   2.801539   3.042591   4.808973   0.000000
    16  H    6.849223   3.163601   2.397592   1.786904   4.615703
    17  C    6.975676   1.511940   2.755377   3.873212   4.231220
    18  C    8.081883   2.536681   3.910250   3.793117   4.977855
    19  C    7.344193   2.528238   2.944863   4.469347   5.163176
    20  C    8.683810   3.818097   4.163586   4.932295   6.482404
    21  C    9.316361   3.821936   4.894921   4.326648   6.333762
    22  C    9.587219   4.326530   5.001930   4.869486   6.985593
    23  H    5.937610   1.114487   3.099666   4.378020   2.628723
    24  H    5.415261   1.115397   2.539592   5.141462   3.079260
    25  H    8.114275   2.753099   4.342460   3.836852   4.730298
    26  H    6.733571   2.735619   2.635442   4.978934   5.072638
    27  H    9.143914   4.697362   4.732382   5.703800   7.286278
    28  H   10.201112   4.704889   5.855710   4.741063   7.049801
    29  H   10.638165   5.429311   6.013103   5.605761   8.075760
                   16         17         18         19         20
    16  H    0.000000
    17  C    2.673491   0.000000
    18  C    3.073698   1.400125   0.000000
    19  C    2.868654   1.399975   2.405360   0.000000
    20  C    3.410411   2.433588   2.784836   1.396762   0.000000
    21  C    3.584431   2.431868   1.395179   2.783286   2.412222
    22  C    3.736212   2.814608   2.417971   2.418376   1.395823
    23  H    3.840103   2.169692   2.651944   3.430807   4.590492
    24  H    4.019887   2.143478   3.316065   2.727952   4.074340
    25  H    3.588505   2.172000   1.102579   3.410137   3.887318
    26  H    3.270571   2.169332   3.408312   1.101912   2.161145
    27  H    4.094387   3.430256   3.887613   2.169780   1.102786
    28  H    4.353071   3.429758   2.169126   3.887145   3.413702
    29  H    4.575291   3.917394   3.419043   3.419303   2.170429
                   21         22         23         24         25
    21  C    0.000000
    22  C    1.395159   0.000000
    23  H    4.038100   4.834423   0.000000
    24  H    4.488795   4.795314   1.783467   0.000000
    25  H    2.158695   3.411167   2.416970   3.629990   0.000000
    26  H    3.885147   3.412337   3.786890   2.599163   4.326950
    27  H    3.413362   2.168755   5.558539   4.803932   4.990101
    28  H    1.103866   2.167822   4.729771   5.428110   2.483875
    29  H    2.170848   1.102788   5.916637   5.876094   4.320626
                   26         27         28         29
    26  H    0.000000
    27  H    2.487240   0.000000
    28  H    4.989010   4.325836   0.000000
    29  H    4.322207   2.501028   2.500570   0.000000
 Stoichiometry    C11H14N2O2
 Framework group  C1[X(C11H14N2O2)]
 Deg. of freedom    81
 Full point group                 C1
 Largest Abelian subgroup         C1      NOp   1
 Largest concise Abelian subgroup C1      NOp   1
                         Standard orientation:                         
 ---------------------------------------------------------------------
 Center     Atomic     Atomic              Coordinates (Angstroms)
 Number     Number      Type              X           Y           Z
 ---------------------------------------------------------------------
    1          6      10061003       -4.635459   -0.566470   -0.499372
    2          6      10061002       -3.252447   -0.703195    0.109178
    3          8      10081002       -3.068567   -1.400184    1.079818
    4          7      10071000       -2.255664    0.011849   -0.523754
    5          6      10061003       -0.896117    0.063758   -0.015106
    6          6      10061002       -0.582428    1.475926    0.481654
    7          8      10081002       -1.201783    2.437272    0.092303
    8          7      10071000        0.458089    1.607169    1.366779
    9          1      10011000       -4.624346   -0.921521   -1.555156
   10          1      10011000       -4.956894    0.500590   -0.479378
   11          1      10011000       -5.385875   -1.166925    0.063428
   12          6      10061003        0.082732   -0.381547   -1.116062
   13          1      10011000       -0.788734   -0.614409    0.864869
   14          1      10011000        0.677436    2.548883    1.698038
   15          1      10011000       -2.532006    0.605431   -1.310067
   16          1      10011000        0.975282    0.787025    1.685039
   17          6      10061000        1.515266   -0.427379   -0.634701
   18          6      10061000        2.436535    0.558124   -1.009393
   19          6      10061000        1.951045   -1.464284    0.198880
   20          6      10061000        3.270920   -1.514319    0.653162
   21          6      10061000        3.756467    0.513557   -0.559594
   22          6      10061000        4.177359   -0.522800    0.274242
   23          1      10011000       -0.012304    0.298818   -1.993645
   24          1      10011000       -0.199738   -1.398119   -1.477866
   25          1      10011000        2.119771    1.388025   -1.662544
   26          1      10011000        1.244865   -2.252069    0.506961
   27          1      10011000        3.596550   -2.336141    1.312488
   28          1      10011000        4.468947    1.301227   -0.860375
   29          1      10011000        5.219630   -0.558873    0.632727
 ---------------------------------------------------------------------
 Rotational constants (GHZ):      1.2245762      0.3221241      0.2901154
 Standard basis: Dummy (5D, 7F)
 There are    29 symmetry adapted basis functions of A   symmetry.
 Integral buffers will be    262144 words long.
 Raffenetti 1 integral format.
 Two-electron integral symmetry is turned on.
    29 basis functions,    29 primitive gaussians,    29 cartesian basis functions
    21 alpha electrons       21 beta electrons
       nuclear repulsion energy       137.7794868580 Hartrees.
 NAtoms=   29 NActive=   29 NUniq=   29 SFac= 7.50D-01 NAtFMM=   80 NAOKFM=F Big=F
 Dreiding calculation of energy and first derivatives.
 MO and density RWFs will be updated without deorthogonalization.
 NRF= 0 NRA=   0 NVA=  29 HaveQM=F
 Convergence limit is  0.750E-04 MaxStp=  5000 StMxLn= 1.00D-04 StpMin= 1.00D-06.
 Convergence criteria           0.00011250 0.00007500 0.00045000 0.00030000
  Step  NS  ND Rises OKQ   Scale  Max. Force  RMS Force Max. Disp.  RMS Disp.     Energy   Flag
     1   0   0   F    T  1.00D+00 0.06548246 0.02369587 0.06548246 0.02369587    0.0899431 ----
     2   0   0   F    F -4.32D-02 0.06548246 0.02369587 0.06548246 0.02369587    0.0666580 ----
     3   0   0   F    T  2.17D+00 0.02883903 0.00965842 0.03302006 0.01042992    0.0666106 ----
     4   0   0   F    F -5.62D-02 0.02883903 0.00965842 0.07177573 0.02267152    0.0583194 ----
     5   0   0   F    T  1.84D+00 0.02465574 0.00846087 0.03411904 0.01164909    0.0582900 ----
     6   0   0   F    F -2.91D-01 0.02465574 0.00846087 0.06267290 0.02139808    0.0549235 ----
     7   0   0   F    T  4.07D+00 0.01438249 0.00328540 0.01103964 0.00372807    0.0542384 ----
     8   0   0   T    F  2.80D-01 0.01438249 0.00328540 0.04489557 0.01516116    0.0572560 ----
     9   0   0   F    T  1.30D+00 0.00953951 0.00248044 0.00787658 0.00326731    0.0537043 ----
    10   0   0   F    F  1.77D-01 0.00953951 0.00248044 0.01022037 0.00423955    0.0533049 ----
    11   0   0   F    T  2.06D+00 0.00605185 0.00176670 0.00635071 0.00242503    0.0532956 ----
    12   0   0   F    F  1.25D-01 0.00605185 0.00176670 0.01307198 0.00499157    0.0529852 ----
    13   0   0   F    T  3.58D+00 0.00262227 0.00116387 0.00511392 0.00156975    0.0529814 ----
    14   0   0   F    F -9.52D-02 0.00262227 0.00116387 0.01829226 0.00561493    0.0527927 ----
    15   0   0   F    T  2.19D+00 0.00368293 0.00128992 0.00776549 0.00231674    0.0527906 ----
    16   0   0   F    F -8.02D-02 0.00368293 0.00128992 0.01702915 0.00508044    0.0526457 ----
    17   0   0   F    T  2.06D+00 0.00409122 0.00117925 0.00869100 0.00226603    0.0526446 ----
    18   0   0   F    F -3.00D-01 0.00409122 0.00117925 0.01792167 0.00467277    0.0525734 ----
    19   0   0   F    T  1.80D+00 0.00286914 0.00097021 0.00797826 0.00181397    0.0525573 ----
    20   0   0   F    F  6.97D-02 0.00286914 0.00097021 0.01437762 0.00326895    0.0524787 ----
    21   0   0   F    T  1.35D+00 0.00346773 0.00110491 0.01177777 0.00259944    0.0524784 ----
    22   0   0   F    F  6.16D-01 0.00346773 0.00110491 0.01584399 0.00349688    0.0523798 ----
    23   0   0   F    T  3.45D+00 0.00257666 0.00081454 0.00700188 0.00163800    0.0523630 ----
    24   0   0   F    F -1.36D-01 0.00257666 0.00081454 0.02416113 0.00565218    0.0522792 ----
    25   0   0   F    T  2.16D+00 0.00263202 0.00091464 0.01005460 0.00226558    0.0522771 ----
    26   0   0   F    F  2.20D-02 0.00263202 0.00091464 0.02166825 0.00488245    0.0521970 ----
    27   0   0   F    T  1.80D+00 0.00321379 0.00097768 0.01277012 0.00277530    0.0521970 ----
    28   0   0   F    F -1.27D-01 0.00321379 0.00097768 0.02296116 0.00499009    0.0521331 ----
    29   0   0   F    T  1.93D+00 0.00274626 0.00084708 0.01053086 0.00225855    0.0521318 ----
    30   0   0   F    F -1.36D-01 0.00274626 0.00084708 0.02031280 0.00435648    0.0520810 ----
    31   0   0   F    T  2.54D+00 0.00270035 0.00065057 0.00685526 0.00148112    0.0520797 ----
    32   0   0   F    F -3.83D-02 0.00270035 0.00065057 0.01741959 0.00376361    0.0520348 ----
    33   0   0   F    T  1.87D+00 0.00231172 0.00071629 0.00879334 0.00193191    0.0520347 ----
    34   0   0   F    F  1.98D-01 0.00231172 0.00071629 0.01647487 0.00361955    0.0519860 ----
    35   0   0   F    T  2.53D+00 0.00216219 0.00064929 0.00726419 0.00171514    0.0519846 ----
    36   0   0   F    F  8.03D-02 0.00216219 0.00064929 0.01836935 0.00433717    0.0519348 ----
    37   0   0   F    T  1.96D+00 0.00200080 0.00074601 0.00931291 0.00238688    0.0519346 ----
    38   0   0   F    F  1.74D-01 0.00200080 0.00074601 0.01828049 0.00468525    0.0518800 ----
    39   0   0   F    T  1.30D+00 0.00419451 0.00097840 0.01556566 0.00422691    0.0518788 ----
    40   0   0   F    F  2.25D-01 0.00419451 0.00097840 0.02025655 0.00550074    0.0518147 ----
    41   0   0   F    T  3.53D+00 0.00210811 0.00063733 0.00757050 0.00191093    0.0518124 ----
    42   0   0   F    F -2.07D-01 0.00210811 0.00063733 0.02669137 0.00673737    0.0517664 ----
    43   0   0   F    T  2.53D+00 0.00170241 0.00065217 0.00847597 0.00210977    0.0517631 ----
    44   0   0   F    F -1.20D-01 0.00170241 0.00065217 0.02146503 0.00534291    0.0517226 ----
    45   0   0   F    T  2.01D+00 0.00192389 0.00067174 0.00940034 0.00233997    0.0517218 ----
    46   0   0   F    F -1.19D-01 0.00192389 0.00067174 0.01888875 0.00470186    0.0516877 ----
    47   0   0   F    T  2.22D+00 0.00245490 0.00058388 0.00749988 0.00186384    0.0516871 ----
    48   0   0   F    F -3.76D-01 0.00245490 0.00058388 0.01666781 0.00414222    0.0516740 ----
    49   0   0   F    T  1.80D+00 0.00196715 0.00049606 0.00583391 0.00143470    0.0516666 ----
    50   0   0   F    F  1.60D-01 0.00196715 0.00049606 0.01050324 0.00258299    0.0516446 ----
    51   0   0   F    T  2.52D+00 0.00145259 0.00043576 0.00484657 0.00119005    0.0516442 ----
    52   0   0   F    F  7.10D-02 0.00145259 0.00043576 0.01220626 0.00299718    0.0516220 ----
    53   0   0   F    T  2.61D+00 0.00145302 0.00042884 0.00465793 0.00123096    0.0516219 ----
    54   0   0   F    F -9.34D-03 0.00145302 0.00042884 0.01214655 0.00321000    0.0516013 ----
    55   0   0   F    T  2.48D+00 0.00131207 0.00042450 0.00443801 0.00127978    0.0516013 ----
    56   0   0   F    F -1.62D-01 0.00131207 0.00042450 0.01102764 0.00318001    0.0515855 ----
    57   0   0   F    T  2.01D+00 0.00157810 0.00042062 0.00404595 0.00132571    0.0515849 ----
    58   0   0   F    F  2.53D-01 0.00157810 0.00042062 0.00813676 0.00266611    0.0515663 ----
    59   0   0   F    T  2.33D+00 0.00118993 0.00042684 0.00466797 0.00143068    0.0515655 ----
    60   0   0   F    F -3.05D-01 0.00118993 0.00042684 0.01089608 0.00333953    0.0515551 ----
    61   0   0   F    T  1.56D+00 0.00126646 0.00042585 0.00496970 0.00148512    0.0515527 ----
    62   0   0   F    F  1.10D-01 0.00126646 0.00042585 0.00776764 0.00232124    0.0515391 ----
    63   0   0   F    T  2.85D+00 0.00086325 0.00032085 0.00309288 0.00090238    0.0515390 ----
    64   0   0   F    F  4.87D-01 0.00086325 0.00032085 0.00882845 0.00257578    0.0515220 ----
    65   0   0   F    T  2.85D+00 0.00108661 0.00038338 0.00406570 0.00134532    0.0515200 ----
    66   0   0   F    F  2.74D-01 0.00108661 0.00038338 0.01157290 0.00382941    0.0514979 ----
    67   0   0   F    T  3.09D+00 0.00118069 0.00040823 0.00474185 0.00157989    0.0514968 ----
    68   0   0   F    F -3.60D-01 0.00118069 0.00040823 0.01463957 0.00487762    0.0514870 ----
    69   0   0   F    T  1.61D+00 0.00121740 0.00044551 0.00583396 0.00193994    0.0514825 ----
    70   0   0   F    F  4.93D-01 0.00121740 0.00044551 0.00939136 0.00312286    0.0514640 ----
    71   0   0   F    T  1.13D+00 0.00230959 0.00064391 0.01218625 0.00411728    0.0514618 ----
    72   0   0   F    F  1.33D+00 0.00230959 0.00064391 0.01380013 0.00466255    0.0514295 ----
    73   0   0   F    T  3.10D+00 0.00240571 0.00059652 0.01051818 0.00350579    0.0514137 ----
    74   0   0   F    F -4.77D-01 0.00240571 0.00059652 0.03262640 0.01087463    0.0514092 ----
    75   0   0   F    T  1.90D+00 0.00197842 0.00054561 0.00929833 0.00299652    0.0513887 ----
    76   0   0   F    F  1.02D+00 0.00197842 0.00054561 0.01765253 0.00568878    0.0513515 ----
    77   0   0   F    T  1.92D+00 0.00229488 0.00076699 0.01836832 0.00598783    0.0513387 ----
    78   0   0   F    F  1.62D-01 0.00229488 0.00076699 0.03517977 0.01146813    0.0512830 ----
    79   0   0   F    T  2.38D+00 0.00253450 0.00075272 0.01788867 0.00559782    0.0512819 ----
    80   0   0   T    F  4.88D-01 0.00253450 0.00075272 0.04258394 0.01332559    0.0512845 ----
    81   0   0   F    T  1.90D+00 0.00184944 0.00057926 0.01145455 0.00342614    0.0512534 ----
    82   0   0   F    F  1.35D+00 0.00184944 0.00057926 0.02172413 0.00649784    0.0512098 ----
    83   0   0   F    F -5.77D-03 0.00184944 0.00057926 0.02929498 0.00876233    0.0511884 ----
    84   0   0   F    T  2.43D+00 0.00226111 0.00077254 0.02121917 0.00626523    0.0511884 ----
    85   0   0   F    F  1.80D-01 0.00226111 0.00077254 0.05151216 0.01520961    0.0511149 ----
    86   0   0   F    T  3.17D+00 0.00233656 0.00074959 0.02001227 0.00566433    0.0511131 ----
    87   0   0   F    F -2.57D-01 0.00233656 0.00074959 0.06342497 0.01795198    0.0510626 ----
    88   0   0   F    T  1.00D+00 0.00524560 0.00117914 0.04936105 0.01396264    0.0510557 ----
    89   0   0   F    F  2.13D+00 0.00524560 0.00117914 0.04936105 0.01396264    0.0509514 ----
    90   0   0   F    F -7.97D-02 0.00524560 0.00117914 0.10507347 0.02972188    0.0508612 ----
    91   0   0   F    F -1.25D-02 0.00524560 0.00117914 0.00837245 0.00236830    0.0508604 ----
    92   0   0   F    T  2.93D+00 0.00501051 0.00128267 0.05045816 0.01412353    0.0508604 ----
    93   0   0   T    F  5.10D-01 0.00501051 0.00128267 0.14771314 0.04134575    0.0508626 ----
    94   0   0   F    T  3.44D+00 0.00303944 0.00101079 0.02285546 0.00612871    0.0507510 ----
    95   0   0   F    F -2.17D-01 0.00303944 0.00101079 0.07869717 0.02110270    0.0506415 ----
    96   0   0   F    T  1.74D+00 0.00521568 0.00124644 0.03425758 0.00948707    0.0506326 ----
    97   0   0   F    F  4.99D-02 0.00521568 0.00124644 0.05965097 0.01651936    0.0505078 ----
    98   0   0   F    T  2.44D+00 0.00350498 0.00107273 0.02555266 0.00710054    0.0505075 ----
    99   0   0   F    F -1.79D-01 0.00350498 0.00107273 0.06241514 0.01734383    0.0504116 ----
   100   0   0   F    T  1.54D+00 0.00530206 0.00124090 0.03354069 0.00927252    0.0504068 ----
   101   0   0   F    F  1.69D-01 0.00530206 0.00124090 0.05148916 0.01423448    0.0502901 ----
   102   0   0   F    T  2.38D+00 0.00296767 0.00106146 0.02438601 0.00698921    0.0502877 ----
   103   0   0   F    F  1.46D-01 0.00296767 0.00106146 0.05805967 0.01664033    0.0501561 ----
   104   0   0   F    T  2.60D+00 0.00316060 0.00106309 0.02566086 0.00733006    0.0501539 ----
   105   0   0   F    F -1.34D-01 0.00316060 0.00106309 0.06677914 0.01907555    0.0500464 ----
   106   0   0   F    T  1.83D+00 0.00379925 0.00116280 0.03150192 0.00901894    0.0500439 ----
   107   0   0   F    F  3.15D-01 0.00379925 0.00116280 0.05772046 0.01652527    0.0499096 ----
   108   0   0   F    T  2.28D+00 0.00350665 0.00118384 0.03268127 0.00952173    0.0499013 ----
   109   0   0   F    F -3.63D-01 0.00350665 0.00118384 0.07459752 0.02173410    0.0498417 ----
   110   0   0   F    T  1.80D+00 0.00435980 0.00108140 0.02573067 0.00767361    0.0498122 ----
   111   0   0   F    F  1.12D-01 0.00435980 0.00108140 0.04642060 0.01384392    0.0497109 ----
   112   0   0   F    T  2.48D+00 0.00279431 0.00097943 0.02065646 0.00620120    0.0497099 ----
   113   0   0   F    F  6.28D-02 0.00279431 0.00097943 0.05126420 0.01538982    0.0496004 ----
   114   0   0   F    T  3.06D+00 0.00278809 0.00090631 0.01842927 0.00533994    0.0496000 ----
   115   0   0   F    F -4.69D-01 0.00278809 0.00090631 0.05644859 0.01635617    0.0495872 ----
   116   0   0   F    T  2.11D+00 0.00239449 0.00078836 0.01483423 0.00411758    0.0495419 ----
   117   0   0   F    F -1.62D-01 0.00239449 0.00078836 0.03130462 0.00868930    0.0494958 ----
   118   0   0   F    T  1.62D+00 0.00299590 0.00081677 0.01650058 0.00449317    0.0494940 ----
   119   0   0   F    F  2.79D-01 0.00299590 0.00081677 0.02675319 0.00728500    0.0494368 ----
   120   0   0   F    T  3.24D+00 0.00173161 0.00064396 0.01060137 0.00287607    0.0494339 ----
   121   0   0   T    F  4.70D-01 0.00173161 0.00064396 0.03433713 0.00931540    0.0494415 ----
   122   0   0   F    T  2.32D+00 0.00146077 0.00051065 0.00693067 0.00188234    0.0494065 ----
   123   0   0   F    F  3.79D-01 0.00146077 0.00051065 0.01610853 0.00437502    0.0493729 ----
   124   0   0   F    T  2.58D+00 0.00194483 0.00056130 0.00832639 0.00234030    0.0493701 ----
   125   0   0   F    F -2.46D-01 0.00194483 0.00056130 0.02146930 0.00603438    0.0493463 ----
   126   0   0   F    T  1.87D+00 0.00248155 0.00056516 0.00832591 0.00243519    0.0493434 ----
   127   0   0   F    F -1.34D-01 0.00248155 0.00056516 0.01556039 0.00455115    0.0493215 ----
   128   0   0   F    T  1.84D+00 0.00145412 0.00052155 0.00706267 0.00213800    0.0493210 ----
   129   0   0   F    F  2.22D-01 0.00145412 0.00052155 0.01302642 0.00394335    0.0492952 ----
   130   0   0   F    T  2.14D+00 0.00126240 0.00052776 0.00737476 0.00225575    0.0492943 ----
   131   0   0   F    F -5.45D-02 0.00126240 0.00052776 0.01574787 0.00481687    0.0492699 ----
   132   0   0   F    T  2.28D+00 0.00109848 0.00048950 0.00660454 0.00200026    0.0492698 ----
   133   0   0   F    F  2.24D-01 0.00109848 0.00048950 0.01503804 0.00455444    0.0492417 ----
   134   0   0   F    T  2.02D+00 0.00165589 0.00056889 0.00917956 0.00275971    0.0492408 ----
   135   0   0   F    F -1.79D-02 0.00165589 0.00056889 0.01854684 0.00557585    0.0492128 ----
   136   0   0   F    T  1.57D+00 0.00246275 0.00063360 0.01170567 0.00347815    0.0492128 ----
   137   0   0   F    F  1.81D-02 0.00246275 0.00063360 0.01842862 0.00547577    0.0491849 ----
   138   0   0   F    T  2.39D+00 0.00158362 0.00051182 0.00848616 0.00233258    0.0491849 ----
   139   0   0   F    F  2.95D-01 0.00158362 0.00051182 0.02028193 0.00557487    0.0491515 ----
   140   0   0   F    T  2.09D+00 0.00173857 0.00061619 0.01300361 0.00345347    0.0491496 ----
   141   0   0   F    F  5.76D-02 0.00173857 0.00061619 0.02719426 0.00722220    0.0491132 ----
   142   0   0   F    T  2.52D+00 0.00150930 0.00056962 0.01164578 0.00302996    0.0491131 ----
   143   0   0   F    F -3.26D-01 0.00150930 0.00056962 0.02935685 0.00763796    0.0490947 ----
   144   0   0   F    T  2.60D+00 0.00128250 0.00045522 0.00786046 0.00198404    0.0490891 ----
   145   0   0   F    F -2.13D-01 0.00128250 0.00045522 0.02040587 0.00515060    0.0490721 ----
   146   0   0   F    T  1.28D+00 0.00196659 0.00056978 0.01275694 0.00315490    0.0490707 ----
   147   0   0   F    F  9.73D-01 0.00196659 0.00056978 0.01638114 0.00405119    0.0490436 ----
   148   0   0   F    T  2.28D+00 0.00154136 0.00059705 0.01438176 0.00349794    0.0490349 ----
   149   0   0   F    F -2.28D-01 0.00154136 0.00059705 0.03286098 0.00799246    0.0490100 ----
   150   0   0   F    T  3.20D+00 0.00141345 0.00043748 0.00790957 0.00192469    0.0490076 ----
   151   0   0   F    F -1.61D-01 0.00141345 0.00043748 0.02534234 0.00616674    0.0489861 ----
   152   0   0   F    T  1.92D+00 0.00170044 0.00051089 0.01094476 0.00268951    0.0489853 ----
   153   0   0   F    F -1.12D-01 0.00170044 0.00051089 0.02104865 0.00517238    0.0489662 ----
   154   0   0   F    T  2.05D+00 0.00131895 0.00045963 0.00891632 0.00223880    0.0489659 ----
   155   0   0   F    F -6.73D-02 0.00131895 0.00045963 0.01829550 0.00459381    0.0489484 ----
   156   0   0   F    T  1.58D+00 0.00144730 0.00050246 0.01048080 0.00271668    0.0489483 ----
   157   0   0   F    F  2.87D-01 0.00144730 0.00050246 0.01652979 0.00428462    0.0489271 ----
   158   0   0   F    T  2.73D+00 0.00113643 0.00042901 0.00763539 0.00201982    0.0489260 ----
   159   0   0   F    F  9.48D-03 0.00113643 0.00042901 0.02084762 0.00551491    0.0489039 ----
   160   0   0   F    T  3.42D+00 0.00108325 0.00037968 0.00595821 0.00162875    0.0489039 ----
   161   0   0   T    F  4.75D-01 0.00108325 0.00037968 0.02036567 0.00556720    0.0489062 ----
   162   0   0   F    T  2.17D+00 0.00097667 0.00032159 0.00440288 0.00121673    0.0488937 ----
   163   0   0   F    F -2.26D-01 0.00097667 0.00032159 0.00956599 0.00264356    0.0488868 ----
   164   0   0   F    T  1.69D+00 0.00136642 0.00031471 0.00429274 0.00120819    0.0488862 ----
   165   0   0   F    F  4.69D-01 0.00136642 0.00031471 0.00727354 0.00204715    0.0488765 ----
   166   0   0   F    T  1.85D+00 0.00101319 0.00036081 0.00568285 0.00162792    0.0488755 ----
   167   0   0   F    F  2.19D-02 0.00101319 0.00036081 0.01049469 0.00300633    0.0488648 ----
   168   0   0   F    T  2.93D+00 0.00104629 0.00028391 0.00345124 0.00104712    0.0488648 ----
   169   0   0   F    F -3.50D-01 0.00104629 0.00028391 0.01012585 0.00307222    0.0488600 ----
   170   0   0   F    T  2.63D+00 0.00055258 0.00023572 0.00246819 0.00075919    0.0488581 ----
   171   0   0   F    F  4.72D-02 0.00055258 0.00023572 0.00648901 0.00199596    0.0488514 ----
   172   0   0   F    T  1.79D+00 0.00087824 0.00028747 0.00375018 0.00116489    0.0488514 ----
   173   0   0   F    F  2.16D-02 0.00087824 0.00028747 0.00672867 0.00209008    0.0488448 ----
   174   0   0   F    T  1.47D+00 0.00096197 0.00031730 0.00462043 0.00145458    0.0488448 ----
   175   0   0   F    F  4.98D-01 0.00096197 0.00031730 0.00678282 0.00213532    0.0488363 ----
   176   0   0   F    T  2.15D+00 0.00119889 0.00031666 0.00459069 0.00148480    0.0488352 ----
   177   0   0   F    F  1.29D-01 0.00119889 0.00031666 0.00989061 0.00319898    0.0488247 ----
   178   0   0   F    T  2.39D+00 0.00100696 0.00031567 0.00446500 0.00150977    0.0488246 ----
   179   0   0   F    F -1.03D-01 0.00100696 0.00031567 0.01068060 0.00361148    0.0488154 ----
   180   0   0   F    T  2.12D+00 0.00103599 0.00031371 0.00444451 0.00152549    0.0488153 ----
   181   0   0   F    F  1.46D-01 0.00103599 0.00031371 0.00943773 0.00323931    0.0488051 ----
   182   0   0   F    T  1.66D+00 0.00170371 0.00037702 0.00663287 0.00223557    0.0488049 ----
   183   0   0   F    F -1.08D-01 0.00170371 0.00037702 0.01100990 0.00371083    0.0487959 ----
   184   0   0   F    T  2.06D+00 0.00082179 0.00031642 0.00486341 0.00160598    0.0487957 ----
   185   0   0   F    F  7.85D-01 0.00082179 0.00031642 0.01001970 0.00330867    0.0487828 ----
   186   0   0   F    T  1.78D+00 0.00127266 0.00045277 0.01021226 0.00332124    0.0487797 ----
   187   0   0   F    F  4.63D-01 0.00127266 0.00045277 0.01815605 0.00590473    0.0487588 ----
   188   0   0   F    T  2.84D+00 0.00117977 0.00043203 0.00958400 0.00304435    0.0487565 ----
   189   0   0   F    F -4.17D-01 0.00117977 0.00043203 0.02720233 0.00864080    0.0487499 ----
   190   0   0   F    T  2.46D+00 0.00108901 0.00035226 0.00669256 0.00204603    0.0487430 ----
   191   0   0   F    F  1.06D-01 0.00108901 0.00035226 0.01648637 0.00504015    0.0487285 ----
   192   0   0   F    T  1.55D+00 0.00177076 0.00046489 0.01191459 0.00359372    0.0487283 ----
   193   0   0   F    F  1.91D-01 0.00177076 0.00046489 0.01848594 0.00557579    0.0487114 ----
   194   0   0   F    T  1.78D+00 0.00188889 0.00047402 0.01240552 0.00373910    0.0487109 ----
   195   0   0   F    F  1.06D-01 0.00188889 0.00047402 0.02204046 0.00664313    0.0486919 ----
   196   0   0   F    T  2.32D+00 0.00108444 0.00043500 0.01046072 0.00316550    0.0486917 ----
   197   0   0   F    F  5.86D-01 0.00108444 0.00043500 0.02427491 0.00734579    0.0486656 ----
   198   0   0   F    T  2.42D+00 0.00159179 0.00053273 0.01611536 0.00481985    0.0486615 ----
   199   0   0   F    F -3.18D-01 0.00159179 0.00053273 0.03894313 0.01164729    0.0486456 ----
   200   0   0   F    T  2.26D+00 0.00155771 0.00045137 0.01193167 0.00350829    0.0486412 ----
   201   0   0   F    F -2.54D-01 0.00155771 0.00045137 0.02700701 0.00794093    0.0486279 ----
   202   0   0   F    T  1.71D+00 0.00168932 0.00044681 0.01189031 0.00346526    0.0486262 ----
   203   0   0   F    F  2.52D-01 0.00168932 0.00044681 0.02033971 0.00592772    0.0486083 ----
   204   0   0   F    T  2.17D+00 0.00128180 0.00044333 0.01178180 0.00342249    0.0486076 ----
   205   0   0   F    F -3.70D-02 0.00128180 0.00044333 0.02554503 0.00742057    0.0485898 ----
   206   0   0   F    T  2.61D+00 0.00104975 0.00039570 0.00947037 0.00273390    0.0485897 ----
   207   0   0   F    F  4.61D-01 0.00104975 0.00039570 0.02475486 0.00714621    0.0485664 ----
   208   0   0   F    T  2.06D+00 0.00159425 0.00053599 0.01749912 0.00505792    0.0485638 ----
   209   0   0   F    F -1.09D-01 0.00159425 0.00053599 0.03611455 0.01043850    0.0485412 ----
   210   0   0   F    T  2.32D+00 0.00153226 0.00047368 0.01381777 0.00401141    0.0485408 ----
   211   0   0   F    F -3.92D-01 0.00153226 0.00047368 0.03202229 0.00929633    0.0485328 ----
   212   0   0   F    T  2.36D+00 0.00105856 0.00036387 0.00818689 0.00239420    0.0485271 ----
   213   0   0   F    F -8.62D-03 0.00105856 0.00036387 0.01933683 0.00565493    0.0485136 ----
   214   0   0   F    T  1.41D+00 0.00124840 0.00046769 0.01350526 0.00399001    0.0485136 ----
   215   0   0   F    F  9.03D-01 0.00124840 0.00046769 0.01897574 0.00560621    0.0484939 ----
   216   0   0   F    T  3.14D+00 0.00127902 0.00042865 0.01115986 0.00339795    0.0484881 ----
   217   0   0   F    F -3.72D-01 0.00127902 0.00042865 0.03503714 0.01066810    0.0484779 ----
   218   0   0   F    T  3.12D+00 0.00105554 0.00033890 0.00681085 0.00215094    0.0484724 ----
   219   0   0   F    F -3.77D-01 0.00105554 0.00033890 0.02122346 0.00670261    0.0484662 ----
   220   0   0   F    T  1.57D+00 0.00137943 0.00037447 0.00828024 0.00265765    0.0484627 ----
   221   0   0   F    F  8.77D-02 0.00137943 0.00037447 0.01301137 0.00417617    0.0484523 ----
   222   0   0   F    T  2.36D+00 0.00119111 0.00031667 0.00595205 0.00192548    0.0484523 ----
   223   0   0   F    F -3.74D-01 0.00119111 0.00031667 0.01404181 0.00454251    0.0484481 ----
   224   0   0   F    T  3.14D+00 0.00075244 0.00021407 0.00276411 0.00090637    0.0484458 ----
   225   0   0   F    F -1.48D-01 0.00075244 0.00021407 0.00866691 0.00284194    0.0484406 ----
   226   0   0   F    T  1.76D+00 0.00086339 0.00026105 0.00411002 0.00137324    0.0484405 ----
   227   0   0   F    F  6.82D-01 0.00086339 0.00026105 0.00725004 0.00242239    0.0484331 ----
   228   0   0   F    T  3.23D+00 0.00071765 0.00024799 0.00362008 0.00126073    0.0484317 ----
   229   0   0   F    F -3.68D-01 0.00071765 0.00024799 0.01169621 0.00407334    0.0484281 ----
   230   0   0   F    T  1.51D+00 0.00103054 0.00028589 0.00472456 0.00170002    0.0484262 ----
   231   0   0   F    F  1.01D-01 0.00103054 0.00028589 0.00715214 0.00257354    0.0484204 ----
   232   0   0   F    T  2.28D+00 0.00093494 0.00024180 0.00325923 0.00124347    0.0484203 ----
   233   0   0   F    F  5.55D-02 0.00093494 0.00024180 0.00742507 0.00283283    0.0484142 ----
   234   0   0   F    T  2.05D+00 0.00078195 0.00026024 0.00387625 0.00146178    0.0484142 ----
   235   0   0   F    F -9.75D-02 0.00078195 0.00026024 0.00792865 0.00298998    0.0484088 ----
   236   0   0   F    T  2.48D+00 0.00052572 0.00022219 0.00270290 0.00108860    0.0484088 ----
   237   0   0   F    F  1.26D-01 0.00052572 0.00022219 0.00669991 0.00269841    0.0484028 ----
   238   0   0   F    T  2.50D+00 0.00092216 0.00023218 0.00306994 0.00121376    0.0484028 ----
   239   0   0   F    F -9.74D-02 0.00092216 0.00023218 0.00768415 0.00303808    0.0483975 ----
   240   0   0   F    T  1.67D+00 0.00092791 0.00026873 0.00412428 0.00164701    0.0483975 ----
   241   0   0   F    F  6.72D-02 0.00092791 0.00026873 0.00686704 0.00274232    0.0483919 ----
   242   0   0   F    T  1.55D+00 0.00081686 0.00028595 0.00450674 0.00188656    0.0483919 ----
   243   0   0   F    F  5.20D-01 0.00081686 0.00028595 0.00699134 0.00292664    0.0483845 ----
   244   0   0   F    T  2.53D+00 0.00097488 0.00027552 0.00425107 0.00176019    0.0483835 ----
   245   0   0   F    F -1.08D-01 0.00097488 0.00027552 0.01074634 0.00444960    0.0483761 ----
   246   0   0   F    T  2.29D+00 0.00090526 0.00027279 0.00440938 0.00173322    0.0483760 ----
   247   0   0   F    F  2.13D-01 0.00090526 0.00027279 0.01009929 0.00396978    0.0483673 ----
   248   0   0   F    T  1.83D+00 0.00146369 0.00033481 0.00724159 0.00263485    0.0483670 ----
   249   0   0   F    F  2.97D-01 0.00146369 0.00033481 0.01323519 0.00481563    0.0483561 ----
   250   0   0   F    T  1.84D+00 0.00116440 0.00037816 0.00970791 0.00339127    0.0483555 ----
   251   0   0   F    F -2.69D-01 0.00116440 0.00037816 0.01787592 0.00624461    0.0483482 ----
   252   0   0   F    T  2.44D+00 0.00070607 0.00027884 0.00568070 0.00186982    0.0483471 ----
   253   0   0   F    F  1.14D-01 0.00070607 0.00027884 0.01386505 0.00456371    0.0483380 ----
   254   0   0   F    T  2.50D+00 0.00093577 0.00028886 0.00661693 0.00203484    0.0483379 ----
   255   0   0   F    F -1.92D-01 0.00093577 0.00028886 0.01652980 0.00508325    0.0483310 ----
   256   0   0   F    T  2.20D+00 0.00073671 0.00027493 0.00639642 0.00186415    0.0483306 ----
   257   0   0   F    F  2.01D-01 0.00073671 0.00027493 0.01409086 0.00410659    0.0483222 ----
   258   0   0   F    T  2.01D+00 0.00084386 0.00031419 0.00857769 0.00245712    0.0483219 ----
   259   0   0   F    F  4.26D-01 0.00084386 0.00031419 0.01721593 0.00493158    0.0483107 ----
   260   0   0   F    T  2.10D+00 0.00159883 0.00036520 0.01177898 0.00334457    0.0483096 ----
   261   0   0   F    F -2.94D-01 0.00159883 0.00036520 0.02475997 0.00703045    0.0483025 ----
   262   0   0   F    T  1.76D+00 0.00090427 0.00033562 0.00985842 0.00281471    0.0483010 ----
   263   0   0   F    F -4.54D-02 0.00090427 0.00033562 0.01739042 0.00496520    0.0482927 ----
   264   0   0   F    T  3.88D+00 0.00057296 0.00021982 0.00409766 0.00122173    0.0482927 ----
   265   0   0   F    F -4.10D-01 0.00057296 0.00021982 0.01589664 0.00473963    0.0482902 ----
   266   0   0   F    T  1.99D+00 0.00073181 0.00023422 0.00457954 0.00140774    0.0482879 ----
   267   0   0   F    F  2.76D-01 0.00073181 0.00023422 0.00909955 0.00279718    0.0482821 ----
   268   0   0   F    T  2.34D+00 0.00072866 0.00024226 0.00485487 0.00152557    0.0482819 ----
   269   0   0   F    F -2.76D-01 0.00072866 0.00024226 0.01135443 0.00356795    0.0482782 ----
   270   0   0   F    T  1.89D+00 0.00073483 0.00022751 0.00428325 0.00136637    0.0482775 ----
   271   0   0   F    F -4.53D-02 0.00073483 0.00022751 0.00809941 0.00258374    0.0482735 ----
   272   0   0   F    T  1.74D+00 0.00106630 0.00023003 0.00440434 0.00141763    0.0482735 ----
   273   0   0   F    F  2.67D-01 0.00106630 0.00023003 0.00766400 0.00246682    0.0482686 ----
   274   0   0   F    T  3.65D+00 0.00049882 0.00017729 0.00261923 0.00085660    0.0482684 ----
   275   0   0   F    F -3.52D-01 0.00049882 0.00017729 0.00955555 0.00312506    0.0482661 ----
   276   0   0   F    T  1.78D+00 0.00067693 0.00020253 0.00345315 0.00113657    0.0482652 ----
   277   0   0   F    F  6.41D-01 0.00067693 0.00020253 0.00614953 0.00202405    0.0482608 ----
   278   0   0   F    T  2.66D+00 0.00062154 0.00021058 0.00368574 0.00124773    0.0482600 ----
   279   0   0   F    F -3.91D-01 0.00062154 0.00021058 0.00981118 0.00332136    0.0482581 ----
   280   0   0   F    T  2.44D+00 0.00049014 0.00017014 0.00240491 0.00083020    0.0482568 ----
   281   0   0   F    F  5.94D-02 0.00049014 0.00017014 0.00585672 0.00202182    0.0482536 ----
   282   0   0   F    T  1.14D+00 0.00107361 0.00025458 0.00548923 0.00187669    0.0482536 ----
   283   0   0   F    F  6.79D-01 0.00107361 0.00025458 0.00626481 0.00214186    0.0482491 ----
   284   0   0   F    T  3.42D+00 0.00051502 0.00018911 0.00300900 0.00105146    0.0482482 ----
   285   0   0   F    F -2.88D-01 0.00051502 0.00018911 0.01029166 0.00359631    0.0482450 ----
   286   0   0   F    T  2.08D+00 0.00073919 0.00020358 0.00337270 0.00123375    0.0482444 ----
   287   0   0   F    F  3.17D-01 0.00073919 0.00020358 0.00700421 0.00256217    0.0482397 ----
   288   0   0   F    T  1.95D+00 0.00066771 0.00023952 0.00461013 0.00172912    0.0482395 ----
   289   0   0   F    F  1.92D-02 0.00066771 0.00023952 0.00899663 0.00337436    0.0482345 ----
   290   0   0   F    T  2.23D+00 0.00061515 0.00022461 0.00414967 0.00154486    0.0482345 ----
   291   0   0   F    F -3.13D-01 0.00061515 0.00022461 0.00923837 0.00343931    0.0482318 ----
   292   0   0   F    T  1.60D+00 0.00055183 0.00021806 0.00417994 0.00147396    0.0482311 ----
   293   0   0   F    F  8.61D-01 0.00055183 0.00021806 0.00670542 0.00236452    0.0482263 ----
   294   0   0   F    T  2.10D+00 0.00088338 0.00025947 0.00604690 0.00209746    0.0482250 ----
   295   0   0   F    F  1.39D-01 0.00088338 0.00025947 0.01268618 0.00440040    0.0482180 ----
   296   0   0   F    T  3.43D+00 0.00069723 0.00021714 0.00396559 0.00145906    0.0482179 ----
   297   0   0   F    F -4.09D-01 0.00069723 0.00021714 0.01361985 0.00501117    0.0482158 ----
   298   0   0   F    T  2.25D+00 0.00075210 0.00020530 0.00373377 0.00131541    0.0482138 ----
   299   0   0   F    F  1.20D-01 0.00075210 0.00020530 0.00841114 0.00296325    0.0482092 ----
   300   0   0   F    T  1.95D+00 0.00071490 0.00023243 0.00501209 0.00170376    0.0482091 ----
   301   0   0   F    F  1.25D-01 0.00071490 0.00023243 0.00975915 0.00331743    0.0482041 ----
   302   0   0   F    T  2.16D+00 0.00063288 0.00023284 0.00512820 0.00173042    0.0482040 ----
   303   0   0   F    F -3.82D-01 0.00063288 0.00023284 0.01106134 0.00373245    0.0482021 ----
   304   0   0   F    T  1.92D+00 0.00046710 0.00019169 0.00350908 0.00119894    0.0482009 ----
   305   0   0   F    F  2.13D-01 0.00046710 0.00019169 0.00674974 0.00230618    0.0481973 ----
   306   0   0   F    T  2.75D+00 0.00051976 0.00017488 0.00305751 0.00101565    0.0481971 ----
   307   0   0   F    F -1.08D-01 0.00051976 0.00017488 0.00841820 0.00279639    0.0481939 ----
   308   0   0   F    T  2.61D+00 0.00055103 0.00016847 0.00297031 0.00095638    0.0481939 ----
   309   0   0   F    F -2.65D-01 0.00055103 0.00016847 0.00774756 0.00249455    0.0481918 ----
   310   0   0   F    T  2.49D+00 0.00048024 0.00014627 0.00230536 0.00073489    0.0481915 ----
   311   0   0   F    F -2.81D-01 0.00048024 0.00014627 0.00574825 0.00183240    0.0481901 ----
   312   0   0   F    T  1.72D+00 0.00053460 0.00014817 0.00239874 0.00076766    0.0481898 ----
   313   0   0   F    F  9.18D-02 0.00053460 0.00014817 0.00411477 0.00131683    0.0481881 ----
   314   0   0   F    T  1.75D+00 0.00053099 0.00015201 0.00252979 0.00082108    0.0481880 ----
   315   0   0   F    F  5.48D-01 0.00053099 0.00015201 0.00442976 0.00143774    0.0481857 ----
   316   0   0   F    T  2.44D+00 0.00047089 0.00015899 0.00271855 0.00091179    0.0481853 ----
   317   0   0   F    F -3.33D-02 0.00047089 0.00015899 0.00663455 0.00222521    0.0481827 ----
   318   0   0   F    T  2.85D+00 0.00054661 0.00014345 0.00215445 0.00075592    0.0481827 ----
   319   0   0   F    F -2.49D-01 0.00054661 0.00014345 0.00613113 0.00215119    0.0481810 ----
   320   0   0   F    T  2.04D+00 0.00043981 0.00014543 0.00218631 0.00079101    0.0481808 ----
   321   0   0   F    F  8.29D-02 0.00043981 0.00014543 0.00446611 0.00161584    0.0481788 ----
   322   0   0   F    T  1.97D+00 0.00044151 0.00015272 0.00240498 0.00088604    0.0481788 ----
   323   0   0   F    F -3.53D-02 0.00044151 0.00015272 0.00474926 0.00174973    0.0481769 ----
   324   0   0   F    T  1.66D+00 0.00052540 0.00016231 0.00270251 0.00101384    0.0481768 ----
   325   0   0   F    T  2.63D+00 0.00038440 0.00012952 0.00185362 0.00064090    0.0481749 ----
   326   0   0   F    F  4.43D-02 0.00038440 0.00012952 0.00488171 0.00168789    0.0481729 ----
   327   0   0   F    T  2.46D+00 0.00031193 0.00013399 0.00217787 0.00071665    0.0481729 ----
   328   0   0   F    F -5.75D-02 0.00031193 0.00013399 0.00535645 0.00176259    0.0481711 ----
   329   0   0   F    T  2.02D+00 0.00040904 0.00014358 0.00251601 0.00082265    0.0481711 ----
   330   0   0   F    F -1.22D-01 0.00040904 0.00014358 0.00508058 0.00166118    0.0481695 ----
   331   0   0   F    T  1.49D+00 0.00054942 0.00015558 0.00291888 0.00097937    0.0481695 ----
   332   0   0   F    F  6.47D-01 0.00054942 0.00015558 0.00434455 0.00145772    0.0481673 ----
   333   0   0   F    T  1.91D+00 0.00064391 0.00017514 0.00391859 0.00125752    0.0481669 ----
   334   0   0   F    F  2.35D-01 0.00064391 0.00017514 0.00748277 0.00240131    0.0481639 ----
   335   0   0   F    T  2.19D+00 0.00056743 0.00018035 0.00406573 0.00135194    0.0481637 ----
   336   0   0   F    F  9.78D-02 0.00056743 0.00018035 0.00891589 0.00296471    0.0481604 ----
   337   0   0   F    T  2.96D+00 0.00039427 0.00016175 0.00337683 0.00109914    0.0481603 ----
   338   0   0   F    T  1.91D+00 0.00065182 0.00020151 0.00496299 0.00170253    0.0481569 ----
   339   0   0   F    F  5.00D-02 0.00065182 0.00020151 0.00948731 0.00325458    0.0481534 ----
   340   0   0   F    T  2.09D+00 0.00059172 0.00019585 0.00474866 0.00163300    0.0481534 ----
   341   0   0   F    F -6.13D-02 0.00059172 0.00019585 0.00993696 0.00341719    0.0481501 ----
   342   0   0   F    T  1.59D+00 0.00083817 0.00021830 0.00600326 0.00201916    0.0481501 ----
   343   0   0   F    F  1.47D-01 0.00083817 0.00021830 0.00953690 0.00320768    0.0481464 ----
   344   0   0   F    T  2.61D+00 0.00056917 0.00018209 0.00422751 0.00141031    0.0481463 ----
   345   0   0   F    F -2.70D-01 0.00056917 0.00018209 0.01102723 0.00367871    0.0481439 ----
   346   0   0   F    T  2.84D+00 0.00048051 0.00014857 0.00295236 0.00094639    0.0481436 ----
   347   0   0   F    F  1.60D-01 0.00048051 0.00014857 0.00837548 0.00268479    0.0481405 ----
   348   0   0   F    T  2.07D+00 0.00060580 0.00018666 0.00470376 0.00150695    0.0481404 ----
   349   0   0   F    F -1.89D-01 0.00060580 0.00018666 0.00971873 0.00311361    0.0481380 ----
   350   0   0   F    T  1.84D+00 0.00053382 0.00017692 0.00424713 0.00137110    0.0481379 ----
   351   0   0   F    F -2.00D-01 0.00053382 0.00017692 0.00781812 0.00252392    0.0481360 ----
   352   0   0   F    T  2.89D+00 0.00036574 0.00012510 0.00218809 0.00069790    0.0481359 ----
   353   0   0   F    F -1.62D-01 0.00036574 0.00012510 0.00633166 0.00201949    0.0481343 ----
   354   0   0   F    T  1.71D+00 0.00044974 0.00014837 0.00318605 0.00099143    0.0481342 ----
   355   0   0   F    F  4.72D-01 0.00044974 0.00014837 0.00543981 0.00169275    0.0481320 ----
   356   0   0   F    T  3.51D+00 0.00032314 0.00012462 0.00228732 0.00071052    0.0481318 ----
   357   0   0   F    F -4.42D-01 0.00032314 0.00012462 0.00802090 0.00249158    0.0481313 ----
   358   0   0   F    T  2.88D+00 0.00033460 0.00010156 0.00153197 0.00048259    0.0481305 ----
   359   0   0   F    F -2.21D-01 0.00033460 0.00010156 0.00441550 0.00139093    0.0481296 ----
   360   0   0   F    T  1.63D+00 0.00035102 0.00011843 0.00211103 0.00066648    0.0481295 ----
   361   0   0   F    F  1.63D-01 0.00035102 0.00011843 0.00343416 0.00108420    0.0481283 ----
   362   0   0   F    T  1.98D+00 0.00032154 0.00011493 0.00198164 0.00063811    0.0481283 ----
   363   0   0   F    F -1.19D-01 0.00032154 0.00011493 0.00391735 0.00126144    0.0481273 ----
   364   0   0   F    T  2.01D+00 0.00029043 0.00010592 0.00165077 0.00055229    0.0481273 ----
   365   0   0   F    F  3.24D-01 0.00029043 0.00010592 0.00332014 0.00111081    0.0481261 ----
   366   0   0   F    T  2.26D+00 0.00035990 0.00011400 0.00185272 0.00064992    0.0481260 ----
   367   0   0   F    F -8.16D-02 0.00035990 0.00011400 0.00419305 0.00147089    0.0481248 ----
   368   0   0   F    T  3.32D+00 0.00030064 0.00008908 0.00103676 0.00040700    0.0481248 ----
   369   0   0   F    F -4.24D-01 0.00030064 0.00008908 0.00344095 0.00135079    0.0481245 ----
   370   0   0   F    T  1.41D+00 0.00034601 0.00010272 0.00145543 0.00055085    0.0481242 ----
   371   0   0   F    F  1.32D-01 0.00034601 0.00010272 0.00205441 0.00077756    0.0481235 ----
   372   0   0   F    T  3.01D+00 0.00019941 0.00007367 0.00079638 0.00029232    0.0481234 -+-+
   373   0   0   F    F -2.07D-01 0.00019941 0.00007367 0.00239729 0.00087996    0.0481229 -+--
   374   0   0   F    T  1.84D+00 0.00021718 0.00008280 0.00119348 0.00037846    0.0481229 ----
   375   0   0   F    F  6.55D-01 0.00021718 0.00008280 0.00220015 0.00069767    0.0481221 ----
   376   0   0   F    T  2.08D+00 0.00026668 0.00009947 0.00191065 0.00055518    0.0481220 ----
   377   0   0   F    F  1.69D-01 0.00026668 0.00009947 0.00397347 0.00115458    0.0481209 ----
   378   0   0   F    T  2.74D+00 0.00029570 0.00009299 0.00180570 0.00049331    0.0481209 ----
   379   0   0   F    F -2.53D-01 0.00029570 0.00009299 0.00494213 0.00135016    0.0481202 ----
   380   0   0   F    T  1.37D+00 0.00036034 0.00011286 0.00276624 0.00073464    0.0481202 ----
   381   0   0   F    F  6.86D-01 0.00036034 0.00011286 0.00379754 0.00100852    0.0481191 ----
   382   0   0   F    T  1.82D+00 0.00042193 0.00012677 0.00357395 0.00093484    0.0481189 ----
   383   0   0   F    F  8.67D-02 0.00042193 0.00012677 0.00649969 0.00170013    0.0481175 ----
   384   0   0   F    T  2.68D+00 0.00028942 0.00010814 0.00270226 0.00069064    0.0481175 ----
   385   0   0   F    F -3.71D-02 0.00028942 0.00010814 0.00722860 0.00184747    0.0481162 ----
   386   0   0   F    T  1.73D+00 0.00042461 0.00013109 0.00412193 0.00102559    0.0481162 ----
   387   0   0   F    F  4.27D-01 0.00042461 0.00013109 0.00714934 0.00177885    0.0481145 ----
   388   0   0   F    T  3.18D+00 0.00041588 0.00011484 0.00337009 0.00079908    0.0481143 ----
   389   0   0   F    F -4.08D-01 0.00041588 0.00011484 0.01070677 0.00253869    0.0481138 ----
   390   0   0   F    T  1.47D+00 0.00044673 0.00012943 0.00442835 0.00102184    0.0481133 ----
   391   0   0   F    F  9.20D-02 0.00044673 0.00012943 0.00650967 0.00150211    0.0481121 ----
   392   0   0   F    T  2.45D+00 0.00032182 0.00010455 0.00296775 0.00067036    0.0481121 ----
   393   0   0   F    F  1.75D-01 0.00032182 0.00010455 0.00726162 0.00164028    0.0481107 ----
   394   0   0   F    T  1.98D+00 0.00033016 0.00012555 0.00436644 0.00097138    0.0481107 ----
   395   0   0   F    F  5.73D-01 0.00033016 0.00012555 0.00866676 0.00192806    0.0481089 ----
   396   0   0   F    T  2.53D+00 0.00033384 0.00013922 0.00543905 0.00119835    0.0481086 ----
   397   0   0   F    F -1.22D-01 0.00033384 0.00013922 0.01376970 0.00303378    0.0481067 ----
   398   0   0   F    T  2.18D+00 0.00042780 0.00014014 0.00556844 0.00122386    0.0481067 ----
   399   0   0   F    F -1.27D-01 0.00042780 0.00014014 0.01212624 0.00266516    0.0481051 ----
   400   0   0   F    T  2.44D+00 0.00042272 0.00012285 0.00436511 0.00095526    0.0481051 ----
   401   0   0   F    F -4.66D-01 0.00042272 0.00012285 0.01063647 0.00232767    0.0481049 ----
   402   0   0   F    T  1.94D+00 0.00028128 0.00009972 0.00296347 0.00064095    0.0481042 ----
   403   0   0   F    F  5.84D-01 0.00028128 0.00009972 0.00574847 0.00124329    0.0481031 ----
   404   0   0   F    T  2.31D+00 0.00038490 0.00011433 0.00398654 0.00085252    0.0481029 ----
   405   0   0   F    F -8.35D-02 0.00038490 0.00011433 0.00920671 0.00196885    0.0481017 ----
   406   0   0   F    T  2.51D+00 0.00031862 0.00010438 0.00339317 0.00071880    0.0481017 ----
   407   0   0   F    F -2.38D-01 0.00031862 0.00010438 0.00851818 0.00180447    0.0481009 ----
   408   0   0   F    T  2.39D+00 0.00028220 0.00009294 0.00271018 0.00057585    0.0481008 ----
   409   0   0   F    T  1.72D+00 0.00030957 0.00010885 0.00373189 0.00080057    0.0480999 ----
   410   0   0   F    F -1.93D-01 0.00030957 0.00010885 0.00641380 0.00137591    0.0480992 ----
   411   0   0   F    T  2.30D+00 0.00025443 0.00008511 0.00222872 0.00048327    0.0480992 ----
   412   0   0   F    F -7.83D-02 0.00025443 0.00008511 0.00512038 0.00111029    0.0480985 ----
   413   0   0   F    T  2.82D+00 0.00015703 0.00007255 0.00169716 0.00036316    0.0480985 -+--
   414   0   0   F    F  3.18D-02 0.00015703 0.00007255 0.00478245 0.00102335    0.0480979 -+--
   415   0   0   F    T  2.28D+00 0.00022466 0.00008122 0.00217398 0.00046288    0.0480979 ----
   416   0   0   F    T  2.22D+00 0.00023312 0.00008144 0.00222253 0.00047551    0.0480972 ----
   417   0   0   F    F -2.88D-01 0.00023312 0.00008144 0.00493532 0.00105592    0.0480968 ----
   418   0   0   F    T  1.83D+00 0.00022827 0.00007535 0.00189728 0.00040998    0.0480967 ----
   419   0   0   F    F  2.26D-01 0.00022827 0.00007535 0.00348024 0.00075204    0.0480962 ----
   420   0   0   F    T  1.65D+00 0.00035401 0.00008736 0.00256283 0.00056002    0.0480962 ----
   421   0   0   F    F  3.40D-01 0.00035401 0.00008736 0.00421855 0.00092182    0.0480955 ----
   422   0   0   F    T  3.93D+00 0.00017809 0.00006484 0.00139205 0.00031454    0.0480955 -+--
   423   0   0   F    F -3.91D-01 0.00017809 0.00006484 0.00546489 0.00123480    0.0480952 -+--
   424   0   0   F    T  2.05D+00 0.00017281 0.00006939 0.00157963 0.00036658    0.0480950 -+--
   425   0   0   F    F  3.70D-01 0.00017281 0.00006939 0.00324128 0.00075220    0.0480945 -+--
   426   0   0   F    T  1.54D+00 0.00031064 0.00009332 0.00283244 0.00066968    0.0480944 ----
   427   0   0   F    F  2.14D-01 0.00031064 0.00009332 0.00435770 0.00103031    0.0480938 ----
   428   0   0   F    T  2.17D+00 0.00027858 0.00008607 0.00235068 0.00057628    0.0480937 ----
   429   0   0   F    F -2.15D-01 0.00027858 0.00008607 0.00510332 0.00125111    0.0480932 ----
   430   0   0   F    T  1.74D+00 0.00023360 0.00008482 0.00220435 0.00056514    0.0480932 ----
   431   0   0   F    F  2.51D-01 0.00023360 0.00008482 0.00383187 0.00098239    0.0480925 ----
   432   0   0   F    T  3.41D+00 0.00017330 0.00006708 0.00131587 0.00036003    0.0480925 -+--
   433   0   0   F    F -2.75D-01 0.00017330 0.00006708 0.00449273 0.00122925    0.0480921 -+--
   434   0   0   F    T  2.26D+00 0.00019595 0.00006966 0.00140078 0.00039486    0.0480920 -+--
   435   0   0   F    F  3.25D-01 0.00019595 0.00006966 0.00316034 0.00089086    0.0480914 -+--
   436   0   0   F    T  1.77D+00 0.00036107 0.00009003 0.00234287 0.00066594    0.0480914 ----
   437   0   0   F    F  4.92D-02 0.00036107 0.00009003 0.00415297 0.00118045    0.0480907 ----
   438   0   0   F    T  1.68D+00 0.00030212 0.00009437 0.00260200 0.00073879    0.0480907 ----
   439   0   0   F    F  2.54D-01 0.00030212 0.00009437 0.00436223 0.00123858    0.0480899 ----
   440   0   0   F    T  1.84D+00 0.00028846 0.00010047 0.00299339 0.00084461    0.0480899 ----
   441   0   0   F    F  2.75D-01 0.00028846 0.00010047 0.00550370 0.00155291    0.0480889 ----
   442   0   0   F    T  2.48D+00 0.00027606 0.00009709 0.00281239 0.00079793    0.0480889 ----
   443   0   0   F    F -1.83D-02 0.00027606 0.00009709 0.00697907 0.00198011    0.0480879 ----
   444   0   0   F    T  3.15D+00 0.00025192 0.00008495 0.00216322 0.00061742    0.0480879 ----
   445   0   0   F    F -1.70D-01 0.00025192 0.00008495 0.00681037 0.00194379    0.0480871 ----
   446   0   0   F    T  1.73D+00 0.00032373 0.00010433 0.00327719 0.00093488    0.0480871 ----
   447   0   0   F    F  1.86D-02 0.00032373 0.00010433 0.00565547 0.00161333    0.0480862 ----
   448   0   0   F    T  1.92D+00 0.00038980 0.00009962 0.00297687 0.00085556    0.0480862 ----
   449   0   0   F    F -1.91D-01 0.00038980 0.00009962 0.00571802 0.00164338    0.0480856 ----
   450   0   0   F    T  2.79D+00 0.00026125 0.00007396 0.00159252 0.00047602    0.0480856 -+--
   451   0   0   F    F -2.46D-01 0.00026125 0.00007396 0.00444941 0.00132998    0.0480851 -+--
   452   0   0   F    T  1.95D+00 0.00030503 0.00007650 0.00166360 0.00051495    0.0480851 ----
   453   0   0   F    F  2.02D-01 0.00030503 0.00007650 0.00324085 0.00100316    0.0480845 ----
   454   0   0   F    T  2.98D+00 0.00018683 0.00006732 0.00130278 0.00040475    0.0480845 -+--
   455   0   0   F    F -2.39D-01 0.00018683 0.00006732 0.00388198 0.00120604    0.0480841 -+--
   456   0   0   F    T  1.75D+00 0.00031885 0.00007610 0.00168906 0.00052300    0.0480840 ----
   457   0   0   F    F  7.54D-02 0.00031885 0.00007610 0.00296425 0.00091785    0.0480835 ----
   458   0   0   F    T  1.77D+00 0.00028812 0.00007826 0.00175746 0.00055791    0.0480835 ----
   459   0   0   F    F -4.65D-02 0.00028812 0.00007826 0.00310941 0.00098710    0.0480831 ----
   460   0   0   F    T  2.97D+00 0.00015180 0.00005854 0.00088815 0.00031709    0.0480831 -+--
   461   0   0   F    F -1.48D-01 0.00015180 0.00005854 0.00263612 0.00094116    0.0480827 -+--
   462   0   0   F    T  1.82D+00 0.00022807 0.00006866 0.00117763 0.00044139    0.0480827 -+--
   463   0   0   F    F  5.27D-01 0.00022807 0.00006866 0.00213958 0.00080195    0.0480822 -+--
   464   0   0   F    T  3.07D+00 0.00019818 0.00006484 0.00110124 0.00039882    0.0480821 -+--
   465   0   0   F    F -2.02D-01 0.00019818 0.00006484 0.00338056 0.00122430    0.0480817 -+--
   466   0   0   F    T  1.60D+00 0.00021936 0.00007994 0.00170742 0.00061176    0.0480817 ----
   467   0   0   F    F  3.02D-01 0.00021936 0.00007994 0.00272795 0.00097741    0.0480812 ----
   468   0   0   F    T  1.45D+00 0.00030131 0.00009547 0.00243769 0.00087825    0.0480811 ----
   469   0   0   F    F  3.43D-01 0.00030131 0.00009547 0.00353248 0.00127268    0.0480804 ----
   470   0   0   F    T  2.93D+00 0.00031604 0.00007741 0.00159844 0.00058371    0.0480803 ----
   471   0   0   F    F -3.11D-01 0.00031604 0.00007741 0.00468098 0.00170938    0.0480799 ----
   472   0   0   F    T  3.02D+00 0.00018918 0.00006290 0.00109816 0.00039027    0.0480798 -+--
   473   0   0   F    F -1.27D-01 0.00018918 0.00006290 0.00331374 0.00117765    0.0480794 -+--
   474   0   0   F    T  1.53D+00 0.00030247 0.00008219 0.00193739 0.00067145    0.0480794 ----
   475   0   0   F    F  8.07D-01 0.00030247 0.00008219 0.00296522 0.00102768    0.0480787 ----
   476   0   0   F    T  2.06D+00 0.00033924 0.00009492 0.00254558 0.00089936    0.0480786 ----
   477   0   0   F    F -7.05D-02 0.00033924 0.00009492 0.00525614 0.00185700    0.0480778 ----
   478   0   0   F    T  1.49D+00 0.00044502 0.00010777 0.00312883 0.00116172    0.0480778 ----
   479   0   0   F    F  3.56D-01 0.00044502 0.00010777 0.00464895 0.00172613    0.0480769 ----
   480   0   0   F    T  2.33D+00 0.00027180 0.00010020 0.00261446 0.00100523    0.0480768 ----
   481   0   0   F    F  3.38D-01 0.00027180 0.00010020 0.00608836 0.00234090    0.0480755 ----
   482   0   0   F    T  2.44D+00 0.00028417 0.00011287 0.00341719 0.00128280    0.0480754 ----
   483   0   0   F    F -1.47D-01 0.00028417 0.00011287 0.00834544 0.00313284    0.0480743 ----
   484   0   0   F    T  2.67D+00 0.00031385 0.00009918 0.00276181 0.00100286    0.0480743 ----
   485   0   0   F    F -7.71D-02 0.00031385 0.00009918 0.00736333 0.00267376    0.0480732 ----
   486   0   0   F    T  1.59D+00 0.00039341 0.00012324 0.00431941 0.00155389    0.0480732 ----
   487   0   0   F    F  3.56D-01 0.00039341 0.00012324 0.00685952 0.00246768    0.0480719 ----
   488   0   0   F    T  1.60D+00 0.00040598 0.00014292 0.00579577 0.00209120    0.0480718 ----
   489   0   0   F    F  5.56D-02 0.00040598 0.00014292 0.00927200 0.00334548    0.0480703 ----
   490   0   0   F    T  2.90D+00 0.00024772 0.00010901 0.00336359 0.00121617    0.0480703 ----
   491   0   0   F    F -1.91D-01 0.00024772 0.00010901 0.00976742 0.00353159    0.0480691 ----
   492   0   0   F    T  2.52D+00 0.00031766 0.00010523 0.00319976 0.00113538    0.0480691 ----
   493   0   0   F    T  2.17D+00 0.00048104 0.00011289 0.00372208 0.00131476    0.0480679 ----
   494   0   0   F    F -3.23D-01 0.00048104 0.00011289 0.00808632 0.00285636    0.0480672 ----
   495   0   0   F    T  2.18D+00 0.00031185 0.00009302 0.00248475 0.00088754    0.0480671 ----
   496   0   0   F    F -5.12D-02 0.00031185 0.00009302 0.00541304 0.00193351    0.0480663 ----
   497   0   0   F    T  1.86D+00 0.00031578 0.00009744 0.00280391 0.00098442    0.0480663 ----
   498   0   0   F    F -7.29D-02 0.00031578 0.00009744 0.00522534 0.00183456    0.0480656 ----
   499   0   0   F    T  2.92D+00 0.00026194 0.00007462 0.00171356 0.00058301    0.0480656 -+--
   500   0   0   F    F -1.30D-01 0.00026194 0.00007462 0.00499917 0.00170089    0.0480650 -+--
   501   0   0   F    T  2.44D+00 0.00021275 0.00007574 0.00181773 0.00060557    0.0480650 ----
   502   0   0   F    F  2.43D-01 0.00021275 0.00007574 0.00444398 0.00148050    0.0480642 ----
   503   0   0   F    T  2.48D+00 0.00028741 0.00008361 0.00226083 0.00074325    0.0480642 ----
   504   0   0   F    F -3.83D-01 0.00028741 0.00008361 0.00559557 0.00183955    0.0480639 ----
   505   0   0   F    T  2.07D+00 0.00022234 0.00007157 0.00170658 0.00054935    0.0480637 -+--
   506   0   0   F    F -2.54D-01 0.00022234 0.00007157 0.00352428 0.00113447    0.0480634 -+--
   507   0   0   F    T  2.22D+00 0.00017217 0.00005923 0.00121818 0.00038116    0.0480634 -+--
   508   0   0   F    T  1.87D+00 0.00017887 0.00006314 0.00145293 0.00045199    0.0480631 -+--
   509   0   0   F    F  2.64D-01 0.00017887 0.00006314 0.00271915 0.00084590    0.0480627 -+--
   510   0   0   F    T  3.27D+00 0.00018164 0.00005658 0.00102346 0.00032717    0.0480627 -+--
   511   0   0   F    F -1.59D-01 0.00018164 0.00005658 0.00334554 0.00106946    0.0480623 -+--
   512   0   0   F    T  1.70D+00 0.00022772 0.00007092 0.00164004 0.00052836    0.0480623 -+--
   513   0   0   F    T  1.81D+00 0.00023232 0.00006799 0.00154007 0.00049776    0.0480619 -+--
   514   0   0   F    T  2.91D+00 0.00014632 0.00005401 0.00093822 0.00030884    0.0480616 -+--
   515   0   0   F    F -3.19D-01 0.00014632 0.00005401 0.00273237 0.00089943    0.0480614 -+--
   516   0   0   F    T  1.82D+00 0.00019975 0.00005617 0.00100278 0.00033697    0.0480613 -+--
   517   0   0   F    F  8.60D-01 0.00019975 0.00005617 0.00182241 0.00061240    0.0480610 -+--
   518   0   0   F    T  2.21D+00 0.00020799 0.00006868 0.00150713 0.00051477    0.0480609 -+--
   519   0   0   F    F  1.29D-01 0.00020799 0.00006868 0.00333452 0.00113893    0.0480603 -+--
   520   0   0   F    T  2.48D+00 0.00015282 0.00006862 0.00149762 0.00051868    0.0480603 -+--
   521   0   0   F    F -1.40D-01 0.00015282 0.00006862 0.00371243 0.00128576    0.0480599 -+--
   522   0   0   F    T  1.69D+00 0.00026829 0.00007676 0.00187694 0.00065359    0.0480599 ----
   523   0   0   F    F -1.93D-01 0.00026829 0.00007676 0.00317486 0.00110555    0.0480596 ----
   524   0   0   F    T  2.70D+00 0.00014862 0.00005429 0.00094418 0.00033050    0.0480596 -+--
   525   0   0   F    F  1.09D-01 0.00014862 0.00005429 0.00254985 0.00089255    0.0480592 -+--
   526   0   0   F    T  1.77D+00 0.00025281 0.00007029 0.00162386 0.00055789    0.0480592 -+--
   527   0   0   F    F  4.92D-01 0.00025281 0.00007029 0.00288041 0.00098959    0.0480587 -+--
   528   0   0   F    T  2.33D+00 0.00024394 0.00007462 0.00187640 0.00063256    0.0480586 -+--
   529   0   0   F    F -1.84D-01 0.00024394 0.00007462 0.00438050 0.00147672    0.0480582 -+--
   530   0   0   F    T  2.28D+00 0.00023572 0.00006791 0.00159670 0.00052851    0.0480581 -+--
   531   0   0   F    F -2.64D-01 0.00023572 0.00006791 0.00364158 0.00120537    0.0480578 -+--
   532   0   0   F    T  1.47D+00 0.00022853 0.00007236 0.00182855 0.00060481    0.0480578 -+--
   533   0   0   F    F  4.12D-01 0.00022853 0.00007236 0.00268122 0.00088685    0.0480574 -+--
   534   0   0   F    T  3.70D+00 0.00016628 0.00005371 0.00102591 0.00033814    0.0480573 -+--
   535   0   0   F    F -2.90D-01 0.00016628 0.00005371 0.00379945 0.00125231    0.0480571 -+--
   536   0   0   F    T  2.42D+00 0.00014701 0.00005565 0.00114679 0.00036702    0.0480570 -+--
   537   0   0   F    F  1.60D-01 0.00014701 0.00005565 0.00277889 0.00088936    0.0480566 -+--
   538   0   0   F    T  2.04D+00 0.00025043 0.00006509 0.00151045 0.00050667    0.0480566 -+--
   539   0   0   F    T  2.87D+00 0.00021689 0.00005476 0.00109637 0.00035985    0.0480562 -+--
   540   0   0   F    F -1.45D-01 0.00021689 0.00005476 0.00314207 0.00103130    0.0480559 -+--
   541   0   0   F    T  2.00D+00 0.00018948 0.00006015 0.00133574 0.00044137    0.0480559 -+--
   542   0   0   F    F -1.08D-01 0.00018948 0.00006015 0.00266862 0.00088179    0.0480556 -+--
   543   0   0   F    T  1.42D+00 0.00021537 0.00006728 0.00163244 0.00055460    0.0480556 -+--
   544   0   0   F    F  3.58D-01 0.00021537 0.00006728 0.00231562 0.00078670    0.0480553 -+--
   545   0   0   F    T  2.96D+00 0.00015078 0.00005395 0.00103444 0.00036070    0.0480553 -+--
   546   0   0   F    F -8.40D-02 0.00015078 0.00005395 0.00306465 0.00106860    0.0480549 -+--
   547   0   0   F    T  2.60D+00 0.00017542 0.00005485 0.00107428 0.00037674    0.0480549 -+--
   548   0   0   F    F  3.86D-02 0.00017542 0.00005485 0.00279115 0.00097884    0.0480546 -+--
   549   0   0   F    T  2.54D+00 0.00016584 0.00005632 0.00118838 0.00040086    0.0480546 -+--
   550   0   0   F    F -2.10D-01 0.00016584 0.00005632 0.00301387 0.00101663    0.0480543 -+--
   551   0   0   F    T  2.83D+00 0.00014452 0.00004709 0.00089788 0.00028390    0.0480543 -+-+
   552   0   0   F    F -2.60D-01 0.00014452 0.00004709 0.00254123 0.00080352    0.0480541 -+--
   553   0   0   F    T  1.87D+00 0.00016233 0.00004957 0.00102809 0.00031853    0.0480541 -+--
   554   0   0   F    F -1.23D-01 0.00016233 0.00004957 0.00191848 0.00059440    0.0480539 -+--
   555   0   0   F    T  1.65D+00 0.00015737 0.00004905 0.00100939 0.00031575    0.0480539 -+--
   556   0   0   F    F  6.08D-01 0.00015737 0.00004905 0.00166733 0.00052156    0.0480537 -+--
   557   0   0   F    T  2.24D+00 0.00013624 0.00005316 0.00119080 0.00037472    0.0480536 -+--
   558   0   0   F    F  3.64D-01 0.00013624 0.00005316 0.00266575 0.00083886    0.0480533 -+--
   559   0   0   F    T  2.17D+00 0.00025411 0.00006273 0.00170357 0.00052632    0.0480533 -+--
   560   0   0   F    F -2.67D-01 0.00025411 0.00006273 0.00370436 0.00114447    0.0480530 -+--
   561   0   0   F    T  2.28D+00 0.00015527 0.00005209 0.00121486 0.00036760    0.0480530 -+--
   562   0   0   F    T  1.58D+00 0.00015986 0.00006177 0.00173481 0.00052952    0.0480527 -+--
   563   0   0   F    T  2.07D+00 0.00015483 0.00005646 0.00128417 0.00040450    0.0480525 -+--
   564   0   0   F    F  7.70D-01 0.00015483 0.00005646 0.00266157 0.00083837    0.0480520 -+--
   565   0   0   F    T  2.62D+00 0.00025042 0.00006411 0.00179322 0.00056719    0.0480519 -+--
   566   0   0   F    F -1.00D-01 0.00025042 0.00006411 0.00469034 0.00148354    0.0480515 -+--
   567   0   0   F    T  2.88D+00 0.00015394 0.00005857 0.00145408 0.00046290    0.0480515 -+--
   568   0   0   F    F  1.49D-01 0.00015394 0.00005857 0.00419356 0.00133499    0.0480510 -+--
   569   0   0   F    T  2.24D+00 0.00022150 0.00007096 0.00217547 0.00068368    0.0480510 -+--
   570   0   0   F    F -1.93D-01 0.00022150 0.00007096 0.00487969 0.00153354    0.0480507 -+--
   571   0   0   F    T  1.99D+00 0.00025626 0.00006736 0.00203910 0.00062184    0.0480506 -+--
   572   0   0   F    F -1.05D-01 0.00025626 0.00006736 0.00405566 0.00123682    0.0480503 -+--
   573   0   0   F    T  1.72D+00 0.00020315 0.00006829 0.00218995 0.00064472    0.0480503 -+--
   574   0   0   F    F  1.21D-01 0.00020315 0.00006829 0.00375851 0.00110650    0.0480499 -+--
   575   0   0   F    T  2.25D+00 0.00018630 0.00006293 0.00187766 0.00055088    0.0480499 -+--
   576   0   0   F    F  6.11D-02 0.00018630 0.00006293 0.00422711 0.00124017    0.0480495 -+--
   577   0   0   F    T  3.12D+00 0.00021535 0.00005492 0.00139818 0.00042221    0.0480495 -+--
   578   0   0   F    F -8.10D-02 0.00021535 0.00005492 0.00435794 0.00131599    0.0480491 -+--
   579   0   0   F    T  1.66D+00 0.00025082 0.00007195 0.00239611 0.00072808    0.0480491 -+--
   580   0   0   F    F -2.30D-01 0.00025082 0.00007195 0.00397999 0.00120937    0.0480488 -+--
   581   0   0   F    T  2.49D+00 0.00014861 0.00005127 0.00122631 0.00037400    0.0480488 -+--
   582   0   0   F    T  2.02D+00 0.00019504 0.00005620 0.00150910 0.00046121    0.0480485 -+--
   583   0   0   F    T  2.75D+00 0.00018308 0.00005007 0.00102714 0.00033846    0.0480483 -+--
   584   0   0   F    F -4.51D-02 0.00018308 0.00005007 0.00282708 0.00093159    0.0480480 -+--
   585   0   0   F    T  2.57D+00 0.00015897 0.00004894 0.00098336 0.00034605    0.0480480 -+--
   586   0   0   F    F -1.56D-01 0.00015897 0.00004894 0.00252796 0.00088960    0.0480477 -+--
   587   0   0   F    T  1.76D+00 0.00015958 0.00005443 0.00119274 0.00042577    0.0480477 -+--
   588   0   0   F    T  1.83D+00 0.00017784 0.00005288 0.00115439 0.00041004    0.0480475 -+--
   589   0   0   F    F -1.11D-01 0.00017784 0.00005288 0.00211259 0.00075040    0.0480473 -+--
   590   0   0   F    T  3.91D+00 0.00009186 0.00003457 0.00047963 0.00017049    0.0480473 ++-+
   591   0   0   T    F  4.69D-01 0.00009186 0.00003457 0.00187723 0.00066730    0.0480473 ++--
   592   0   0   F    T  1.92D+00 0.00010810 0.00003332 0.00044594 0.00016270    0.0480472 ====
 Energy=    0.048047223850 NIter=   0.
 Dipole moment=       0.000000       0.000000       0.000000
 ***** Axes restored to original set *****
 -------------------------------------------------------------------
 Center     Atomic                   Forces (Hartrees/Bohr)
 Number     Number              X              Y              Z
 -------------------------------------------------------------------
    1          6          -0.000016457    0.000022166    0.000024587
    2          6           0.000009445   -0.000017482    0.000012451
    3          8           0.000037248    0.000009690   -0.000025053
    4          7           0.000020938   -0.000024323    0.000035966
    5          6           0.000021665   -0.000007337   -0.000069469
    6          6          -0.000039671   -0.000014783   -0.000110417
    7          8          -0.000023284   -0.000053976    0.000067522
    8          7          -0.000072566    0.000020253    0.000032012
    9          1           0.000015596    0.000008910   -0.000005569
   10          1           0.000012478    0.000001289    0.000015723
   11          1          -0.000000878   -0.000023081   -0.000017774
   12          6           0.000012473   -0.000005316    0.000039851
   13          1          -0.000007607    0.000023476    0.000020003
   14          1           0.000060945    0.000006171    0.000020855
   15          1          -0.000052459   -0.000022047   -0.000018551
   16          1          -0.000015522   -0.000021864   -0.000012504
   17          6           0.000084811    0.000045857    0.000033474
   18          6          -0.000030068   -0.000028357   -0.000057350
   19          6           0.000023506   -0.000007675    0.000011407
   20          6           0.000010428   -0.000043536   -0.000059900
   21          6           0.000006074    0.000000340   -0.000004618
   22          6           0.000041267    0.000040905    0.000012514
   23          1           0.000010458   -0.000005971    0.000033985
   24          1           0.000011106    0.000008396    0.000013626
   25          1          -0.000048378    0.000077577   -0.000014974
   26          1          -0.000038650   -0.000008506   -0.000022817
   27          1          -0.000050182    0.000037369    0.000017192
   28          1           0.000023250   -0.000000826    0.000012914
   29          1          -0.000005966   -0.000017320    0.000014910
 -------------------------------------------------------------------
[...]
    X3       -2.04397   0.00004   0.00000   0.00004   0.00004  -2.04393
    Y3       -6.01060   0.00001   0.00000   0.00001   0.00001  -6.01059
    Z3       -2.01838  -0.00003   0.00000  -0.00003  -0.00003  -2.01840
    X4       -2.28134   0.00002   0.00000   0.00002   0.00002  -2.28132
    Y4       -3.33769  -0.00002   0.00000  -0.00002  -0.00002  -3.33771
    Z4        1.23029   0.00004   0.00000   0.00004   0.00004   1.23032
    X5       -0.61214   0.00002   0.00000   0.00002   0.00002  -0.61212
    Y5       -1.37065  -0.00001   0.00000  -0.00001  -0.00001  -1.37066
    Z5        0.32951  -0.00007   0.00000  -0.00007  -0.00007   0.32944
    X6        1.87075  -0.00004   0.00000  -0.00004  -0.00004   1.87071
    Y6       -1.63642  -0.00001   0.00000  -0.00001  -0.00001  -1.63643
    Z6        1.52856  -0.00011   0.00000  -0.00011  -0.00011   1.52845
    X7        2.02475  -0.00002   0.00000  -0.00002  -0.00002   2.02473
    Y7       -1.46794  -0.00005   0.00000  -0.00005  -0.00005  -1.46800
    Z7        3.83318   0.00007   0.00000   0.00007   0.00007   3.83324
    X8        3.98491  -0.00007   0.00000  -0.00007  -0.00007   3.98484
    Y8       -2.03818   0.00002   0.00000   0.00002   0.00002  -2.03816
    Z8        0.22012   0.00003   0.00000   0.00003   0.00003   0.22016
    X9       -7.08999   0.00002   0.00000   0.00002   0.00002  -7.08998
    Y9       -5.03367   0.00001   0.00000   0.00001   0.00001  -5.03366
    Z9        0.47632  -0.00001   0.00000  -0.00001  -0.00001   0.47631
   X10       -5.44719   0.00001   0.00000   0.00001   0.00001  -5.44718
   Y10       -7.27666   0.00000   0.00000   0.00000   0.00000  -7.27665
   Z10        2.35790   0.00002   0.00000   0.00002   0.00002   2.35792
   X11       -6.07679   0.00000   0.00000   0.00000   0.00000  -6.07679
   Y11       -7.92849  -0.00002   0.00000  -0.00002  -0.00002  -7.92851
   Z11       -0.86316  -0.00002   0.00000  -0.00002  -0.00002  -0.86318
   X12       -1.81898   0.00001   0.00000   0.00001   0.00001  -1.81897
   Y12        1.28172  -0.00001   0.00000  -0.00001  -0.00001   1.28171
   Z12        0.80318   0.00004   0.00000   0.00004   0.00004   0.80322
   X13       -0.39115  -0.00001   0.00000  -0.00001  -0.00001  -0.39115
   Y13       -1.54928   0.00002   0.00000   0.00002   0.00002  -1.54926
   Z13       -1.72209   0.00002   0.00000   0.00002   0.00002  -1.72207
   X14        5.60448   0.00006   0.00000   0.00006   0.00006   5.60454
   Y14       -2.21792   0.00001   0.00000   0.00001   0.00001  -2.21792
   Z14        1.07482   0.00002   0.00000   0.00002   0.00002   1.07484
   X15       -2.79229  -0.00005   0.00000  -0.00005  -0.00005  -2.79234
   Y15       -3.26586  -0.00002   0.00000  -0.00002  -0.00002  -3.26589
   Z15        3.00448  -0.00002   0.00000  -0.00002  -0.00002   3.00447
   X16        3.96869  -0.00002   0.00000  -0.00002  -0.00002   3.96868
   Y16       -2.15933  -0.00002   0.00000  -0.00002  -0.00002  -2.15935
   Z16       -1.61330  -0.00001   0.00000  -0.00001  -0.00001  -1.61331
   X17       -0.26302   0.00008   0.00000   0.00008   0.00008  -0.26293
   Y17        3.42760   0.00005   0.00000   0.00005   0.00005   3.42764
   Z17       -0.14301   0.00003   0.00000   0.00003   0.00003  -0.14298
   X18        0.87131  -0.00003   0.00000  -0.00003  -0.00003   0.87128
   Y18        5.16834  -0.00003   0.00000  -0.00003  -0.00003   5.16832
   Z18        1.52125  -0.00006   0.00000  -0.00006  -0.00006   1.52119
   X19        0.22725   0.00002   0.00000   0.00002   0.00002   0.22727
   Y19        3.72560  -0.00001   0.00000  -0.00001  -0.00001   3.72559
   Z19       -2.74212   0.00001   0.00000   0.00001   0.00001  -2.74211
   X20        2.43552   0.00001   0.00000   0.00001   0.00001   2.43553
   Y20        4.97350  -0.00004   0.00000  -0.00004  -0.00004   4.97345
   Z20       -3.52003  -0.00006   0.00000  -0.00006  -0.00006  -3.52009
   X21        3.07839   0.00001   0.00000   0.00001   0.00001   3.07840
   Y21        6.43948   0.00000   0.00000   0.00000   0.00000   6.43948
   Z21        0.77719   0.00000   0.00000   0.00000   0.00000   0.77719
   X22        3.74601   0.00004   0.00000   0.00004   0.00004   3.74605
   Y22        6.49952   0.00004   0.00000   0.00004   0.00004   6.49956
   Z22       -1.79006   0.00001   0.00000   0.00001   0.00001  -1.79004
   X23       -2.18146   0.00001   0.00000   0.00001   0.00001  -2.18145
   Y23        1.50116  -0.00001   0.00000  -0.00001  -0.00001   1.50115
   Z23        2.82786   0.00003   0.00000   0.00003   0.00003   2.82789
   X24       -3.65821   0.00001   0.00000   0.00001   0.00001  -3.65820
   Y24        1.36049   0.00001   0.00000   0.00001   0.00001   1.36049
   Z24       -0.13681   0.00001   0.00000   0.00001   0.00001  -0.13680
   X25        0.08345  -0.00005   0.00000  -0.00005  -0.00005   0.08341
   Y25        5.54682   0.00008   0.00000   0.00008   0.00008   5.54690
   Z25        3.24478  -0.00001   0.00000  -0.00001  -0.00001   3.24476
   X26       -1.02702  -0.00004   0.00000  -0.00004  -0.00004  -1.02706
   Y26        3.07846  -0.00001   0.00000  -0.00001  -0.00001   3.07845
   Z26       -4.06237  -0.00002   0.00000  -0.00002  -0.00002  -4.06239
   X27        3.09226  -0.00005   0.00000  -0.00005  -0.00005   3.09221
   Y27        4.75830   0.00004   0.00000   0.00004   0.00004   4.75834
   Z27       -5.32414   0.00002   0.00000   0.00002   0.00002  -5.32412
   X28        4.19629   0.00002   0.00000   0.00002   0.00002   4.19631
   Y28        7.30226   0.00000   0.00000   0.00000   0.00000   7.30226
   Z28        2.09545   0.00001   0.00000   0.00001   0.00001   2.09547
   X29        5.17093  -0.00001   0.00000  -0.00001  -0.00001   5.17092
   Y29        7.65421  -0.00002   0.00000  -0.00002  -0.00002   7.65419
   Z29       -2.39737   0.00001   0.00000   0.00001   0.00001  -2.39735
         Item               Value     Threshold  Converged?
 Maximum Force            0.000110     0.000450     YES
 RMS     Force            0.000033     0.000300     YES
 Maximum Displacement     0.000110     0.001800     YES
 RMS     Displacement     0.000033     0.001200     YES
 Predicted change in Energy=-4.829758D-08
 Optimization completed.
    -- Stationary point found.
 GradGradGradGradGradGradGradGradGradGradGradGradGradGradGradGradGradGrad

                          Input orientation:                          
 ---------------------------------------------------------------------
 Center     Atomic     Atomic              Coordinates (Angstroms)
 Number     Number      Type              X           Y           Z
 ---------------------------------------------------------------------
    1          6      10061003       -2.952883   -3.407231    0.252944
    2          6      10061002       -1.696871   -2.771111   -0.091255
    3          8      10081002       -1.081622   -3.180671   -1.068078
    4          7      10071000       -1.207231   -1.766228    0.651040
    5          6      10061003       -0.323931   -0.725317    0.174369
    6          6      10061002        0.989958   -0.865956    0.808877
    7          8      10081002        1.071454   -0.776803    2.028430
    8          7      10071000        2.108723   -1.078560    0.116484
    9          1      10011000       -3.751863   -2.663702    0.252057
   10          1      10011000       -2.882529   -3.850640    1.247748
   11          1      10011000       -3.215700   -4.195576   -0.456765
   12          6      10061003       -0.962564    0.678256    0.425022
   13          1      10011000       -0.206986   -0.819846   -0.911288
   14          1      10011000        2.965761   -1.173675    0.568770
   15          1      10011000       -1.477617   -1.728220    1.589905
   16          1      10011000        2.100142   -1.142667   -0.853722
   17          6      10061000       -0.139182    1.813807   -0.075678
   18          6      10061000        0.461075    2.734970    0.805012
   19          6      10061000        0.120255    1.971501   -1.451068
   20          6      10061000        1.288821    2.631860   -1.862722
   21          6      10061000        1.629016    3.407624    0.411274
   22          6      10061000        1.982302    3.439397   -0.947257
   23          1      10011000       -1.154380    0.794378    1.496437
   24          1      10011000       -1.935841    0.719938   -0.072398
   25          1      10011000        0.044162    2.935251    1.717064
   26          1      10011000       -0.543476    1.629051   -2.149713
   27          1      10011000        1.636353    2.517983   -2.817413
   28          1      10011000        2.220580    3.864191    1.108866
   29          1      10011000        2.736337    4.050432   -1.268633
 ---------------------------------------------------------------------
                    Distance matrix (angstroms):
                    1          2          3          4          5
     1  C    0.000000
     2  C    1.449375   0.000000
     3  O    2.301749   1.224931   0.000000
     4  N    2.428718   1.341842   2.229752   0.000000
     5  C    3.756359   2.478063   2.854214   1.446005   0.000000
     6  C    4.723678   3.414514   3.629368   2.379715   1.465839
     7  O    5.125114   4.016709   4.472436   2.840523   2.321053
     8  N    5.573256   4.170184   4.000045   3.428438   2.458848
     9  H    1.091423   2.086238   3.023276   2.727599   3.938793
    10  H    1.091419   2.089041   3.009182   2.739974   4.179260
    11  H    1.092817   2.114129   2.440907   3.341095   4.561071
    12  C    4.547767   3.564251   4.139425   2.467073   1.562273
    13  H    3.948412   2.588369   2.522512   2.082547   1.096022
    14  H    6.333946   4.972683   4.805062   4.215656   3.343449
    15  H    2.604410   1.990475   3.054717   0.977763   2.083398
    16  H    5.646771   4.201250   3.784578   3.686713   2.665949
    17  C    5.940046   4.842325   5.178597   3.805982   2.558086
    18  C    7.048867   5.981385   6.393997   4.802889   3.603822
    19  C    6.424843   5.257701   5.304345   4.489064   3.179965
    20  C    7.677156   6.422193   6.327399   5.647341   4.245156
    21  C    8.213472   7.034972   7.276103   5.905128   4.577262
    22  C    8.524838   7.269076   7.295720   6.310801   4.890971
    23  H    4.736498   3.940530   4.731073   2.697071   2.178756
    24  H    4.263068   3.499269   4.115315   2.689843   2.178970
    25  H    7.166101   6.234083   6.813876   4.980592   3.989380
    26  H    6.078004   4.992895   4.959129   4.451146   3.315510
    27  H    8.099157   6.820326   6.551505   6.202467   4.828299
    28  H    8.964982   7.798330   8.079214   6.607655   5.330234
    29  H    9.502587   8.220280   8.179602   7.284944   5.852800
                    6          7          8          9         10
     6  C    0.000000
     7  O    1.225520   0.000000
     8  N    1.332758   2.196024   0.000000
     9  H    5.101647   5.475425   6.072687   0.000000
    10  H    4.908880   5.068719   5.820376   1.776503   0.000000
    11  H    5.511423   6.020290   6.196280   1.771027   1.770692
    12  C    2.518785   2.970748   3.551676   4.356465   4.987388
    13  H    2.096132   3.205964   2.546714   4.161650   4.583196
    14  H    2.013987   2.424153   0.973717   6.888176   6.467585
    15  H    2.728082   2.755950   3.931267   2.799493   2.568173
    16  H    2.018245   3.082021   0.972360   6.146728   6.047835
    17  C    3.039494   3.550235   3.668213   5.762548   6.431436
    18  C    3.639560   3.768536   4.210917   6.870246   7.399052
    19  C    3.730267   4.534849   3.964100   6.275273   7.085030
    20  C    4.411516   5.177576   4.284473   7.610767   8.312520
    21  C    4.339351   4.520564   4.521378   8.114198   8.586974
    22  C    4.754452   5.240295   4.643216   8.459718   9.034892
    23  H    2.797790   2.775961   4.007493   4.500414   4.962312
    24  H    3.442674   3.962011   4.430436   3.853859   4.850689
    25  H    4.021008   3.864146   4.789044   6.921296   7.405005
    26  H    4.162899   5.084585   4.415989   5.872816   6.858638
    27  H    5.001884   5.887013   4.665405   8.081113   8.803703
    28  H    4.896806   4.868769   5.042630   8.889184   9.250925
    29  H    5.615760   6.078212   5.349673   9.459854  10.016525
                   11         12         13         14         15
    11  H    0.000000
    12  C    5.441361   0.000000
    13  H    4.544724   2.144979   0.000000
    14  H    6.956585   4.345349   3.518819   0.000000
    15  H    3.646593   2.722749   2.948833   4.592804   0.000000
    16  H    6.142964   3.785647   2.330315   1.665455   4.372018
    17  C    6.761870   1.489340   2.763868   4.356723   4.136609
    18  C    7.946272   2.530062   4.003587   4.648308   4.928961
    19  C    7.081673   2.522835   2.861829   4.697742   5.048629
    20  C    8.299477   3.757536   3.880327   4.817300   6.211611
    21  C    9.057231   3.763765   4.794953   4.774934   6.116963
    22  C    9.249466   4.263718   4.789094   4.954388   6.716584
    23  H    5.741401   1.094626   3.049658   4.659330   2.544941
    24  H    5.093924   1.093815   2.462440   5.293635   2.994445
    25  H    8.136396   2.788709   4.590432   5.170841   4.907132
    26  H    6.628207   2.776492   2.764781   5.249778   5.111617
    27  H    8.613185   4.544486   4.262899   5.182846   6.866695
    28  H    9.847040   4.555242   5.649274   5.121239   6.721839
    29  H   10.202085   5.284119   5.701793   5.542560   7.702043
                   16         17         18         19         20
    16  H    0.000000
    17  C    3.789547   0.000000
    18  C    4.524822   1.408710   0.000000
    19  C    3.738291   1.408500   2.406021   0.000000
    20  C    3.990411   2.429389   2.795102   1.403951   0.000000
    21  C    4.746296   2.429794   1.404129   2.794123   2.426643
    22  C    4.584533   2.811208   2.425035   2.423997   1.403961
    23  H    4.457275   2.131057   2.617950   3.420248   4.541973
    24  H    4.513195   2.103460   3.251986   2.773928   4.154414
    25  H    5.240745   2.122539   1.022628   3.312350   3.802116
    26  H    4.043604   2.121134   3.310979   1.022701   2.108389
    27  H    4.179897   3.341482   3.814488   2.112840   1.022341
    28  H    5.379115   3.343007   2.112658   3.814039   3.349201
    29  H    5.248349   3.833307   3.347725   3.346508   2.112011
                   21         22         23         24         25
    21  C    0.000000
    22  C    1.404075   0.000000
    23  H    3.969121   4.775619   0.000000
    24  H    4.490635   4.848988   1.754270   0.000000
    25  H    2.107128   3.333040   2.463436   3.468457   0.000000
    26  H    3.800223   3.332088   3.790025   2.660903   4.123523
    27  H    3.349019   2.113331   5.419253   4.850634   4.823967
    28  H    1.022270   2.113023   4.578680   5.343926   2.443283
    29  H    2.112214   1.022358   5.777991   5.861094   4.172029
                   26         27         28         29
    26  H    0.000000
    27  H    2.446974   0.000000
    28  H    4.822260   4.191570   0.000000
    29  H    4.170919   2.440713   2.439917   0.000000
 Stoichiometry    C11H14N2O2
 Framework group  C1[X(C11H14N2O2)]
 Deg. of freedom    81
 Full point group                 C1
 Largest Abelian subgroup         C1      NOp   1
 Largest concise Abelian subgroup C1      NOp   1
                         Standard orientation:                         
 ---------------------------------------------------------------------
 Center     Atomic     Atomic              Coordinates (Angstroms)
 Number     Number      Type              X           Y           Z
 ---------------------------------------------------------------------
    1          6      10061003       -4.436748   -0.944921   -0.504113
    2          6      10061002       -3.263315   -0.440442    0.180899
    3          8      10081002       -3.252981   -0.445849    1.405774
    4          7      10071000       -2.215916    0.038218   -0.507853
    5          6      10061003       -0.846653    0.059726   -0.043540
    6          6      10061002       -0.417655    1.446536    0.159936
    7          8      10081002       -0.408956    2.210579   -0.798219
    8          7      10071000       -0.025393    1.916185    1.343913
    9          1      10011000       -4.151466   -1.769804   -1.159390
   10          1      10011000       -4.882915   -0.151731   -1.106592
   11          1      10011000       -5.190970   -1.308420    0.198216
   12          6      10061003        0.072688   -0.710485   -1.044682
   13          1      10011000       -0.779931   -0.477110    0.909675
   14          1      10011000        0.248070    2.844976    1.447304
   15          1      10011000       -2.390633    0.393003   -1.402068
   16          1      10011000       -0.000227    1.347238    2.132043
   17          6      10061000        1.499741   -0.777837   -0.623827
   18          6      10061000        2.512380   -0.108046   -1.338255
   19          6      10061000        1.880471   -1.466491    0.544365
   20          6      10061000        3.040698   -1.074299    1.230759
   21          6      10061000        3.681575    0.290483   -0.670620
   22          6      10061000        3.993297   -0.278710    0.574480
   23          1      10011000       -0.008442   -0.243893   -2.031554
   24          1      10011000       -0.297780   -1.734021   -1.152198
   25          1      10011000        2.415183    0.071044   -2.340376
   26          1      10011000        1.332572   -2.260554    0.883758
   27          1      10011000        3.185680   -1.357685    2.202281
   28          1      10011000        4.296729    0.994250   -1.084547
   29          1      10011000        4.909920   -0.119046    0.998183
 ---------------------------------------------------------------------
 Rotational constants (GHZ):      1.1811748      0.3287690      0.3130749
 1|1|UNPC-UNK|FOpt|Dreiding|ZDO|C11H14N2O2|PCUSER|28-Mar-2008|0||# opt 
 dreiding||NAPA-b||0,1|C,-2.9528831721,-3.4072312501,0.2529441197|C,-1.
 6968714835,-2.7711113464,-0.0912545192|O,-1.0816220815,-3.1806710469,-
 1.0680781984|N,-1.2072313413,-1.7662279282,0.6510399209|C,-0.323930946
 1,-0.7253165716,0.1743694968|C,0.9899578413,-0.865955645,0.8088769415|
 O,1.0714535905,-0.7768027639,2.0284299125|N,2.1087226613,-1.078559566,
 0.1164842646|H,-3.7518629646,-2.6637024871,0.2520565718|H,-2.882528714
 7,-3.8506400404,1.2477479739|H,-3.2157002727,-4.1955764258,-0.45676540
 68|C,-0.962564437,0.6782561088,0.4250221083|H,-0.2069856086,-0.8198456
 913,-0.9112882614|H,2.9657612766,-1.1736749088,0.5687695915|H,-1.47761
 66824,-1.728220466,1.5899049455|H,2.1001423229,-1.1426671049,-0.853721
 7647|C,-0.1391820867,1.8138070443,-0.0756776987|C,0.4610751777,2.73497
 03506,0.8050119415|C,0.1202554838,1.9715013313,-1.4510676694|C,1.28882
 09857,2.6318604593,-1.8627216795|C,1.6290162861,3.4076239266,0.4112736
 379|C,1.9823023209,3.4393968576,-0.947256759|H,-1.15437958,0.794378190
 4,1.4964367859|H,-1.9358412308,0.7199377716,-0.0723975543|H,0.04416167
 51,2.9352513399,1.7170635026|H,-0.5434761531,1.6290506211,-2.149712874
 9|H,1.6363533554,2.5179831652,-2.8174126957|H,2.220580193,3.8641906903
 ,1.1088659024|H,2.7363371956,4.0504317746,-1.2686333668||Version=IA32W
 -G03RevD.01|HF=0.0480472|RMSD=0.000e+000|RMSF=3.332e-005|Thermal=0.|Di
 pole=0.,0.,0.|PG=C01 [X(C11H14N2O2)]||@


 BLESSED ARE THOSE WHO NOUGHT EXPECT,
 FOR THEY SHALL NOT BE DISAPPOINTED..  WALCOT - ODE TO PITT
 Job cpu time:  0 days  0 hours  0 minutes  7.0 seconds.
 File lengths (MBytes):  RWF=     11 Int=      0 D2E=      0 Chk=      4 Scr=      1
 Normal termination of Gaussian 03 at Fri Mar 28 18:27:43 2008.
