 Entering Link 1 = C:\G03W\l1.exe PID=      1416.
  
 Copyright (c) 1988,1990,1992,1993,1995,1998,2003,2004, Gaussian, Inc.
                  All Rights Reserved.
  
 This is the Gaussian(R) 03 program.  It is based on the
 the Gaussian(R) 98 system (copyright 1998, Gaussian, Inc.),
 the Gaussian(R) 94 system (copyright 1995, Gaussian, Inc.),
 the Gaussian 92(TM) system (copyright 1992, Gaussian, Inc.),
 the Gaussian 90(TM) system (copyright 1990, Gaussian, Inc.),
 the Gaussian 88(TM) system (copyright 1988, Gaussian, Inc.),
 the Gaussian 86(TM) system (copyright 1986, Carnegie Mellon
 University), and the Gaussian 82(TM) system (copyright 1983,
 Carnegie Mellon University). Gaussian is a federally registered
 trademark of Gaussian, Inc.
  
 This software contains proprietary and confidential information,
 including trade secrets, belonging to Gaussian, Inc.
  
 This software is provided under written license and may be
 used, copied, transmitted, or stored only in accord with that
 written license.
  
 The following legend is applicable only to US Government
 contracts under FAR:
  
                    RESTRICTED RIGHTS LEGEND
  
 Use, reproduction and disclosure by the US Government is
 subject to restrictions as set forth in subparagraphs (a)
 and (c) of the Commercial Computer Software - Restricted
 Rights clause in FAR 52.227-19.
  
 Gaussian, Inc.
 340 Quinnipiac St., Bldg. 40, Wallingford CT 06492
  
  
 ---------------------------------------------------------------
 Warning -- This program may not be used in any manner that
 competes with the business of Gaussian, Inc. or will provide
 assistance to any competitor of Gaussian, Inc.  The licensee
 of this program is prohibited from giving any competitor of
 Gaussian, Inc. access to this program.  By using this program,
 the user acknowledges that Gaussian, Inc. is engaged in the
 business of creating and licensing software in the field of
 computational chemistry and represents and warrants to the
 licensee that it is not a competitor of Gaussian, Inc. and that
 it will not use this program in any manner prohibited above.
 ---------------------------------------------------------------
  

 Cite this work as:
 Gaussian 03, Revision D.01,
 M. J. Frisch, G. W. Trucks, H. B. Schlegel, G. E. Scuseria, 
 M. A. Robb, J. R. Cheeseman, J. A. Montgomery, Jr., T. Vreven, 
 K. N. Kudin, J. C. Burant, J. M. Millam, S. S. Iyengar, J. Tomasi, 
 V. Barone, B. Mennucci, M. Cossi, G. Scalmani, N. Rega, 
 G. A. Petersson, H. Nakatsuji, M. Hada, M. Ehara, K. Toyota, 
 R. Fukuda, J. Hasegawa, M. Ishida, T. Nakajima, Y. Honda, O. Kitao, 
 H. Nakai, M. Klene, X. Li, J. E. Knox, H. P. Hratchian, J. B. Cross, 
 V. Bakken, C. Adamo, J. Jaramillo, R. Gomperts, R. E. Stratmann, 
 O. Yazyev, A. J. Austin, R. Cammi, C. Pomelli, J. W. Ochterski, 
 P. Y. Ayala, K. Morokuma, G. A. Voth, P. Salvador, J. J. Dannenberg, 
 V. G. Zakrzewski, S. Dapprich, A. D. Daniels, M. C. Strain, 
 O. Farkas, D. K. Malick, A. D. Rabuck, K. Raghavachari, 
 J. B. Foresman, J. V. Ortiz, Q. Cui, A. G. Baboul, S. Clifford, 
 J. Cioslowski, B. B. Stefanov, G. Liu, A. Liashenko, P. Piskorz, 
 I. Komaromi, R. L. Martin, D. J. Fox, T. Keith, M. A. Al-Laham, 
 C. Y. Peng, A. Nanayakkara, M. Challacombe, P. M. W. Gill, 
 B. Johnson, W. Chen, M. W. Wong, C. Gonzalez, and J. A. Pople, 
 Gaussian, Inc., Wallingford CT, 2004.
 
 ******************************************
 Gaussian 03:  IA32W-G03RevD.01 13-Oct-2005
                28-Mar-2008 
 ******************************************
 --------------
 # opt dreiding
 --------------
 1/6=10,10=10,14=-1,18=4000020,38=1,56=1,64=1/1,3;
 2/9=110,17=6,18=5,40=1/2;
 3/5=30,11=9,16=1,25=1,30=1/1;
 4/20=9,22=1001,24=3/2;
 7/44=-1/16;
 1/6=10,10=10,14=-1,18=4000020,64=1/3(2);
 2/9=110/2;
 99//99;
 2/9=110/2;
 3/5=30,11=9,16=1,25=1,30=1/1;
 4/16=2,20=9,22=1001,24=3/2;
 7/44=-1/16;
 1/6=10,10=10,14=-1,18=4000020,64=1/3(-4);
 2/9=110/2;
 99//99;
 -------------------
 propanediamine-tTTt
 -------------------
 Symbolic Z-matrix:
 Charge =  0 Multiplicity = 1
 C                     0.60798   0.72498   1.01014 
 N                     0.64098   2.16698   0.99114 
 H                     1.65798   0.34698   1.03414 
 H                     0.09498   0.39398   1.94314 
 H                     1.09998   2.50798   0.14814 
 H                    -0.30302   2.54998   0.96414 
 C                    -0.12502   0.17998  -0.22386 
 C                    -0.17202  -1.35402  -0.22686 
 N                    -0.86502  -1.84302  -1.39486 
 H                    -0.70202  -1.72702   0.68114 
 H                     0.86098  -1.77302  -0.22786 
 H                    -1.81602  -1.47602  -1.43186 
 H                    -0.41202  -1.51802  -2.24786 
 H                    -1.16602   0.58398  -0.24486 
 H                     0.38798   0.53798  -1.14886 
 
 Include all MM classes
 MMInit generated parameter data with length LenPar=  1481.

 GradGradGradGradGradGradGradGradGradGradGradGradGradGradGradGradGradGrad
 Berny optimization.
 Initialization pass.
 No Z-matrix variables, so optimization will use Cartesian coordinates.
 Trust Radius=1.00D-01 FncErr=1.00D-07 GrdErr=1.00D-07
 Number of steps in this run=   2 maximum allowed number of steps=   2.
 GradGradGradGradGradGradGradGradGradGradGradGradGradGradGradGradGradGrad

                          Input orientation:                          
 ---------------------------------------------------------------------
 Center     Atomic     Atomic              Coordinates (Angstroms)
 Number     Number      Type              X           Y           Z
 ---------------------------------------------------------------------
    1          6      10061003        0.607976    0.724976    1.010143
    2          7      10071003        0.640976    2.166976    0.991143
    3          1      10011000        1.657976    0.346976    1.034143
    4          1      10011000        0.094976    0.393976    1.943143
    5          1      10011000        1.099976    2.507976    0.148143
    6          1      10011000       -0.303024    2.549976    0.964143
    7          6      10061003       -0.125024    0.179976   -0.223857
    8          6      10061003       -0.172024   -1.354024   -0.226857
    9          7      10071003       -0.865024   -1.843024   -1.394857
   10          1      10011000       -0.702024   -1.727024    0.681143
   11          1      10011000        0.860976   -1.773024   -0.227857
   12          1      10011000       -1.816024   -1.476024   -1.431857
   13          1      10011000       -0.412024   -1.518024   -2.247857
   14          1      10011000       -1.166024    0.583976   -0.244857
   15          1      10011000        0.387976    0.537976   -1.148857
 ---------------------------------------------------------------------
                    Distance matrix (angstroms):
                    1          2          3          4          5
     1  C    0.000000
     2  N    1.442503   0.000000
     3  H    1.116226   2.085315   0.000000
     4  H    1.114997   2.085174   1.808718   0.000000
     5  H    2.040636   1.018632   2.401308   2.949754   0.000000
     6  H    2.040260   1.019095   2.950192   2.401079   1.623585
     7  C    1.535275   2.451765   2.188502   2.188626   2.656801
     8  C    2.541812   3.813389   2.798646   2.799231   4.083338
     9  N    3.814234   4.903176   4.130577   4.131345   5.017298
    10  H    2.799401   4.130737   3.161595   2.593549   4.633197
    11  H    2.799403   4.130128   2.592731   3.161627   4.304121
    12  H    4.084549   5.017891   4.633914   4.305746   5.183793
    13  H    4.084852   5.017884   4.305189   4.634358   4.922970
    14  H    2.177609   2.701635   3.109178   2.532502   2.998496
    15  H    2.178222   2.701342   2.532759   3.109188   2.463748
                    6          7          8          9         10
     6  H    0.000000
     7  C    2.657053   0.000000
     8  C    4.083731   1.534723   0.000000
     9  N    5.017885   2.451810   1.443466   0.000000
    10  H    4.304883   2.188288   1.115568   2.085618   0.000000
    11  H    4.632935   2.187789   1.114743   2.084674   1.808692
    12  H    4.923277   2.657269   2.041971   1.020029   2.401826
    13  H    5.184347   2.657470   2.041797   1.019040   2.950732
    14  H    2.464063   1.116843   2.178119   2.702486   2.532488
    15  H    2.998399   1.116673   2.177923   2.701793   3.109216
                   11         12         13         14         15
    11  H    0.000000
    12  H    2.950280   0.000000
    13  H    2.401240   1.624449   0.000000
    14  H    3.108773   2.464766   2.999821   0.000000
    15  H    2.532329   2.998983   2.464739   1.798402   0.000000
 Stoichiometry    C3H10N2
 Framework group  C1[X(C3H10N2)]
 Deg. of freedom    39
 Full point group                 C1
 Largest Abelian subgroup         C1      NOp   1
 Largest concise Abelian subgroup C1      NOp   1
                         Standard orientation:                         
 ---------------------------------------------------------------------
 Center     Atomic     Atomic              Coordinates (Angstroms)
 Number     Number      Type              X           Y           Z
 ---------------------------------------------------------------------
    1          6      10061003       -1.271233    0.547340    0.000365
    2          7      10071003       -2.451410   -0.282114   -0.000408
    3          1      10011000       -1.296269    1.199733   -0.905017
    4          1      10011000       -1.297040    1.200440    0.903700
    5          1      10011000       -2.460996   -0.898116   -0.811618
    6          1      10011000       -2.461559   -0.897336    0.811967
    7          6      10061003        0.000156   -0.313264    0.000335
    8          6      10061003        1.270579    0.547781   -0.000214
    9          7      10071003        2.451766   -0.281913   -0.000236
   10          1      10011000        1.296509    1.200388    0.904178
   11          1      10011000        1.296461    1.199106   -0.904514
   12          1      10011000        2.461719   -0.897871    0.812756
   13          1      10011000        2.461974   -0.898254   -0.811693
   14          1      10011000       -0.000294   -0.974877    0.900117
   15          1      10011000       -0.000011   -0.976167   -0.898284
 ---------------------------------------------------------------------
 Rotational constants (GHZ):     17.3366841      2.0554022      1.9448163
 Standard basis: Dummy (5D, 7F)
 There are    15 symmetry adapted basis functions of A   symmetry.
 Integral buffers will be    262144 words long.
 Raffenetti 1 integral format.
 Two-electron integral symmetry is turned on.
    15 basis functions,    15 primitive gaussians,    15 cartesian basis functions
     9 alpha electrons        9 beta electrons
       nuclear repulsion energy        35.5008241262 Hartrees.
 NAtoms=   15 NActive=   15 NUniq=   15 SFac= 7.50D-01 NAtFMM=   80 NAOKFM=F Big=F
 Dreiding calculation of energy and first derivatives.
 MO and density RWFs will be updated without deorthogonalization.
 NRF= 0 NRA=   0 NVA=  15 HaveQM=F
 Convergence limit is  0.750E-04 MaxStp=  5000 StMxLn= 1.00D-04 StpMin= 1.00D-06.
 Convergence criteria           0.00011250 0.00007500 0.00045000 0.00030000
  Step  NS  ND Rises OKQ   Scale  Max. Force  RMS Force Max. Disp.  RMS Disp.     Energy   Flag
     1   0   0   F    T  1.00D+00 0.02486153 0.00956768 0.02486153 0.00956768    0.0173045 ----
     2   0   0   F    F  2.27D-01 0.02486153 0.00956768 0.02486153 0.00956768    0.0148650 ----
     3   0   0   F    T  3.15D+00 0.00824527 0.00350334 0.01085738 0.00373081    0.0147789 ----
     4   0   0   F    F  2.69D-01 0.00824527 0.00350334 0.03415308 0.01173567    0.0137207 ----
     5   0   0   F    T  5.00D+00 0.00668038 0.00240935 0.00826873 0.00297910    0.0136704 ----
     6   0   0   F    F -4.49D-01 0.00668038 0.00240935 0.04134713 0.01489674    0.0135503 ----
     7   0   0   F    T  5.00D+00 0.00317240 0.00134962 0.00437574 0.00164046    0.0133100 ----
     8   0   0   F    F -1.39D-02 0.00317240 0.00134962 0.02189592 0.00820874    0.0131081 ----
     9   0   0   F    T  1.63D+00 0.00591718 0.00221841 0.01454181 0.00496018    0.0131080 ----
    10   0   0   F    F  2.54D+00 0.00591718 0.00221841 0.02373167 0.00809482    0.0127982 ----
    11   0   0   F    F -2.65D-03 0.00591718 0.00221841 0.06017551 0.02052574    0.0124719 ----
    12   0   0   F    T  1.62D+01 0.00259689 0.00107810 0.00432353 0.00176452    0.0124719 ----
    13   0   0   T    F  1.69D-01 0.00259689 0.00107810 0.06999453 0.02856620    0.0141192 ----
    14   0   0   F    T  3.14D+00 0.00233463 0.00090211 0.00321354 0.00153925    0.0124003 ----
    15   0   0   F    F -1.68D-01 0.00233463 0.00090211 0.01008518 0.00483070    0.0123545 ----
    16   0   0   F    T  3.11D+00 0.00196075 0.00074673 0.00272639 0.00129383    0.0123525 ----
    17   0   0   F    F -1.56D-01 0.00196075 0.00074673 0.00846921 0.00401914    0.0123207 ----
    18   0   0   F    T  4.62D+00 0.00129047 0.00048649 0.00138278 0.00073362    0.0123196 ----
    19   0   0   F    F  3.18D-02 0.00129047 0.00048649 0.00639531 0.00339296    0.0122942 ----
    20   0   0   F    T  2.95D+00 0.00217209 0.00057831 0.00228977 0.00118714    0.0122942 ----
    21   0   0   F    F -2.52D-01 0.00217209 0.00057831 0.00675261 0.00350091    0.0122795 ----
    22   0   0   F    T  5.74D+00 0.00090425 0.00030779 0.00118151 0.00045604    0.0122776 ----
    23   0   0   F    T  2.24D+00 0.00144200 0.00047094 0.00232522 0.00116833    0.0122654 ----
    24   0   0   F    F  9.98D-01 0.00144200 0.00047094 0.00520953 0.00261759    0.0122487 ----
    25   0   0   F    T  6.26D+00 0.00097137 0.00037870 0.00189623 0.00083566    0.0122431 ----
    26   0   0   F    F -4.14D-01 0.00097137 0.00037870 0.01187007 0.00523107    0.0122372 ----
    27   0   0   F    T  2.34D+00 0.00127119 0.00045941 0.00278675 0.00131336    0.0122313 ----
    28   0   0   F    F  8.10D-01 0.00127119 0.00045941 0.00650801 0.00306714    0.0122152 ----
    29   0   0   F    T  3.73D+00 0.00154710 0.00047743 0.00336882 0.00148698    0.0122112 ----
    30   0   0   F    F -4.39D-01 0.00154710 0.00047743 0.01257510 0.00555058    0.0122070 ----
    31   0   0   F    T  1.05D+01 0.00069150 0.00018927 0.00069911 0.00029788    0.0122004 ---+
    32   0   0   T    F  1.45D-01 0.00069150 0.00018927 0.00730593 0.00311293    0.0122417 ----
    33   0   0   F    T  4.64D+00 0.00028125 0.00008063 0.00025116 0.00009715    0.0121992 --++
    34   0   0   F    F -2.03D-01 0.00028125 0.00008063 0.00116583 0.00045094    0.0121987 ----
    35   0   0   F    T  4.26D+00 0.00016658 0.00006192 0.00021940 0.00008437    0.0121987 -+++
    36   0   0   F    F -4.94D-01 0.00016658 0.00006192 0.00093486 0.00035950    0.0121987 -+--
    37   0   0   F    T  5.51D+00 0.00008012 0.00002811 0.00009083 0.00003305    0.0121985 ====
 Energy=    0.012198484653 NIter=   0.
 Dipole moment=       0.000000       0.000000       0.000000
 ***** Axes restored to original set *****
 -------------------------------------------------------------------
 Center     Atomic                   Forces (Hartrees/Bohr)
 Number     Number              X              Y              Z
 -------------------------------------------------------------------
    1          6           0.000056757   -0.000008202    0.000036925
    2          7          -0.000076826    0.000038251   -0.000038542
    3          1          -0.000040870   -0.000006102   -0.000003858
    4          1           0.000001955   -0.000012582   -0.000014142
    5          1           0.000012864   -0.000005252    0.000004426
    6          1           0.000042377   -0.000016762    0.000014504
    7          6           0.000051525    0.000049652    0.000008881
    8          6           0.000021279   -0.000001882    0.000018634
    9          7          -0.000017473   -0.000023815   -0.000070956
   10          1          -0.000000285   -0.000010526    0.000027686
   11          1           0.000006964   -0.000005310    0.000011813
   12          1          -0.000029829    0.000008734    0.000014693
   13          1           0.000014766   -0.000000690    0.000000384
   14          1          -0.000051917    0.000004352    0.000002516
   15          1           0.000008713   -0.000009866   -0.000012965
 -------------------------------------------------------------------
 Cartesian Forces:  Max     0.000076826 RMS     0.000028108

 GradGradGradGradGradGradGradGradGradGradGradGradGradGradGradGradGradGrad
 Berny optimization.
 Search for a local minimum.
 Step number   1 out of a maximum of   2
 All quantities printed in internal units (Hartrees-Bohrs-Radians)
 Second derivative matrix not updated -- unit matrix used.
 RFO step:  Lambda=-3.55533783D-08.
 Linear search not attempted -- first point.
 TrRot=  0.000000  0.000000  0.000000  0.000000  0.000000  0.000000
 Variable       Old X    -DE/DX   Delta X   Delta X   Delta X     New X
                                 (Linear)    (Quad)   (Total)
    X1        1.15105   0.00006   0.00000   0.00006   0.00006   1.15111
    Y1        1.42185  -0.00001   0.00000  -0.00001  -0.00001   1.42184
    Z1        1.90769   0.00004   0.00000   0.00004   0.00004   1.90773
    X2        1.27224  -0.00008   0.00000  -0.00008  -0.00008   1.27216
    Y2        4.21167   0.00004   0.00000   0.00004   0.00004   4.21171
    Z2        1.97286  -0.00004   0.00000  -0.00004  -0.00004   1.97282
    X3        3.08355  -0.00004   0.00000  -0.00004  -0.00004   3.08350
    Y3        0.69187  -0.00001   0.00000  -0.00001  -0.00001   0.69187
    Z3        1.94785   0.00000   0.00000   0.00000   0.00000   1.94785
    X4        0.19958   0.00000   0.00000   0.00000   0.00000   0.19958
    Y4        0.77784  -0.00001   0.00000  -0.00001  -0.00001   0.77782
    Z4        3.62484  -0.00001   0.00000  -0.00001  -0.00001   3.62483
    X5        2.17620   0.00001   0.00000   0.00001   0.00001   2.17621
    Y5        4.86298  -0.00001   0.00000  -0.00001  -0.00001   4.86297
    Z5        0.38859   0.00000   0.00000   0.00000   0.00000   0.38860
    X6       -0.52111   0.00004   0.00000   0.00004   0.00004  -0.52107
    Y6        4.94342  -0.00002   0.00000  -0.00002  -0.00002   4.94341
    Z6        1.95686   0.00001   0.00000   0.00001   0.00001   1.95687
    X7       -0.24679   0.00005   0.00000   0.00005   0.00005  -0.24674
    Y7        0.35523   0.00005   0.00000   0.00005   0.00005   0.35528
    Z7       -0.44152   0.00001   0.00000   0.00001   0.00001  -0.44151
    X8       -0.35107   0.00002   0.00000   0.00002   0.00002  -0.35105
    Y8       -2.57699   0.00000   0.00000   0.00000   0.00000  -2.57699
    Z8       -0.47177   0.00002   0.00000   0.00002   0.00002  -0.47175
    X9       -1.67407  -0.00002   0.00000  -0.00002  -0.00002  -1.67409
    Y9       -3.63148  -0.00002   0.00000  -0.00002  -0.00002  -3.63150
    Z9       -2.69412  -0.00007   0.00000  -0.00007  -0.00007  -2.69420
   X10       -1.31278   0.00000   0.00000   0.00000   0.00000  -1.31278
   Y10       -3.24796  -0.00001   0.00000  -0.00001  -0.00001  -3.24797
   Z10        1.22914   0.00003   0.00000   0.00003   0.00003   1.22917
   X11        1.57138   0.00001   0.00000   0.00001   0.00001   1.57139
   Y11       -3.33330  -0.00001   0.00000  -0.00001  -0.00001  -3.33330
   Z11       -0.44732   0.00001   0.00000   0.00001   0.00001  -0.44731
   X12       -3.49165  -0.00003   0.00000  -0.00003  -0.00003  -3.49168
   Y12       -2.96495   0.00001   0.00000   0.00001   0.00001  -2.96494
   Z12       -2.74900   0.00001   0.00000   0.00001   0.00001  -2.74898
   X13       -0.79423   0.00001   0.00000   0.00001   0.00001  -0.79422
   Y13       -3.04498   0.00000   0.00000   0.00000   0.00000  -3.04498
   Z13       -4.31681   0.00000   0.00000   0.00000   0.00000  -4.31680
   X14       -2.17515  -0.00005   0.00000  -0.00005  -0.00005  -2.17520
   Y14        1.09516   0.00000   0.00000   0.00000   0.00000   1.09516
   Z14       -0.46732   0.00000   0.00000   0.00000   0.00000  -0.46732
   X15        0.71534   0.00001   0.00000   0.00001   0.00001   0.71535
   Y15        1.00965  -0.00001   0.00000  -0.00001  -0.00001   1.00964
   Z15       -2.14835  -0.00001   0.00000  -0.00001  -0.00001  -2.14836
         Item               Value     Threshold  Converged?
 Maximum Force            0.000077     0.000450     YES
 RMS     Force            0.000028     0.000300     YES
 Maximum Displacement     0.000077     0.001800     YES
 RMS     Displacement     0.000028     0.001200     YES
 Predicted change in Energy=-1.777669D-08
 Optimization completed.
    -- Stationary point found.
 GradGradGradGradGradGradGradGradGradGradGradGradGradGradGradGradGradGrad

                          Input orientation:                          
 ---------------------------------------------------------------------
 Center     Atomic     Atomic              Coordinates (Angstroms)
 Number     Number      Type              X           Y           Z
 ---------------------------------------------------------------------
    1          6      10061003        0.609109    0.752411    1.009506
    2          7      10071003        0.673240    2.228719    1.043993
    3          1      10011000        1.631742    0.366124    1.030758
    4          1      10011000        0.105614    0.411613    1.918183
    5          1      10011000        1.151595    2.573378    0.205635
    6          1      10011000       -0.275761    2.615946    1.035523
    7          6      10061003       -0.130594    0.187980   -0.233641
    8          6      10061003       -0.185779   -1.363683   -0.249650
    9          7      10071003       -0.885879   -1.921697   -1.425669
   10          1      10011000       -0.694695   -1.718746    0.650433
   11          1      10011000        0.831539   -1.763905   -0.236713
   12          1      10011000       -1.847704   -1.568984   -1.454707
   13          1      10011000       -0.420289   -1.611331   -2.284355
   14          1      10011000       -1.151037    0.579532   -0.247297
   15          1      10011000        0.378542    0.534285   -1.136857
 ---------------------------------------------------------------------
                    Distance matrix (angstroms):
                    1          2          3          4          5
     1  C    0.000000
     2  N    1.478103   0.000000
     3  H    1.093365   2.094794   0.000000
     4  H    1.093318   2.094823   1.765972   0.000000
     5  H    2.063110   1.024919   2.404857   2.949598   0.000000
     6  H    2.063114   1.024997   2.949625   2.404916   1.651627
     7  C    1.552791   2.538329   2.176297   2.176271   2.743556
     8  C    2.587503   3.913665   2.816924   2.817106   4.182858
     9  N    3.913556   5.075040   4.196018   4.196277   5.197899
    10  H    2.816994   4.196262   3.147005   2.605017   4.693502
    11  H    2.816804   4.195988   2.604579   3.146970   4.371514
    12  H    4.182959   5.198192   4.693476   4.372025   5.376959
    13  H    4.182877   5.198047   4.371628   4.693634   5.116900
    14  H    2.169691   2.777631   3.069662   2.509317   3.079397
    15  H    2.169704   2.777420   2.509450   3.069659   2.560820
                    6          7          8          9         10
     6  H    0.000000
     7  C    2.743515   0.000000
     8  C    4.182967   1.552726   0.000000
     9  N    5.198069   2.538133   1.478019   0.000000
    10  H    4.371882   2.176097   1.093259   2.094741   0.000000
    11  H    4.693378   2.176135   1.093290   2.094765   1.765916
    12  H    5.117215   2.743426   2.063081   1.024870   2.404885
    13  H    5.377021   2.743514   2.063092   1.024911   2.949546
    14  H    2.561000   1.093071   2.169749   2.777591   2.509232
    15  H    3.079068   1.093136   2.169764   2.777412   3.069591
                   11         12         13         14         15
    11  H    0.000000
    12  H    2.949550   0.000000
    13  H    2.404827   1.651552   0.000000
    14  H    3.069596   2.561114   3.079526   0.000000
    15  H    2.509411   3.079113   2.560967   1.770022   0.000000
 Stoichiometry    C3H10N2
 Framework group  C1[X(C3H10N2)]
 Deg. of freedom    39
 Full point group                 C1
 Largest Abelian subgroup         C1      NOp   1
 Largest concise Abelian subgroup C1      NOp   1
                         Standard orientation:                         
 ---------------------------------------------------------------------
 Center     Atomic     Atomic              Coordinates (Angstroms)
 Number     Number      Type              X           Y           Z
 ---------------------------------------------------------------------
    1          6      10061003       -1.293734    0.532723    0.000014
    2          7      10071003       -2.537558   -0.265833   -0.000129
    3          1      10011000       -1.302328    1.177360   -0.883058
    4          1      10011000       -1.302538    1.177511    0.882915
    5          1      10011000       -2.558408   -0.872599   -0.825876
    6          1      10011000       -2.558574   -0.872544    0.825751
    7          6      10061003        0.000060   -0.325914    0.000245
    8          6      10061003        1.293769    0.532733    0.000002
    9          7      10071003        2.537482   -0.265840   -0.000105
   10          1      10011000        1.302479    1.177422    0.882904
   11          1      10011000        1.302251    1.177323   -0.883012
   12          1      10011000        2.558641   -0.872517    0.825638
   13          1      10011000        2.558492   -0.872504   -0.825914
   14          1      10011000       -0.000021   -0.967277    0.885375
   15          1      10011000       -0.000031   -0.967719   -0.884646
 ---------------------------------------------------------------------
 Rotational constants (GHZ):     18.0020561      1.9348289      1.8422122
 1|1|UNPC-UNK|FOpt|Dreiding|ZDO|C3H10N2|PCUSER|28-Mar-2008|0||# opt dre
 iding||propanediamine-tTTt||0,1|C,0.6091092066,0.7524107378,1.00950646
 67|N,0.6732395335,2.2287189554,1.0439930054|H,1.6317417682,0.366124312
 ,1.0307576449|H,0.1056141451,0.4116128804,1.9181831078|H,1.1515952505,
 2.5733782078,0.2056349176|H,-0.2757610034,2.6159464177,1.0355231277|C,
 -0.1305941685,0.1879797179,-0.2336411957|C,-0.1857791788,-1.3636825155
 ,-0.2496502241|N,-0.8858785515,-1.921696731,-1.425669143|H,-0.69469508
 63,-1.7187457036,0.6504332992|H,0.8315392076,-1.7639049772,-0.23671271
 08|H,-1.8477038896,-1.5689839072,-1.4547066778|H,-0.4202886602,-1.6113
 314074,-2.284354984|H,-1.1510373346,0.5795317547,-0.2472968334|H,0.378
 5416113,0.5342851083,-1.1368569007||Version=IA32W-G03RevD.01|HF=0.0121
 985|RMSD=0.000e+000|RMSF=2.811e-005|Thermal=0.|Dipole=0.,0.,0.|PG=C01 
 [X(C3H10N2)]||@


 CHARLIE BROWN..'I CAN'T GET THAT STUPID KITE IN THE   
 AIR... I CAN'T... I C A N N O T...'                          
 LUCY..'OH COME NOW CHARLIE BROWN...THAT'S NO WAY TO TALK...  
 THE TROUBLE WITH YOU IS YOU DON'T BELIEVE IN YOURSELF... YOU 
 DON'T BELIEVE IN YOUR OWN ABILITIES...  YOU'VE GOT TO SAY TO 
 YOURSELF...'I BELIEVE I CAN FLY THIS KITE.'... GO AHEAD SAY  
 IT....'
 CHARLIE BROWN..'I BELIEVE THAT I CAN FLY THIS STUPID  
 KITE.....I BELIEVE THAT I CAN FLY THIS KITE........          
 I  A C T U A L L Y  B E L I E V E  T H A T  I  C A N ******' 
 LUCY..'I'LL BET YOU TEN-TO-ONE YOU'RE WRONG.......'    SCHULZ
 Job cpu time:  0 days  0 hours  0 minutes  3.0 seconds.
 File lengths (MBytes):  RWF=     11 Int=      0 D2E=      0 Chk=      4 Scr=      1
 Normal termination of Gaussian 03 at Fri Mar 28 18:28:53 2008.
