 Entering Link 1 = C:\G03W\l1.exe PID=      3896.
  
 Copyright (c) 1988,1990,1992,1993,1995,1998,2003,2004, Gaussian, Inc.
                  All Rights Reserved.
  
 This is the Gaussian(R) 03 program.  It is based on the
 the Gaussian(R) 98 system (copyright 1998, Gaussian, Inc.),
 the Gaussian(R) 94 system (copyright 1995, Gaussian, Inc.),
 the Gaussian 92(TM) system (copyright 1992, Gaussian, Inc.),
 the Gaussian 90(TM) system (copyright 1990, Gaussian, Inc.),
 the Gaussian 88(TM) system (copyright 1988, Gaussian, Inc.),
 the Gaussian 86(TM) system (copyright 1986, Carnegie Mellon
 University), and the Gaussian 82(TM) system (copyright 1983,
 Carnegie Mellon University). Gaussian is a federally registered
 trademark of Gaussian, Inc.
  
 This software contains proprietary and confidential information,
 including trade secrets, belonging to Gaussian, Inc.
  
 This software is provided under written license and may be
 used, copied, transmitted, or stored only in accord with that
 written license.
  
 The following legend is applicable only to US Government
 contracts under FAR:
  
                    RESTRICTED RIGHTS LEGEND
  
 Use, reproduction and disclosure by the US Government is
 subject to restrictions as set forth in subparagraphs (a)
 and (c) of the Commercial Computer Software - Restricted
 Rights clause in FAR 52.227-19.
  
 Gaussian, Inc.
 340 Quinnipiac St., Bldg. 40, Wallingford CT 06492
  
  
 ---------------------------------------------------------------
 Warning -- This program may not be used in any manner that
 competes with the business of Gaussian, Inc. or will provide
 assistance to any competitor of Gaussian, Inc.  The licensee
 of this program is prohibited from giving any competitor of
 Gaussian, Inc. access to this program.  By using this program,
 the user acknowledges that Gaussian, Inc. is engaged in the
 business of creating and licensing software in the field of
 computational chemistry and represents and warrants to the
 licensee that it is not a competitor of Gaussian, Inc. and that
 it will not use this program in any manner prohibited above.
 ---------------------------------------------------------------
  

 Cite this work as:
 Gaussian 03, Revision D.01,
 M. J. Frisch, G. W. Trucks, H. B. Schlegel, G. E. Scuseria, 
 M. A. Robb, J. R. Cheeseman, J. A. Montgomery, Jr., T. Vreven, 
 K. N. Kudin, J. C. Burant, J. M. Millam, S. S. Iyengar, J. Tomasi, 
 V. Barone, B. Mennucci, M. Cossi, G. Scalmani, N. Rega, 
 G. A. Petersson, H. Nakatsuji, M. Hada, M. Ehara, K. Toyota, 
 R. Fukuda, J. Hasegawa, M. Ishida, T. Nakajima, Y. Honda, O. Kitao, 
 H. Nakai, M. Klene, X. Li, J. E. Knox, H. P. Hratchian, J. B. Cross, 
 V. Bakken, C. Adamo, J. Jaramillo, R. Gomperts, R. E. Stratmann, 
 O. Yazyev, A. J. Austin, R. Cammi, C. Pomelli, J. W. Ochterski, 
 P. Y. Ayala, K. Morokuma, G. A. Voth, P. Salvador, J. J. Dannenberg, 
 V. G. Zakrzewski, S. Dapprich, A. D. Daniels, M. C. Strain, 
 O. Farkas, D. K. Malick, A. D. Rabuck, K. Raghavachari, 
 J. B. Foresman, J. V. Ortiz, Q. Cui, A. G. Baboul, S. Clifford, 
 J. Cioslowski, B. B. Stefanov, G. Liu, A. Liashenko, P. Piskorz, 
 I. Komaromi, R. L. Martin, D. J. Fox, T. Keith, M. A. Al-Laham, 
 C. Y. Peng, A. Nanayakkara, M. Challacombe, P. M. W. Gill, 
 B. Johnson, W. Chen, M. W. Wong, C. Gonzalez, and J. A. Pople, 
 Gaussian, Inc., Wallingford CT, 2004.
 
 ******************************************
 Gaussian 03:  IA32W-G03RevD.01 13-Oct-2005
                11-Mar-2008 
 ******************************************
 --------------
 # opt dreiding
 --------------
 1/6=10,10=10,14=-1,18=4000020,38=1,56=1,64=1/1,3;
 2/9=110,17=6,18=5,40=1/2;
 3/5=30,11=9,16=1,25=1,30=1/1;
 4/20=9,22=1001,24=3/2;
 7/44=-1/16;
 1/6=10,10=10,14=-1,18=4000020,64=1/3(2);
 2/9=110/2;
 99//99;
 2/9=110/2;
 3/5=30,11=9,16=1,25=1,30=1/1;
 4/16=2,20=9,22=1001,24=3/2;
 7/44=-1/16;
 1/6=10,10=10,14=-1,18=4000020,64=1/3(-4);
 2/9=110/2;
 99//99;
 ---------------------
 BisSiMe3-cycl-diaxial
 ---------------------
 Symbolic Z-matrix:
 Charge =  0 Multiplicity = 1
 C                    -1.12452  -1.53763  -0.52509 
 C                    -0.75252  -0.09163  -0.14709 
 C                     0.75648   0.07538   0.13591 
 C                    -0.23752  -2.12763  -1.62709 
 C                     1.63548  -0.60363  -0.93009 
 C                     1.23748  -2.05563  -1.21509 
 Si                   -1.48652   1.24838  -1.28809 
 C                    -0.50752   1.51238  -2.87209 
 C                    -3.26752   0.81738  -1.73309 
 C                    -1.49352   2.87838  -0.32809 
 Si                    1.25748  -0.28963   1.93991 
 C                     0.60748  -1.93163   2.58791 
 C                     3.13548  -0.26363   2.10891 
 C                     0.54548   1.08838   3.02291 
 H                    -2.19652  -1.60963  -0.82209 
 H                    -1.02852  -2.19163   0.37191 
 H                    -1.31852   0.14138   0.78491 
 H                     1.00648   1.16238   0.09991 
 H                    -0.39652  -1.57463  -2.58109 
 H                    -0.52452  -3.18962  -1.81909 
 H                     2.71348  -0.55463  -0.64809 
 H                     1.56148  -0.03863  -1.88709 
 H                     1.41448  -2.68363  -0.31209 
 H                     1.87748  -2.47363  -2.02909 
 H                    -1.04252   2.27638  -3.47809 
 H                     0.50648   1.88638  -2.60909 
 H                    -0.45052   0.55538  -3.43609 
 H                    -3.70452   1.67938  -2.28509 
 H                    -3.26652  -0.08863  -2.37909 
 H                    -3.83152   0.63238  -0.79109 
 H                    -1.95952   3.65838  -0.96909 
 H                    -2.08452   2.73338   0.60391 
 H                    -0.44252   3.15238  -0.08409 
 H                     0.99148  -2.06263   3.62391 
 H                    -0.50352  -1.89663   2.60291 
 H                     0.97648  -2.75663   1.93991 
 H                     3.38648  -0.34663   3.18991 
 H                     3.55748  -1.12863   1.55091 
 H                     3.51348   0.69838   1.69491 
 H                     0.86848   0.90838   4.07191 
 H                     0.93848   2.06237   2.65491 
 H                    -0.56452   1.06338   2.94791 
 
 Include all MM classes
 MMInit generated parameter data with length LenPar=  4769.

 GradGradGradGradGradGradGradGradGradGradGradGradGradGradGradGradGradGrad
 Berny optimization.
 Initialization pass.
 No Z-matrix variables, so optimization will use Cartesian coordinates.
 Trust Radius=1.00D-01 FncErr=1.00D-07 GrdErr=1.00D-07
 Number of steps in this run=   2 maximum allowed number of steps=   2.
 GradGradGradGradGradGradGradGradGradGradGradGradGradGradGradGradGradGrad

                          Input orientation:                          
 ---------------------------------------------------------------------
 Center     Atomic     Atomic              Coordinates (Angstroms)
 Number     Number      Type              X           Y           Z
 ---------------------------------------------------------------------
    1          6      10061003       -1.124516   -1.537625   -0.525094
    2          6      10061003       -0.752516   -0.091625   -0.147094
    3          6      10061003        0.756484    0.075375    0.135906
    4          6      10061003       -0.237516   -2.127625   -1.627094
    5          6      10061003        1.635484   -0.603625   -0.930094
    6          6      10061003        1.237484   -2.055625   -1.215094
    7         14      10141003       -1.486516    1.248375   -1.288094
    8          6      10061003       -0.507516    1.512375   -2.872094
    9          6      10061003       -3.267516    0.817375   -1.733094
   10          6      10061003       -1.493516    2.878375   -0.328094
   11         14      10141003        1.257484   -0.289625    1.939906
   12          6      10061003        0.607484   -1.931625    2.587906
   13          6      10061003        3.135484   -0.263625    2.108906
   14          6      10061003        0.545484    1.088375    3.022906
   15          1      10011000       -2.196516   -1.609625   -0.822094
   16          1      10011000       -1.028516   -2.191625    0.371906
   17          1      10011000       -1.318516    0.141375    0.784906
   18          1      10011000        1.006484    1.162375    0.099906
   19          1      10011000       -0.396516   -1.574625   -2.581094
   20          1      10011000       -0.524516   -3.189625   -1.819094
   21          1      10011000        2.713484   -0.554625   -0.648094
   22          1      10011000        1.561484   -0.038625   -1.887094
   23          1      10011000        1.414484   -2.683625   -0.312094
   24          1      10011000        1.877484   -2.473625   -2.029094
   25          1      10011000       -1.042516    2.276375   -3.478094
   26          1      10011000        0.506484    1.886375   -2.609094
   27          1      10011000       -0.450516    0.555375   -3.436094
   28          1      10011000       -3.704516    1.679375   -2.285094
   29          1      10011000       -3.266516   -0.088625   -2.379094
   30          1      10011000       -3.831516    0.632375   -0.791094
   31          1      10011000       -1.959516    3.658375   -0.969094
   32          1      10011000       -2.084516    2.733375    0.603906
   33          1      10011000       -0.442516    3.152375   -0.084094
   34          1      10011000        0.991484   -2.062625    3.623906
   35          1      10011000       -0.503516   -1.896625    2.602906
   36          1      10011000        0.976484   -2.756625    1.939906
   37          1      10011000        3.386484   -0.346625    3.189906
   38          1      10011000        3.557484   -1.128625    1.550906
   39          1      10011000        3.513484    0.698375    1.694906
   40          1      10011000        0.868484    0.908375    4.071906
   41          1      10011000        0.938484    2.062375    2.654906
   42          1      10011000       -0.564516    1.063375    2.947906
 ---------------------------------------------------------------------
                    Distance matrix (angstroms):
                    1          2          3          4          5
     1  C    0.000000
     2  C    1.540190   0.000000
     3  C    2.564537   1.544364   0.000000
     4  C    1.532734   2.569226   2.991557   0.000000
     5  C    2.941765   2.564718   1.539493   2.513268   0.000000
     6  C    2.514651   2.992995   2.568603   1.533151   1.532297
     7  Si   2.911187   1.906892   2.904265   3.615563   3.647595
     8  C    3.897640   3.171508   3.565211   3.856491   3.583472
     9  C    3.405545   3.109164   4.498478   4.226720   5.167539
    10  C    4.435767   3.066389   3.624170   5.322121   4.719891
    11  Si   3.647966   2.904285   1.907522   4.282144   2.911766
    12  C    3.584108   3.565869   3.172153   4.303332   3.898293
    13  C    5.168039   4.498407   3.109227   5.367432   3.406042
    14  C    4.719436   3.622997   3.066832   5.707736   4.435896
    15  H    1.114709   2.201155   3.532308   2.180374   3.963322
    16  H    1.114245   2.180719   2.895032   2.150762   3.363606
    17  H    2.138405   1.115020   2.175128   3.483485   3.496050
    18  H    3.495967   2.174306   1.115959   3.918439   2.138994
    19  H    2.181396   2.872348   3.381420   1.114094   2.792430
    20  H    2.182554   3.527772   4.015372   1.116726   3.484726
    21  H    3.963794   3.532496   2.200319   3.484418   1.115352
    22  H    3.364022   2.895687   2.180264   2.769101   1.113800
    23  H    2.793780   3.382540   2.871541   2.183453   2.181093
    24  H    3.485702   4.016559   3.527218   2.180492   2.182491
    25  H    4.824265   4.097205   4.598021   4.844527   4.685978
    26  H    4.327470   3.399854   3.298067   4.198816   3.208392
    27  H    3.648129   3.365610   3.800846   3.242891   3.460450
    28  H    4.483647   4.052381   5.323023   5.190983   5.963532
    29  H    3.181993   3.361849   4.747278   3.727984   5.137551
    30  H    3.479584   3.227871   4.713738   4.607964   5.606702
    31  H    5.281361   4.024305   4.629856   6.072565   5.575858
    32  H    4.520805   3.212297   3.918580   5.658453   5.227535
    33  H    4.759801   3.259387   3.309672   5.504659   4.375081
    34  H    4.686927   4.598567   4.097855   5.393298   4.825177
    35  H    3.209191   3.298867   3.400364   4.244646   4.327731
    36  H    3.460692   3.800952   3.364973   3.820069   3.647820
    37  H    5.963961   5.322773   4.052394   6.285605   4.484022
    38  H    5.137916   4.747070   3.361167   5.049724   3.181992
    39  H    5.607062   4.713366   3.227950   5.752561   3.480332
    40  H    5.575605   4.628996   4.024740   6.551270   5.281518
    41  H    5.227654   3.917959   3.213511   6.105293   4.521680
    42  H    4.374989   3.308836   3.260142   5.587489   4.760018
                    6          7          8          9         10
     6  C    0.000000
     7  Si   4.282747   0.000000
     8  C    4.303638   1.880743   0.000000
     9  C    5.368191   1.885669   3.065607   0.000000
    10  C    5.708720   1.891705   3.051244   3.060853   0.000000
    11  Si   3.615685   4.507212   5.433026   5.932285   4.769491
    12  C    3.856823   5.433287   6.551027   6.422123   6.004445
    13  C    4.226422   5.932001   6.421525   7.545060   6.102358
    14  C    5.322053   4.768579   6.003300   6.101799   4.311708
    15  H    3.485071   2.981513   4.099037   2.804869   4.569506
    16  H    2.769805   3.846942   4.951221   4.300957   5.139176
    17  H    3.919177   2.356056   3.988861   3.255135   2.959825
    18  H    3.483979   2.854643   3.353726   4.663260   3.062326
    19  H    2.183409   3.290787   3.102672   3.831894   5.109660
    20  H    2.180692   4.572007   4.818496   4.856696   6.323185
    21  H    2.180153   4.615237   4.426455   6.231530   5.439369
    22  H    2.150546   3.362361   2.767054   4.906699   4.502488
    23  H    1.114057   4.982871   5.277698   6.016425   6.276350
    24  H    1.116656   5.071377   4.720918   6.114681   6.549881
    25  H    5.393125   2.459679   1.112276   3.181875   3.238565
    26  H    4.244639   2.474699   1.112313   4.019106   3.191712
    27  H    3.820930   2.483435   1.112292   3.302172   4.017940
    28  H    6.286373   2.469675   3.254730   1.112977   3.186843
    29  H    5.050743   2.479163   3.227744   1.112723   4.019107
    30  H    5.753250   2.474973   4.019196   1.113411   3.274924
    31  H    6.552184   2.476609   3.214814   3.219603   1.111952
    32  H    6.105650   2.478405   4.007536   3.245322   1.113072
    33  H    5.587918   2.482895   3.235239   4.018961   1.113199
    34  H    4.845254   6.421133   7.564763   7.425021   6.797574
    35  H    4.199224   5.098744   6.449568   5.814326   5.689595
    36  H    3.242460   5.703190   6.601664   6.654017   6.557282
    37  H    5.190656   6.807543   7.440898   8.358621   6.825786
    38  H    3.727262   6.257155   6.562167   7.819987   6.715601
    39  H    4.607905   5.848144   6.139098   7.599165   5.823657
    40  H    6.072382   5.864403   7.104740   7.128310   5.368421
    41  H    5.658995   4.700050   5.739438   6.204434   3.934307
    42  H    5.505083   4.339125   5.837572   5.410960   3.858684
                   11         12         13         14         15
    11  Si   0.000000
    12  C    1.881108   0.000000
    13  C    1.885768   3.066341   0.000000
    14  C    1.891750   3.051798   3.061274   0.000000
    15  H    4.615318   4.426534   6.231589   5.438915   0.000000
    16  H    3.361848   2.766722   4.906450   4.501519   1.768780
    17  H    2.855794   3.355237   4.664238   3.062670   2.533640
    18  H    2.357309   3.990261   3.256102   2.960055   4.335121
    19  H    4.982608   5.277691   6.015800   6.275647   2.517003
    20  H    5.071056   4.720767   6.114430   6.549133   2.507188
    21  H    2.981259   4.099154   2.804249   4.569017   5.025077
    22  H    3.847252   4.951686   4.300711   5.139113   4.210087
    23  H    3.290500   3.102701   3.831381   5.109341   3.801697
    24  H    4.572441   4.819061   4.856924   6.323351   4.335991
    25  H    6.420987   7.564795   7.424409   6.796770   4.846344
    26  H    5.098272   6.449506   5.813232   5.688387   4.766717
    27  H    5.703741   6.602508   6.654110   6.557041   3.816901
    28  H    6.808012   7.441693   8.358713   6.825441   3.902814
    29  H    6.257854   6.563202   7.820382   6.715525   2.425405
    30  H    5.848621   6.139744   7.599467   5.823458   2.775023
    31  H    5.864987   7.105620   7.128478   5.368053   5.275377
    32  H    4.700254   5.739804   6.204469   3.933762   4.572490
    33  H    4.339809   5.838591   5.411136   3.858716   5.128138
    34  H    2.459703   1.112615   3.182509   3.238660   5.489578
    35  H    2.474498   1.111652   4.019085   3.191712   3.831350
    36  H    2.482952   1.112066   3.302255   4.017795   4.360296
    37  H    2.469492   3.255376   1.112857   3.187224   6.990079
    38  H    2.478960   3.228417   1.112508   4.019206   6.242676
    39  H    2.475016   4.019849   1.113429   3.274860   6.653289
    40  H    2.476277   3.214961   3.219665   1.112263   6.299665
    41  H    2.478889   4.008252   3.245797   1.112901   5.949902
    42  H    2.483215   3.236234   4.019310   1.112812   4.901148
                   16         17         18         19         20
    16  H    0.000000
    17  H    2.386956   0.000000
    18  H    3.932496   2.630074   0.000000
    19  H    3.082259   3.889048   4.080115   0.000000
    20  H    2.459777   4.301955   4.996641   1.790322   0.000000
    21  H    4.209838   4.335312   2.534056   3.801183   4.335794
    22  H    4.055440   3.932732   2.387173   2.583543   3.779527
    23  H    2.584215   4.080848   3.889463   3.107726   2.507350
    24  H    3.780101   4.997123   4.302532   2.506787   2.515226
    25  H    5.897942   4.775727   4.271005   4.006510   5.735657
    26  H    5.279457   4.230235   2.848308   3.576970   5.239545
    27  H    4.730852   4.329164   3.872285   2.295831   4.079852
    28  H    5.404190   4.181308   5.305566   4.649623   5.834100
    29  H    4.123015   3.722701   5.095976   3.238194   4.177124
    30  H    4.145402   3.006664   4.947830   4.458046   5.157588
    31  H    6.073512   3.982045   4.021186   5.694366   7.048179
    32  H    5.042280   2.708871   3.503761   5.617155   6.586840
    33  H    5.395338   3.254022   2.468513   5.346181   6.575554
    34  H    3.830476   4.272428   4.776968   6.377046   5.761478
    35  H    2.310846   2.850051   4.231145   5.195093   4.607209
    36  H    2.607273   3.872913   4.329557   4.870492   4.070697
    37  H    5.553141   5.306524   4.182055   7.008817   6.961943
    38  H    4.852979   5.096571   3.723128   5.736415   5.680435
    39  H    5.543662   4.948391   3.007386   6.224051   6.615904
    40  H    5.186387   4.021893   3.982505   7.213038   7.310125
    41  H    5.213223   3.504453   2.709732   6.513501   7.052698
    42  H    4.176853   2.469245   3.254066   6.128386   6.388576
                   21         22         23         24         25
    21  H    0.000000
    22  H    1.768751   0.000000
    23  H    2.516533   3.081925   0.000000
    24  H    2.507712   2.459521   1.790686   0.000000
    25  H    5.489171   3.830316   6.376677   5.760946   0.000000
    26  H    3.830777   2.310830   5.194764   4.607129   1.818423
    27  H    4.360727   2.607754   4.871214   4.071127   1.820458
    28  H    6.990082   5.553439   7.009469   6.962160   2.977566
    29  H    6.242909   4.853262   5.737445   5.680798   3.427419
    30  H    6.653303   5.543997   6.224613   6.616084   4.207283
    31  H    6.299948   5.187290   7.213632   7.310786   3.007639
    32  H    5.949727   5.213673   6.513520   7.052870   4.237610
    33  H    4.901049   4.177237   6.128567   6.388842   3.556208
    34  H    4.846579   5.898525   4.007077   5.736752   8.567525
    35  H    4.766451   5.279819   3.577054   5.239992   7.394796
    36  H    3.816244   4.730294   2.295360   4.079810   7.665649
    37  H    3.902107   5.403834   4.649124   5.834310   8.423681
    38  H    2.424338   4.122131   3.237475   4.177059   7.618718
    39  H    2.774826   4.145383   4.457777   5.158125   7.071573
    40  H    5.274732   6.073445   5.693859   7.048277   7.907329
    41  H    4.572649   5.043024   5.617311   6.587630   6.448554
    42  H    5.127809   5.395508   5.346405   6.576037   6.556930
                   26         27         28         29         30
    26  H    0.000000
    27  H    1.836121   0.000000
    28  H    4.228516   3.629971   0.000000
    29  H    4.264863   3.076011   1.823871   0.000000
    30  H    4.867842   4.293380   1.828763   1.833251   0.000000
    31  H    3.451194   4.241672   2.948444   4.211456   3.562688
    32  H    4.213557   4.871883   3.475865   4.273066   3.067937
    33  H    2.979762   4.240327   4.201758   4.872995   4.282005
    34  H    7.394600   7.666609   8.424444   7.619924   7.072240
    35  H    6.518906   6.518024   6.850308   5.976902   5.384298
    36  H    6.517035   6.473565   7.709765   6.616270   6.485410
    37  H    6.849021   7.709737   9.184911   8.680019   8.300983
    38  H    5.975318   6.615897   8.679655   7.943140   7.948799
    39  H    5.383104   6.485438   8.300740   7.948915   7.754584
    40  H    6.761900   7.631149   7.868813   7.727072   6.768674
    41  H    5.284628   6.426558   6.790268   6.902897   6.055800
    42  H    5.718795   6.405194   6.133787   6.083160   4.983891
                   31         32         33         34         35
    31  H    0.000000
    32  H    1.829092   0.000000
    33  H    1.827717   1.828953   0.000000
    34  H    7.907837   6.448550   6.557579   0.000000
    35  H    6.762924   5.285117   5.719798   1.817972   0.000000
    36  H    7.631160   6.426097   6.405187   1.821460   1.835639
    37  H    7.868737   6.790113   6.133785   2.978093   4.228377
    38  H    7.726775   6.902465   6.082778   3.428417   4.264768
    39  H    6.768473   6.055502   4.983663   4.207689   4.867728
    40  H    6.400919   4.906919   4.901693   3.007104   3.450851
    41  H    4.907035   3.714212   3.255362   4.237617   4.213757
    42  H    4.901320   3.254787   3.683996   3.556682   2.980662
                   36         37         38         39         40
    36  H    0.000000
    37  H    3.630248   0.000000
    38  H    3.076242   1.824030   0.000000
    39  H    4.293416   1.828436   1.833194   0.000000
    40  H    4.241381   2.948436   4.211357   3.562338   0.000000
    41  H    4.871902   3.475947   4.273226   3.068016   1.828799
    42  H    4.240654   4.202031   4.873126   4.281742   1.827810
                   41         42
    41  H    0.000000
    42  H    1.828349   0.000000
 Stoichiometry    C12H28Si2
 Framework group  C1[X(C12H28Si2)]
 Deg. of freedom   120
 Full point group                 C1
 Largest Abelian subgroup         C1      NOp   1
 Largest concise Abelian subgroup C1      NOp   1
                         Standard orientation:                         
 ---------------------------------------------------------------------
 Center     Atomic     Atomic              Coordinates (Angstroms)
 Number     Number      Type              X           Y           Z
 ---------------------------------------------------------------------
    1          6      10061003        0.576661    1.319166    1.353445
    2          6      10061003        0.548714    0.009584    0.543261
    3          6      10061003       -0.548668    0.010540   -0.543391
    4          6      10061003        0.598323    2.577516    0.478597
    5          6      10061003       -0.576359    1.319700   -1.352941
    6          6      10061003       -0.599334    2.577825   -0.478570
    7         14      10141003        2.252519   -0.590737   -0.067394
    8          6      10061003        2.834135    0.258333   -1.641559
    9          6      10061003        3.549266   -0.340882    1.278625
   10          6      10061003        2.114922   -2.444024   -0.420868
   11         14      10141003       -2.252675   -0.591006    0.067463
   12          6      10061003       -2.834543    0.257929    1.642045
   13          6      10061003       -3.549053   -0.341251   -1.279069
   14          6      10061003       -2.113883   -2.444318    0.420577
   15          1      10011000        1.438953    1.333561    2.059719
   16          1      10011000       -0.328398    1.373763    2.001077
   17          1      10011000        0.327124   -0.803135    1.273779
   18          1      10011000       -0.325877   -0.803109   -1.273942
   19          1      10011000        1.550224    2.624088   -0.098397
   20          1      10011000        0.567365    3.489439    1.122426
   21          1      10011000       -1.439414    1.333401   -2.059311
   22          1      10011000        0.327891    1.374666   -2.000907
   23          1      10011000       -1.551268    2.623720    0.098351
   24          1      10011000       -0.567919    3.489922   -1.122009
   25          1      10011000        3.847828   -0.131086   -1.882257
   26          1      10011000        2.131109    0.006410   -2.465895
   27          1      10011000        2.881776    1.356884   -1.473899
   28          1      10011000        4.495142   -0.820597    0.941120
   29          1      10011000        3.706596    0.750652    1.426790
   30          1      10011000        3.182727   -0.819574    2.214675
   31          1      10011000        3.114875   -2.813749   -0.736834
   32          1      10011000        1.785543   -2.954889    0.511578
   33          1      10011000        1.369194   -2.597160   -1.233057
   34          1      10011000       -3.848229   -0.132646    1.882471
   35          1      10011000       -2.131985    0.005894    2.465855
   36          1      10011000       -2.881739    1.356181    1.473803
   37          1      10011000       -4.494686   -0.821368   -0.941850
   38          1      10011000       -3.706071    0.750099   -1.427301
   39          1      10011000       -3.182222   -0.820218   -2.214885
   40          1      10011000       -3.114203   -2.814128    0.736378
   41          1      10011000       -1.784942   -2.955480   -0.511657
   42          1      10011000       -1.368300   -2.597845    1.232295
 ---------------------------------------------------------------------
 Rotational constants (GHZ):      0.7198267      0.3810622      0.3229268
 Standard basis: Dummy (5D, 7F)
 There are    42 symmetry adapted basis functions of A   symmetry.
 Integral buffers will be    262144 words long.
 Raffenetti 1 integral format.
 Two-electron integral symmetry is turned on.
    42 basis functions,    42 primitive gaussians,    42 cartesian basis functions
    28 alpha electrons       28 beta electrons
       nuclear repulsion energy       232.1944014904 Hartrees.
 NAtoms=   42 NActive=   42 NUniq=   42 SFac= 7.50D-01 NAtFMM=   80 NAOKFM=F Big=F
 Dreiding calculation of energy and first derivatives.
 MO and density RWFs will be updated without deorthogonalization.
 NRF= 0 NRA=   0 NVA=  42 HaveQM=F
 Convergence limit is  0.750E-04 MaxStp=  5000 StMxLn= 1.00D-04 StpMin= 1.00D-06.
 Convergence criteria           0.00011250 0.00007500 0.00045000 0.00030000
  Step  NS  ND Rises OKQ   Scale  Max. Force  RMS Force Max. Disp.  RMS Disp.     Energy   Flag
     1   0   0   F    T  1.00D+00 0.10859089 0.02932931 0.10859089 0.02932931    0.2088876 ----
     2   0   0   F    F  5.05D-01 0.10859089 0.02932931 0.10859089 0.02932931    0.1355319 ----
     3   0   0   F    F  2.19D-03 0.10859089 0.02932931 0.05484813 0.01481393    0.1259814 ----
     4   0   0   F    T  3.38D+00 0.03102662 0.01207594 0.02848753 0.01305949    0.1259813 ----
     5   0   0   F    F -3.73D-02 0.03102662 0.01207594 0.09636332 0.04417568    0.0961303 ----
     6   0   0   F    T  2.98D+00 0.03865914 0.01042178 0.03370853 0.01425669    0.0960856 ----
     7   0   0   F    F -4.30D-01 0.03865914 0.01042178 0.10055605 0.04252919    0.0910514 ----
     8   0   0   F    T  2.87D+00 0.01564378 0.00645699 0.01747675 0.00845751    0.0844423 ----
     9   0   0   F    F  1.00D+00 0.01564378 0.00645699 0.05012401 0.02425647    0.0731673 ----
    10   0   0   F    T  3.03D+00 0.03055030 0.00823720 0.03482155 0.01607383    0.0694079 ----
    11   0   0   F    F -2.37D-01 0.03055030 0.00823720 0.10534482 0.04862778    0.0604941 ----
    12   0   0   F    T  6.37D+00 0.01440943 0.00418196 0.01428085 0.00582001    0.0595378 ----
    13   0   0   T    F  3.90D-01 0.01440943 0.00418196 0.09101274 0.03709127    0.0635170 ----
    14   0   0   F    T  4.21D+00 0.00970442 0.00259845 0.00897037 0.00343355    0.0568025 ----
    15   0   0   T    F  4.96D-01 0.00970442 0.00259845 0.03775117 0.01444987    0.0568314 ----
    16   0   0   F    T  3.93D+00 0.00434894 0.00146294 0.00501036 0.00182463    0.0559152 ----
    17   0   0   F    F -2.62D-01 0.00434894 0.00146294 0.01967460 0.00716493    0.0555740 ----
    18   0   0   F    T  2.49D+00 0.00388679 0.00137618 0.00633961 0.00212148    0.0555247 ----
    19   0   0   F    F  9.52D-01 0.00388679 0.00137618 0.01579624 0.00528605    0.0550822 ----
    20   0   0   F    T  2.48D+00 0.00792173 0.00182675 0.01175337 0.00416288    0.0549439 ----
    21   0   0   F    F  6.06D-02 0.00792173 0.00182675 0.02912546 0.01031583    0.0543928 ----
    22   0   0   F    T  1.15D+01 0.00173816 0.00072025 0.00307775 0.00095084    0.0543910 ----
    23   0   0   T    F  2.17D-01 0.00173816 0.00072025 0.03541596 0.01094137    0.0553683 ----
    24   0   0   F    T  2.26D+00 0.00197390 0.00066665 0.00239831 0.00105321    0.0543093 ----
    25   0   0   F    F  1.36D+00 0.00197390 0.00066665 0.00541305 0.00237713    0.0542096 ----
    26   0   0   F    T  3.78D+00 0.00252563 0.00073803 0.00362096 0.00148802    0.0541599 ----
    27   0   0   F    F  1.94D-01 0.00252563 0.00073803 0.01366958 0.00561746    0.0540092 ----
    28   0   0   F    T  2.62D+00 0.00344608 0.00093378 0.00672833 0.00255691    0.0540051 ----
    29   0   0   F    F -1.67D-01 0.00344608 0.00093378 0.01765110 0.00670779    0.0538899 ----
    30   0   0   F    T  3.90D+00 0.00266618 0.00066043 0.00403251 0.00143187    0.0538850 ----
    31   0   0   F    F  5.10D-01 0.00266618 0.00066043 0.01573706 0.00558795    0.0537415 ----
    32   0   0   F    T  3.18D+00 0.00274374 0.00087308 0.00630095 0.00264951    0.0537231 ----
    33   0   0   F    F -2.53D-01 0.00274374 0.00087308 0.02006136 0.00843566    0.0536219 ----
    34   0   0   F    T  4.49D+00 0.00215783 0.00060368 0.00333838 0.00140538    0.0536088 ----
    35   0   0   F    F  3.92D-01 0.00215783 0.00060368 0.01497833 0.00630553    0.0534770 ----
    36   0   0   F    T  2.70D+00 0.00460066 0.00089900 0.00825917 0.00325077    0.0534656 ----
    37   0   0   F    F -7.92D-02 0.00460066 0.00089900 0.02230000 0.00877718    0.0533399 ----
    38   0   0   F    T  4.22D+00 0.00296145 0.00066709 0.00477909 0.00191424    0.0533390 ----
    39   0   0   F    F  2.24D-01 0.00296145 0.00066709 0.02017818 0.00808225    0.0531990 ----
    40   0   0   F    T  6.00D+00 0.00221393 0.00059767 0.00415877 0.00164870    0.0531942 ----
    41   0   0   F    F -4.41D-01 0.00221393 0.00059767 0.02495037 0.00989132    0.0531660 ----
    42   0   0   F    T  2.46D+00 0.00217481 0.00068197 0.00591473 0.00225014    0.0531187 ----
    43   0   0   F    F  1.86D-01 0.00217481 0.00068197 0.01452505 0.00552577    0.0530354 ----
    44   0   0   F    T  6.81D+00 0.00111960 0.00042497 0.00241068 0.00096304    0.0530333 ----
    45   0   0   T    F  4.35D-01 0.00111960 0.00042497 0.01640485 0.00655352    0.0530565 ----
    46   0   0   F    T  2.49D+00 0.00140516 0.00044477 0.00337607 0.00114435    0.0529997 ----
    47   0   0   F    F  4.27D-01 0.00140516 0.00044477 0.00840607 0.00284932    0.0529594 ----
    48   0   0   F    T  5.11D+00 0.00111806 0.00035097 0.00208695 0.00079536    0.0529554 ----
    49   0   0   F    F -3.07D-01 0.00111806 0.00035097 0.01066656 0.00406516    0.0529333 ----
    50   0   0   F    T  2.22D+00 0.00124088 0.00042988 0.00319595 0.00126927    0.0529280 ----
    51   0   0   F    F  7.32D-01 0.00124088 0.00042988 0.00709168 0.00281645    0.0528912 ----
    52   0   0   F    T  4.97D+00 0.00143275 0.00036385 0.00263933 0.00098121    0.0528832 ----
    53   0   0   F    F -2.18D-01 0.00143275 0.00036385 0.01312034 0.00487767    0.0528533 ----
    54   0   0   F    T  2.78D+00 0.00182265 0.00042027 0.00371468 0.00137440    0.0528508 ----
    55   0   0   F    F  5.29D-01 0.00182265 0.00042027 0.01031163 0.00381523    0.0528092 ----
    56   0   0   F    T  2.69D+00 0.00184545 0.00051972 0.00551921 0.00216640    0.0528036 ----
    57   0   0   F    F  5.88D-02 0.00184545 0.00051972 0.01485968 0.00583273    0.0527552 ----
    58   0   0   F    T  3.73D+00 0.00189492 0.00044606 0.00400573 0.00165676    0.0527550 ----
    59   0   0   F    F  1.44D+00 0.00189492 0.00044606 0.01493174 0.00617573    0.0526809 ----
    60   0   0   F    T  4.34D+00 0.00249964 0.00063960 0.00827011 0.00347677    0.0526415 ----
    61   0   0   T    F  4.69D-01 0.00249964 0.00063960 0.03587155 0.01508048    0.0526559 ----
    62   0   0   F    T  5.48D+00 0.00099149 0.00037746 0.00308829 0.00129158    0.0525891 ----
    63   0   0   T    F  4.00D-01 0.00099149 0.00037746 0.01692589 0.00707873    0.0526138 ----
    64   0   0   F    T  3.64D+00 0.00091441 0.00028230 0.00190541 0.00077737    0.0525694 ----
    65   0   0   F    F  8.33D-02 0.00091441 0.00028230 0.00693494 0.00282933    0.0525498 ----
    66   0   0   F    T  5.02D+00 0.00097021 0.00023985 0.00134129 0.00060998    0.0525496 ----
    67   0   0   T    F  4.79D-01 0.00097021 0.00023985 0.00673968 0.00306500    0.0525512 ----
    68   0   0   F    T  4.10D+00 0.00045834 0.00017218 0.00088265 0.00035849    0.0525409 ----
    69   0   0   F    F  4.64D-01 0.00045834 0.00017218 0.00361639 0.00146881    0.0525308 ----
    70   0   0   F    T  1.97D+00 0.00118125 0.00029472 0.00281421 0.00109097    0.0525297 ----
    71   0   0   F    F  1.13D+00 0.00118125 0.00029472 0.00554660 0.00215021    0.0525132 ----
    72   0   0   F    T  5.27D+00 0.00078728 0.00025718 0.00221998 0.00086952    0.0525068 ----
    73   0   0   F    F -2.90D-01 0.00078728 0.00025718 0.01169175 0.00457941    0.0524938 ----
    74   0   0   F    T  2.91D+00 0.00083969 0.00028654 0.00285981 0.00111769    0.0524912 ----
    75   0   0   F    F  3.28D-01 0.00083969 0.00028654 0.00832278 0.00325275    0.0524724 ----
    76   0   0   F    T  3.78D+00 0.00069513 0.00028488 0.00314981 0.00114317    0.0524712 ----
    77   0   0   F    F -1.05D-01 0.00069513 0.00028488 0.01190490 0.00432069    0.0524541 ----
    78   0   0   F    T  2.57D+00 0.00157359 0.00032304 0.00438576 0.00150633    0.0524539 ----
    79   0   0   F    F  1.65D-02 0.00157359 0.00032304 0.01126036 0.00386747    0.0524367 ----
    80   0   0   F    T  7.12D+00 0.00049575 0.00019012 0.00158829 0.00055209    0.0524367 ----
    81   0   0   F    F -3.81D-01 0.00049575 0.00019012 0.01130945 0.00393120    0.0524305 ----
    82   0   0   F    T  2.87D+00 0.00063407 0.00023146 0.00227988 0.00084910    0.0524267 ----
    83   0   0   F    F -1.62D-02 0.00063407 0.00023146 0.00653871 0.00243522    0.0524171 ----
    84   0   0   F    T  4.63D+00 0.00057698 0.00017558 0.00144488 0.00051782    0.0524171 ----
    85   0   0   F    F -1.14D-01 0.00057698 0.00017558 0.00668525 0.00239586    0.0524093 ----
    86   0   0   F    T  3.90D+00 0.00063972 0.00017526 0.00158568 0.00054424    0.0524092 ----
    87   0   0   F    F -1.96D-01 0.00063972 0.00017526 0.00618402 0.00212250    0.0524035 ----
    88   0   0   F    T  3.00D+00 0.00048353 0.00017474 0.00176180 0.00056960    0.0524031 ----
    89   0   0   F    F  3.93D-01 0.00048353 0.00017474 0.00528063 0.00170725    0.0523957 ----
    90   0   0   F    T  2.62D+00 0.00066050 0.00021688 0.00309713 0.00090657    0.0523951 ----
    91   0   0   F    F  6.37D-01 0.00066050 0.00021688 0.00812488 0.00237826    0.0523843 ----
    92   0   0   F    T  3.52D+00 0.00086906 0.00023589 0.00408061 0.00110542    0.0523824 ----
    93   0   0   F    F -3.27D-01 0.00086906 0.00023589 0.01437142 0.00389317    0.0523760 ----
    94   0   0   F    T  7.52D+00 0.00054951 0.00012820 0.00134038 0.00034854    0.0523741 ----
    95   0   0   T    F  4.68D-01 0.00054951 0.00012820 0.01007609 0.00262008    0.0523751 ----
    96   0   0   F    T  3.34D+00 0.00050204 0.00012751 0.00141762 0.00036697    0.0523704 ----
    97   0   0   F    F -3.92D-01 0.00050204 0.00012751 0.00473671 0.00122615    0.0523692 ----
    98   0   0   F    T  5.15D+00 0.00017878 0.00007428 0.00049573 0.00014459    0.0523683 -+-+
    99   0   0   F    F -2.39D-01 0.00017878 0.00007428 0.00255478 0.00074513    0.0523671 -+--
   100   0   0   F    T  2.52D+00 0.00036062 0.00008889 0.00077251 0.00022526    0.0523670 ---+
   101   0   0   F    F  2.23D-01 0.00036062 0.00008889 0.00194432 0.00056696    0.0523655 ----
   102   0   0   F    T  5.02D+00 0.00022329 0.00006534 0.00050268 0.00013830    0.0523654 -+-+
   103   0   0   F    F -3.04D-01 0.00022329 0.00006534 0.00252122 0.00069366    0.0523647 -+--
   104   0   0   F    T  4.51D+00 0.00018047 0.00005349 0.00039306 0.00010709    0.0523645 -+++
   105   0   0   F    F -4.08D-01 0.00018047 0.00005349 0.00177294 0.00048302    0.0523642 -+--
   106   0   0   F    T  2.51D+00 0.00021344 0.00005208 0.00040367 0.00011410    0.0523640 -+++
   107   0   0   F    F  1.24D+00 0.00021344 0.00005208 0.00101157 0.00028592    0.0523634 -+-+
   108   0   0   F    T  3.75D+00 0.00020591 0.00006149 0.00058638 0.00017050    0.0523631 -+-+
   109   0   0   F    F -4.50D-01 0.00020591 0.00006149 0.00219794 0.00063908    0.0523629 -+--
   110   0   0   F    T  4.14D+00 0.00012619 0.00004067 0.00028330 0.00008492    0.0523626 -+++
   111   0   0   F    T  2.84D+00 0.00018301 0.00004721 0.00040213 0.00012354    0.0523621 -+++
   112   0   0   F    T  4.94D+00 0.00009407 0.00003322 0.00024025 0.00007105    0.0523617 ====
 Energy=    0.052361738848 NIter=   0.
 Dipole moment=       0.000000       0.000000       0.000000
 ***** Axes restored to original set *****
 -------------------------------------------------------------------
 Center     Atomic                   Forces (Hartrees/Bohr)
 Number     Number              X              Y              Z
 -------------------------------------------------------------------
    1          6           0.000064337    0.000061038   -0.000008801
    2          6          -0.000039487   -0.000001444    0.000040460
    3          6          -0.000049284    0.000044931    0.000087150
    4          6          -0.000012003    0.000032730   -0.000037778
    5          6           0.000042053    0.000022301   -0.000044241
    6          6          -0.000001719   -0.000095529    0.000018384
    7         14          -0.000025326    0.000083220    0.000029431
    8          6          -0.000025356    0.000027140   -0.000027119
    9          6           0.000031142   -0.000009130   -0.000027917
   10          6           0.000012317   -0.000010817   -0.000011050
   11         14           0.000022183   -0.000007814    0.000057155
   12          6           0.000036626    0.000043240    0.000033341
   13          6          -0.000023579   -0.000019103    0.000001610
   14          6          -0.000034143    0.000052396    0.000020028
   15          1          -0.000079422   -0.000048530    0.000008173
   16          1          -0.000029720   -0.000072048    0.000039837
   17          1          -0.000020224   -0.000011671   -0.000005982
   18          1           0.000044231    0.000039592   -0.000022601
   19          1          -0.000060744   -0.000014178    0.000016948
   20          1           0.000044368   -0.000067565   -0.000021466
   21          1           0.000048310    0.000015456   -0.000027738
   22          1           0.000029711    0.000001484   -0.000040797
   23          1           0.000056798    0.000041176   -0.000009467
   24          1          -0.000021124   -0.000035951   -0.000041891
   25          1           0.000027905   -0.000002595   -0.000031750
   26          1          -0.000004454   -0.000018406   -0.000020792
   27          1          -0.000023166    0.000017433   -0.000019347
   28          1          -0.000003419   -0.000038440   -0.000018967
   29          1          -0.000012154    0.000037349   -0.000005302
   30          1          -0.000002798    0.000001834   -0.000031154
   31          1          -0.000019520    0.000046518    0.000007997
   32          1          -0.000016604   -0.000012828    0.000037505
   33          1           0.000022388    0.000008731    0.000015357
   34          1          -0.000024596   -0.000040276   -0.000003428
   35          1           0.000012501   -0.000030217   -0.000003636
   36          1           0.000020601   -0.000015060    0.000024757
   37          1           0.000014332   -0.000029125   -0.000044091
   38          1          -0.000002902    0.000015755    0.000039665
   39          1           0.000003058   -0.000045197    0.000023255
   40          1          -0.000000796    0.000023633    0.000021269
   41          1           0.000003332    0.000004383   -0.000014000
   42          1          -0.000003654    0.000005586   -0.000003005
 -------------------------------------------------------------------
 Cartesian Forces:  Max     0.000095529 RMS     0.000033215

 GradGradGradGradGradGradGradGradGradGradGradGradGradGradGradGradGradGrad
 Berny optimization.
 Search for a local minimum.
 Step number   1 out of a maximum of   2
 All quantities printed in internal units (Hartrees-Bohrs-Radians)
 Second derivative matrix not updated -- unit matrix used.
 RFO step:  Lambda=-1.39008268D-07.
 Linear search not attempted -- first point.
 TrRot=  0.000000  0.000000  0.000000  0.000000  0.000000  0.000000
 Variable       Old X    -DE/DX   Delta X   Delta X   Delta X     New X
                                 (Linear)    (Quad)   (Total)
    X1       -2.17259   0.00006   0.00000   0.00006   0.00006  -2.17252
    Y1       -2.91910   0.00006   0.00000   0.00006   0.00006  -2.91904
    Z1       -1.15669  -0.00001   0.00000  -0.00001  -0.00001  -1.15670
    X2       -1.45931  -0.00004   0.00000  -0.00004  -0.00004  -1.45935
    Y2       -0.15480   0.00000   0.00000   0.00000   0.00000  -0.15480
    Z2       -0.33518   0.00004   0.00000   0.00004   0.00004  -0.33514
    X3        1.47009  -0.00005   0.00000  -0.00005  -0.00005   1.47005
    Y3        0.11026   0.00004   0.00000   0.00004   0.00004   0.11030
    Z3        0.30456   0.00009   0.00000   0.00009   0.00009   0.30465
    X4       -0.42807  -0.00001   0.00000  -0.00001  -0.00001  -0.42808
    Y4       -4.11212   0.00003   0.00000   0.00003   0.00003  -4.11209
    Z4       -3.17471  -0.00004   0.00000  -0.00004  -0.00004  -3.17475
    X5        3.17483   0.00004   0.00000   0.00004   0.00004   3.17487
    Y5       -1.27645   0.00002   0.00000   0.00002   0.00002  -1.27643
    Z5       -1.69404  -0.00004   0.00000  -0.00004  -0.00004  -1.69409
    X6        2.36823   0.00000   0.00000   0.00000   0.00000   2.36823
    Y6       -4.00887  -0.00010   0.00000  -0.00010  -0.00010  -4.00896
    Z6       -2.34333   0.00002   0.00000   0.00002   0.00002  -2.34332
    X7       -2.71144  -0.00003   0.00000  -0.00003  -0.00003  -2.71146
    Y7        2.25824   0.00008   0.00000   0.00008   0.00008   2.25832
    Z7       -2.20345   0.00003   0.00000   0.00003   0.00003  -2.20342
    X8       -1.06886  -0.00003   0.00000  -0.00003  -0.00003  -1.06888
    Y8        2.84418   0.00003   0.00000   0.00003   0.00003   2.84420
    Z8       -4.92329  -0.00003   0.00000  -0.00003  -0.00003  -4.92332
    X9       -5.78836   0.00003   0.00000   0.00003   0.00003  -5.78833
    Y9        1.67492  -0.00001   0.00000  -0.00001  -0.00001   1.67491
    Z9       -3.01657  -0.00003   0.00000  -0.00003  -0.00003  -3.01659
   X10       -2.73508   0.00001   0.00000   0.00001   0.00001  -2.73506
   Y10        5.00493  -0.00001   0.00000  -0.00001  -0.00001   5.00492
   Z10       -0.48845  -0.00001   0.00000  -0.00001  -0.00001  -0.48847
   X11        2.26820   0.00002   0.00000   0.00002   0.00002   2.26822
   Y11       -0.40272  -0.00001   0.00000  -0.00001  -0.00001  -0.40273
   Z11        3.46386   0.00006   0.00000   0.00006   0.00006   3.46392
   X12        1.14632   0.00004   0.00000   0.00004   0.00004   1.14635
   Y12       -3.16762   0.00004   0.00000   0.00004   0.00004  -3.16757
   Z12        4.70337   0.00003   0.00000   0.00003   0.00003   4.70340
   X13        5.47124  -0.00002   0.00000  -0.00002  -0.00002   5.47122
   Y13       -0.34698  -0.00002   0.00000  -0.00002  -0.00002  -0.34700
   Z13        3.91845   0.00000   0.00000   0.00000   0.00000   3.91845
   X14        1.05929  -0.00003   0.00000  -0.00003  -0.00003   1.05925
   Y14        2.00942   0.00005   0.00000   0.00005   0.00005   2.00947
   Z14        5.25423   0.00002   0.00000   0.00002   0.00002   5.25425
   X15       -4.12087  -0.00008   0.00000  -0.00008  -0.00008  -4.12095
   Y15       -3.04345  -0.00005   0.00000  -0.00005  -0.00005  -3.04350
   Z15       -1.81537   0.00001   0.00000   0.00001   0.00001  -1.81536
   X16       -2.08945  -0.00003   0.00000  -0.00003  -0.00003  -2.08948
   Y16       -4.14321  -0.00007   0.00000  -0.00007  -0.00007  -4.14328
   Z16        0.50091   0.00004   0.00000   0.00004   0.00004   0.50095
   X17       -2.52698  -0.00002   0.00000  -0.00002  -0.00002  -2.52700
   Y17        0.10318  -0.00001   0.00000  -0.00001  -0.00001   0.10317
   Z17        1.41257  -0.00001   0.00000  -0.00001  -0.00001   1.41257
   X18        2.00265   0.00004   0.00000   0.00004   0.00004   2.00269
   Y18        2.09162   0.00004   0.00000   0.00004   0.00004   2.09166
   Z18        0.07856  -0.00002   0.00000  -0.00002  -0.00002   0.07854
   X19       -0.66273  -0.00006   0.00000  -0.00006  -0.00006  -0.66279
   Y19       -3.13906  -0.00001   0.00000  -0.00001  -0.00001  -3.13907
   Z19       -4.97663   0.00002   0.00000   0.00002   0.00002  -4.97661
   X20       -0.97117   0.00004   0.00000   0.00004   0.00004  -0.97113
   Y20       -6.08493  -0.00007   0.00000  -0.00007  -0.00007  -6.08500
   Z20       -3.46241  -0.00002   0.00000  -0.00002  -0.00002  -3.46243
   X21        5.15674   0.00005   0.00000   0.00005   0.00005   5.15679
   Y21       -1.29231   0.00002   0.00000   0.00002   0.00002  -1.29230
   Z21       -1.13068  -0.00003   0.00000  -0.00003  -0.00003  -1.13071
   X22        3.12893   0.00003   0.00000   0.00003   0.00003   3.12896
   Y22       -0.20729   0.00000   0.00000   0.00000   0.00000  -0.20728
   Z22       -3.45708  -0.00004   0.00000  -0.00004  -0.00004  -3.45712
   X23        2.66427   0.00006   0.00000   0.00006   0.00006   2.66433
   Y23       -5.23913   0.00004   0.00000   0.00004   0.00004  -5.23909
   Z23       -0.71614  -0.00001   0.00000  -0.00001  -0.00001  -0.71615
   X24        3.55263  -0.00002   0.00000  -0.00002  -0.00002   3.55261
   Y24       -4.72068  -0.00004   0.00000  -0.00004  -0.00004  -4.72072
   Z24       -3.87974  -0.00004   0.00000  -0.00004  -0.00004  -3.87978
   X25       -2.03421   0.00003   0.00000   0.00003   0.00003  -2.03418
   Y25        4.30349   0.00000   0.00000   0.00000   0.00000   4.30349
   Z25       -6.01290  -0.00003   0.00000  -0.00003  -0.00003  -6.01293
   X26        0.82650   0.00000   0.00000   0.00000   0.00000   0.82650
   Y26        3.51736  -0.00002   0.00000  -0.00002  -0.00002   3.51734
   Z26       -4.48431  -0.00002   0.00000  -0.00002  -0.00002  -4.48433
   X27       -0.94575  -0.00002   0.00000  -0.00002  -0.00002  -0.94578
   Y27        1.14644   0.00002   0.00000   0.00002   0.00002   1.14646
   Z27       -6.07575  -0.00002   0.00000  -0.00002  -0.00002  -6.07577
   X28       -6.62619   0.00000   0.00000   0.00000   0.00000  -6.62619
   Y28        3.35707  -0.00004   0.00000  -0.00004  -0.00004   3.35703
   Z28       -3.86386  -0.00002   0.00000  -0.00002  -0.00002  -3.86388
   X29       -5.88866  -0.00001   0.00000  -0.00001  -0.00001  -5.88867
   Y29        0.14285   0.00004   0.00000   0.00004   0.00004   0.14288
   Z29       -4.39021  -0.00001   0.00000  -0.00001  -0.00001  -4.39021
   X30       -6.87489   0.00000   0.00000   0.00000   0.00000  -6.87489
   Y30        1.16304   0.00000   0.00000   0.00000   0.00000   1.16304
   Z30       -1.34140  -0.00003   0.00000  -0.00003  -0.00003  -1.34143
   X31       -3.60940  -0.00002   0.00000  -0.00002  -0.00002  -3.60942
   Y31        6.51420   0.00005   0.00000   0.00005   0.00005   6.51424
   Z31       -1.58684   0.00001   0.00000   0.00001   0.00001  -1.58683
   X32       -3.81159  -0.00002   0.00000  -0.00002  -0.00002  -3.81161
   Y32        4.74280  -0.00001   0.00000  -0.00001  -0.00001   4.74278
   Z32        1.24931   0.00004   0.00000   0.00004   0.00004   1.24935
   X33       -0.81782   0.00002   0.00000   0.00002   0.00002  -0.81780
   Y33        5.57836   0.00001   0.00000   0.00001   0.00001   5.57837
   Z33       -0.00585   0.00002   0.00000   0.00002   0.00002  -0.00584
   X34        1.81300  -0.00002   0.00000  -0.00002  -0.00002   1.81298
   Y34       -3.37635  -0.00004   0.00000  -0.00004  -0.00004  -3.37639
   Z34        6.64265   0.00000   0.00000   0.00000   0.00000   6.64265
   X35       -0.91221   0.00001   0.00000   0.00001   0.00001  -0.91220
   Y35       -3.15784  -0.00003   0.00000  -0.00003  -0.00003  -3.15787
   Z35        4.72844   0.00000   0.00000   0.00000   0.00000   4.72844
   X36        1.81303   0.00002   0.00000   0.00002   0.00002   1.81305
   Y36       -4.77541  -0.00002   0.00000  -0.00002  -0.00002  -4.77543
   Z36        3.60976   0.00002   0.00000   0.00002   0.00002   3.60979
   X37        5.89803   0.00001   0.00000   0.00001   0.00001   5.89804
   Y37       -0.30840  -0.00003   0.00000  -0.00003  -0.00003  -0.30843
   Z37        5.93491  -0.00004   0.00000  -0.00004  -0.00004   5.93487
   X38        6.33975   0.00000   0.00000   0.00000   0.00000   6.33974
   Y38       -2.02998   0.00002   0.00000   0.00002   0.00002  -2.02997
   Z38        3.10760   0.00004   0.00000   0.00004   0.00004   3.10764
   X39        6.27897   0.00000   0.00000   0.00000   0.00000   6.27897
   Y39        1.33163  -0.00005   0.00000  -0.00005  -0.00005   1.33158
   Z39        3.03591   0.00002   0.00000   0.00002   0.00002   3.03593
   X40        1.62795   0.00000   0.00000   0.00000   0.00000   1.62795
   Y40        1.78010   0.00002   0.00000   0.00002   0.00002   1.78012
   Z40        7.22225   0.00002   0.00000   0.00002   0.00002   7.22227
   X41        1.76571   0.00000   0.00000   0.00000   0.00000   1.76571
   Y41        3.82009   0.00000   0.00000   0.00000   0.00000   3.82010
   Z41        4.56845  -0.00001   0.00000  -0.00001  -0.00001   4.56844
   X42       -0.99751   0.00000   0.00000   0.00000   0.00000  -0.99751
   Y42        2.01965   0.00001   0.00000   0.00001   0.00001   2.01966
   Z42        5.16838   0.00000   0.00000   0.00000   0.00000   5.16838
         Item               Value     Threshold  Converged?
 Maximum Force            0.000096     0.000450     YES
 RMS     Force            0.000033     0.000300     YES
 Maximum Displacement     0.000096     0.001800     YES
 RMS     Displacement     0.000033     0.001200     YES
 Predicted change in Energy=-6.950411D-08
 Optimization completed.
    -- Stationary point found.
 GradGradGradGradGradGradGradGradGradGradGradGradGradGradGradGradGradGrad

                          Input orientation:                          
 ---------------------------------------------------------------------
 Center     Atomic     Atomic              Coordinates (Angstroms)
 Number     Number      Type              X           Y           Z
 ---------------------------------------------------------------------
    1          6      10061003       -1.149684   -1.544722   -0.612097
    2          6      10061003       -0.772233   -0.081918   -0.177370
    3          6      10061003        0.777941    0.058347    0.161168
    4          6      10061003       -0.226526   -2.176040   -1.679985
    5          6      10061003        1.680046   -0.675468   -0.896448
    6          6      10061003        1.253213   -2.121401   -1.240039
    7         14      10141003       -1.434831    1.195009   -1.166016
    8          6      10061003       -0.565615    1.505073   -2.605293
    9          6      10061003       -3.063068    0.886327   -1.596298
   10          6      10061003       -1.447340    2.648497   -0.258479
   11         14      10141003        1.200279   -0.213112    1.832997
   12          6      10061003        0.606604   -1.676231    2.488915
   13          6      10061003        2.895257   -0.183614    2.073553
   14          6      10061003        0.560550    1.063339    2.780421
   15          1      10011000       -2.180670   -1.610524   -0.960652
   16          1      10011000       -1.105688   -2.192491    0.265071
   17          1      10011000       -1.337218    0.054603    0.747501
   18          1      10011000        1.059755    1.106838    0.041574
   19          1      10011000       -0.350699   -1.661116   -2.633517
   20          1      10011000       -0.513922   -3.220005   -1.832230
   21          1      10011000        2.728830   -0.683863   -0.598331
   22          1      10011000        1.655760   -0.109691   -1.829408
   23          1      10011000        1.409872   -2.772426   -0.378967
   24          1      10011000        1.879970   -2.498076   -2.053070
   25          1      10011000       -1.076456    2.277310   -3.181891
   26          1      10011000        0.437366    1.861308   -2.372996
   27          1      10011000       -0.500471    0.606672   -3.215150
   28          1      10011000       -3.506427    1.776485   -2.044669
   29          1      10011000       -3.116144    0.075591   -2.323197
   30          1      10011000       -3.638035    0.615456   -0.709839
   31          1      10011000       -1.910013    3.447165   -0.839717
   32          1      10011000       -2.017007    2.509779    0.661108
   33          1      10011000       -0.432773    2.951941   -0.003097
   34          1      10011000        0.959399   -1.786689    3.515141
   35          1      10011000       -0.482720   -1.671057    2.502183
   36          1      10011000        0.959416   -2.527038    1.910204
   37          1      10011000        3.121103   -0.163201    3.140620
   38          1      10011000        3.354849   -1.074220    1.644471
   39          1      10011000        3.322688    0.704666    1.606532
   40          1      10011000        0.861473    0.941987    3.821848
   41          1      10011000        0.934372    2.021506    2.417521
   42          1      10011000       -0.527860    1.068755    2.734990
 ---------------------------------------------------------------------
                    Distance matrix (angstroms):
                    1          2          3          4          5
     1  C    0.000000
     2  C    1.572021   0.000000
     3  C    2.623643   1.592897   0.000000
     4  C    1.546340   2.634577   3.064520   0.000000
     5  C    2.973858   2.623557   1.571888   2.549640   0.000000
     6  C    2.549663   3.064505   2.634496   1.544722   1.546274
     7  Si   2.809673   1.745566   2.819535   3.617753   3.643324
     8  C    3.689881   2.907928   3.398745   3.810744   3.566217
     9  C    3.246489   2.863351   4.304368   4.175052   5.042432
    10  C    4.218618   2.813809   3.440474   5.175638   4.608286
    11  Si   3.643349   2.819502   1.745586   4.269649   2.809595
    12  C    3.566246   3.398838   2.908009   4.280612   3.689781
    13  C    5.042507   4.304357   2.863353   5.272982   3.246470
    14  C    4.608260   3.440415   2.813850   5.568509   4.218541
    15  H    1.090300   2.221230   3.577288   2.157760   3.972856
    16  H    1.091312   2.182078   2.936856   2.134581   3.377987
    17  H    2.107490   1.092352   2.194925   3.478806   3.512756
    18  H    3.512788   2.194826   1.092271   3.923719   2.107430
    19  H    2.176709   2.950291   3.469964   1.090774   2.848305
    20  H    2.167831   3.557088   4.048473   1.093452   3.487671
    21  H    3.972925   3.577288   2.221190   3.482915   1.090363
    22  H    3.378117   2.936861   2.182017   2.799129   1.091378
    23  H    2.848321   3.470023   2.950315   2.173965   2.176698
    24  H    3.487706   4.048488   3.557052   2.163383   2.167866
    25  H    4.606206   3.832186   4.420252   4.776026   4.641169
    26  H    4.149764   3.171756   3.128682   4.149843   3.187425
    27  H    3.438874   3.126678   3.651646   3.189868   3.431460
    28  H    4.317050   3.796878   5.116007   5.149097   5.850641
    29  H    3.069242   3.181713   4.619119   3.719335   5.059955
    30  H    3.296637   2.997111   4.535402   4.513538   5.475701
    31  H    5.054587   3.766653   4.439702   5.929639   5.466978
    32  H    4.337313   2.994896   3.751159   5.535652   5.122498
    33  H    4.593998   3.057762   3.140971   5.399137   4.291873
    34  H    4.641214   4.420343   3.832260   5.342972   4.606111
    35  H    3.187403   3.128767   3.171822   4.220329   4.149633
    36  H    3.431508   3.651738   3.126704   3.797252   3.438738
    37  H    5.850735   5.116027   3.796923   6.204545   4.317057
    38  H    5.060068   4.619153   3.181721   5.009218   3.069241
    39  H    5.475780   4.535350   2.997089   5.629972   3.296658
    40  H    5.467023   4.439721   3.766746   6.416853   5.054557
    41  H    5.122485   3.751047   2.994928   5.979685   4.337291
    42  H    4.291843   3.140957   3.057875   5.487395   4.593964
                    6          7          8          9         10
     6  C    0.000000
     7  Si   4.269618   0.000000
     8  C    4.280580   1.709735   0.000000
     9  C    5.272914   1.712187   2.763727   0.000000
    10  C    5.568517   1.713595   2.755430   2.739631   0.000000
    11  Si   3.617723   4.233283   5.076314   5.580767   4.424135
    12  C    3.810693   5.076415   6.119293   6.059881   5.519976
    13  C    4.175072   5.580777   6.059778   7.079140   5.684838
    14  C    5.175563   4.424166   5.519900   5.684858   3.972312
    15  H    3.482902   2.910235   3.875590   2.723405   4.378366
    16  H    2.799075   3.692086   4.711969   4.095748   4.881188
    17  H    3.923728   2.229709   3.733693   3.027164   2.784316
    18  H    3.478719   2.772906   3.131505   4.441725   2.958424
    19  H    2.173977   3.389153   3.173601   3.862931   5.041448
    20  H    2.163420   4.558976   4.788180   4.838984   6.147136
    21  H    2.157719   4.603096   4.435392   6.083380   5.353552
    22  H    2.134567   3.419661   2.853764   4.828429   4.438992
    23  H    1.090789   4.944929   5.211150   5.905553   6.128996
    24  H    1.093494   5.041195   4.723456   6.008032   6.385826
    25  H    5.342920   2.315936   1.090767   2.897510   2.970130
    26  H    4.220328   2.325054   1.089420   3.715762   2.939893
    27  H    3.797216   2.327685   1.087793   3.043976   3.715847
    28  H    6.204444   2.324147   3.006051   1.090865   2.861943
    29  H    5.009120   2.327870   2.937379   1.090180   3.697001
    30  H    5.629903   2.323379   3.718055   1.090765   3.022603
    31  H    6.416789   2.324753   2.948963   2.908581   1.090768
    32  H    5.979677   2.325066   3.712863   2.970812   1.090598
    33  H    5.487383   2.333090   2.980352   3.704524   1.089332
    34  H    4.775992   6.044509   7.114849   7.032216   6.301070
    35  H    4.149759   4.751477   6.015063   5.476856   5.216349
    36  H    3.189811   5.389730   6.242865   6.334587   6.105885
    37  H    5.149149   6.414700   7.027840   7.860271   6.350605
    38  H    3.719390   5.999106   6.331136   7.452247   6.367171
    39  H    4.513574   5.528240   5.787834   7.146257   5.478131
    40  H    5.929630   5.496891   6.607707   6.690398   4.989174
    41  H    5.535620   4.374695   5.267383   5.777448   3.636846
    42  H    5.399090   4.007042   5.358211   5.022014   3.507405
                   11         12         13         14         15
    11  Si   0.000000
    12  C    1.709794   0.000000
    13  C    1.712218   2.763759   0.000000
    14  C    1.713532   2.755421   2.739601   0.000000
    15  H    4.603049   4.435395   6.083381   5.353454   0.000000
    16  H    3.419622   2.853760   4.828432   4.438893   1.731089
    17  H    2.772880   3.131573   4.441735   2.958350   2.530188
    18  H    2.229622   3.733671   3.027090   2.784310   4.346133
    19  H    4.944896   5.211138   5.905570   6.128928   2.479885
    20  H    5.041208   4.723463   6.008104   6.385771   2.475505
    21  H    2.910229   3.875529   2.723401   4.378370   5.009309
    22  H    3.692069   4.711972   4.095720   4.881189   4.210158
    23  H    3.389219   3.173583   3.863053   5.041446   3.818425
    24  H    4.559009   4.788164   4.839066   6.147128   4.297665
    25  H    6.044404   7.114858   7.032094   6.301006   4.611772
    26  H    4.751382   6.015064   5.476745   5.216286   4.571920
    27  H    5.389655   6.242885   6.334501   6.105832   3.580752
    28  H    6.414661   7.027920   7.860236   6.350620   3.795334
    29  H    5.999067   6.331204   7.452217   6.367153   2.361064
    30  H    5.528275   5.787989   7.146307   5.478196   2.672416
    31  H    5.496812   6.607748   6.690316   4.989159   5.066370
    32  H    4.374744   5.267532   5.777518   3.636960   4.431004
    33  H    4.006951   5.358209   5.021948   3.507347   4.978770
    34  H    2.315982   1.090782   2.897511   2.970110   5.470265
    35  H    2.325058   1.089417   3.715769   2.939855   3.857192
    36  H    2.327709   1.087775   3.043978   3.715802   4.352236
    37  H    2.324206   3.006108   1.090896   2.861918   6.857403
    38  H    2.327922   2.937406   1.090190   3.696978   6.141357
    39  H    2.323408   3.718115   1.090801   3.022593   6.499038
    40  H    2.324773   2.949023   2.908572   1.090803   6.216290
    41  H    2.325058   3.712922   2.970848   1.090653   5.857234
    42  H    2.333074   2.980354   3.704545   1.089371   4.854698
                   16         17         18         19         20
    16  H    0.000000
    17  H    2.309930   0.000000
    18  H    3.952805   2.711275   0.000000
    19  H    3.042068   3.917677   4.099642   0.000000
    20  H    2.409282   4.249222   4.970832   1.760351   0.000000
    21  H    4.210100   4.346187   2.530198   3.818443   4.297669
    22  H    4.043574   3.952894   2.309921   2.660712   3.792305
    23  H    2.660667   4.099699   3.917669   3.068813   2.452199
    24  H    3.792270   4.970882   4.249199   2.452204   2.510114
    25  H    5.644600   4.522007   4.040313   4.042108   5.688453
    26  H    5.076780   4.018810   2.605137   3.618894   5.197800
    27  H    4.507053   4.087484   3.645644   2.345973   4.068919
    28  H    5.181816   3.932755   5.064668   4.703453   5.827961
    29  H    3.985631   3.548832   4.908538   3.280264   4.227713
    30  H    3.904843   2.780676   4.782814   4.437329   5.072534
    31  H    5.802863   3.789042   3.882439   5.634156   6.883699
    32  H    4.806110   2.549013   3.437810   5.570234   6.427008
    33  H    5.195181   3.126658   2.373613   5.310945   6.437797
    34  H    3.871978   4.040375   4.521973   6.287934   5.728825
    35  H    2.380054   2.605182   4.018772   5.137406   4.602972
    36  H    2.661398   3.645720   4.087408   4.807455   4.081267
    37  H    5.500233   5.064689   3.932714   6.902015   6.876532
    38  H    4.801007   4.908593   3.548767   5.690054   5.626654
    39  H    5.459262   4.782806   2.780593   6.088408   6.476704
    40  H    5.132771   3.882435   3.789058   7.065214   7.154194
    41  H    5.152927   3.437702   2.549012   6.381700   6.901549
    42  H    4.131599   2.373537   3.126734   6.025318   6.265234
                   21         22         23         24         25
    21  H    0.000000
    22  H    1.731099   0.000000
    23  H    2.479893   3.042104   0.000000
    24  H    2.475520   2.409290   1.760364   0.000000
    25  H    5.470240   3.871948   6.287928   5.728787   0.000000
    26  H    3.857219   2.380086   5.137452   4.603009   1.766076
    27  H    4.352195   2.661351   4.807457   4.081224   1.767455
    28  H    6.857379   5.500198   6.901968   6.876425   2.729260
    29  H    6.141307   4.800960   5.689996   5.626534   3.121738
    30  H    6.499049   5.459262   6.088398   6.476630   3.928675
    31  H    6.216311   5.132782   7.065214   7.154166   2.747573
    32  H    5.857347   5.153010   6.381767   6.901580   3.963246
    33  H    4.854802   4.131703   6.025363   6.265289   3.312730
    34  H    4.611698   5.644594   4.042113   5.688453   8.093888
    35  H    4.571848   5.076774   3.618833   5.197750   6.946281
    36  H    3.580624   4.507012   2.345940   4.068882   7.290814
    37  H    3.795355   5.181821   4.703601   5.828076   7.971808
    38  H    2.361025   3.985606   3.280418   4.227818   7.359550
    39  H    2.672471   3.904806   4.437482   5.072640   6.689893
    40  H    5.066399   5.802897   5.634222   6.883752   7.388573
    41  H    4.431079   4.806121   5.570299   6.427049   5.955021
    42  H    4.978828   5.195254   5.310952   6.437814   6.063913
                   26         27         28         29         30
    26  H    0.000000
    27  H    1.778447   0.000000
    28  H    3.958346   3.431365   0.000000
    29  H    3.977273   2.814137   1.767185   0.000000
    30  H    4.574619   4.015092   1.774001   1.779536   0.000000
    31  H    3.221192   3.962056   2.606073   3.875949   3.319866
    32  H    3.956040   4.576798   3.174480   4.004929   2.845293
    33  H    2.750098   3.977707   3.872604   4.566917   4.028940
    34  H    6.946262   7.290830   7.971907   7.359641   6.690079
    35  H    6.090282   6.154369   6.457725   5.768015   5.049875
    36  H    6.154342   6.182286   7.355616   6.426940   6.154385
    37  H    6.457634   7.355563   8.635610   8.295394   7.817818
    38  H    5.767935   6.426881   8.295383   7.677122   7.569558
    39  H    5.049707   6.154248   7.817728   7.569482   7.336566
    40  H    6.277030   7.175421   7.361451   7.371137   6.394403
    41  H    4.818893   5.982266   6.300149   6.532050   5.715266
    42  H    5.258453   5.968118   5.676080   5.768089   4.663210
                   31         32         33         34         35
    31  H    0.000000
    32  H    1.772743   0.000000
    33  H    1.768451   1.773831   0.000000
    34  H    7.388609   5.955177   6.063889   0.000000
    35  H    6.277074   4.819023   5.258425   1.766115   0.000000
    36  H    7.175430   5.982380   5.968092   1.767466   1.778455
    37  H    7.361382   6.300236   5.676010   2.729275   3.958380
    38  H    7.371084   6.532143   5.768061   3.121730   3.977288
    39  H    6.394263   5.715296   4.663114   3.928711   4.574645
    40  H    5.973880   4.553449   4.510564   2.747605   3.221237
    41  H    4.553310   3.469011   2.931584   3.963300   3.956051
    42  H    4.510623   2.931740   3.324539   3.312723   2.750055
                   36         37         38         39         40
    36  H    0.000000
    37  H    3.431405   0.000000
    38  H    2.814142   1.767217   0.000000
    39  H    4.015119   1.774050   1.779581   0.000000
    40  H    3.962084   2.606039   3.875950   3.319868   0.000000
    41  H    4.576817   3.174524   4.004976   2.845316   1.772797
    42  H    3.977686   3.872619   4.566946   4.028982   1.768495
                   41         42
    41  H    0.000000
    42  H    1.773879   0.000000
 Stoichiometry    C12H28Si2
 Framework group  C1[X(C12H28Si2)]
 Deg. of freedom   120
 Full point group                 C1
 Largest Abelian subgroup         C1      NOp   1
 Largest concise Abelian subgroup C1      NOp   1
                         Standard orientation:                         
 ---------------------------------------------------------------------
 Center     Atomic     Atomic              Coordinates (Angstroms)
 Number     Number      Type              X           Y           Z
 ---------------------------------------------------------------------
    1          6      10061003       -0.681634    1.368124   -1.321521
    2          6      10061003       -0.597672    0.014618   -0.526398
    3          6      10061003        0.597661    0.014651    0.526456
    4          6      10061003       -0.623482    2.648123   -0.455848
    5          6      10061003        0.681646    1.368077    1.321451
    6          6      10061003        0.623470    2.648075    0.455897
    7         14      10141003       -2.115385   -0.604921    0.073368
    8          6      10061003       -2.646750    0.105493    1.534929
    9          6      10061003       -3.371705   -0.432842   -1.077125
   10          6      10061003       -1.953793   -2.287137    0.356994
   11         14      10141003        2.115354   -0.604936   -0.073369
   12          6      10061003        2.646823    0.105604   -1.534898
   13          6      10061003        3.371678   -0.432930    1.077176
   14          6      10061003        1.953803   -2.287072   -0.357119
   15          1      10011000       -1.570787    1.413834   -1.950863
   16          1      10011000        0.159088    1.418676   -2.015490
   17          1      10011000       -0.366418   -0.715596   -1.305207
   18          1      10011000        0.366447   -0.715585    1.305142
   19          1      10011000       -1.527140    2.731929    0.149268
   20          1      10011000       -0.585628    3.523477   -1.110034
   21          1      10011000        1.570827    1.413833    1.950858
   22          1      10011000       -0.159055    1.418638    2.015549
   23          1      10011000        1.527120    2.731983   -0.149246
   24          1      10011000        0.585579    3.523475    1.110089
   25          1      10011000       -3.621256   -0.302269    1.806664
   26          1      10011000       -1.948003   -0.117221    2.340527
   27          1      10011000       -2.743285    1.183365    1.424625
   28          1      10011000       -4.250867   -0.993907   -0.757334
   29          1      10011000       -3.653654    0.615506   -1.176939
   30          1      10011000       -3.044888   -0.813233   -2.045764
   31          1      10011000       -2.908629   -2.704451    0.679348
   32          1      10011000       -1.642321   -2.792000   -0.558157
   33          1      10011000       -1.214872   -2.477494    1.134430
   34          1      10011000        3.621353   -0.302166   -1.806595
   35          1      10011000        1.948080   -0.117074   -2.340506
   36          1      10011000        2.743354    1.183448   -1.424490
   37          1      10011000        4.250861   -0.994023    0.757386
   38          1      10011000        3.653663    0.615413    1.177061
   39          1      10011000        3.044795   -0.813387    2.045808
   40          1      10011000        2.908670   -2.704439   -0.679429
   41          1      10011000        1.642221   -2.792036    0.558005
   42          1      10011000        1.214914   -2.477405   -1.134644
 ---------------------------------------------------------------------
 Rotational constants (GHZ):      0.7605277      0.4279928      0.3503295
 1|1|UNPC-UNK|FOpt|Dreiding|ZDO|C12H28Si2|PCUSER|11-Mar-2008|0||# opt d
 reiding||BisSiMe3-cycl-diaxial||0,1|C,-1.149683649,-1.5447221737,-0.61
 20965089|C,-0.7722333045,-0.0819183343,-0.1773701258|C,0.7779406297,0.
 0583467215,0.1611683607|C,-0.2265261787,-2.1760399373,-1.6799851783|C,
 1.6800464409,-0.6754681726,-0.8964482163|C,1.2532130362,-2.1214009059,
 -1.2400393247|Si,-1.434830557,1.1950093727,-1.1660156448|C,-0.56561491
 48,1.5050732847,-2.6052931042|C,-3.0630676078,0.886327,-1.5962982114|C
 ,-1.4473401815,2.6484974892,-0.2584789466|Si,1.2002786165,-0.213112076
 8,1.8329973526|C,0.6066038257,-1.6762309992,2.4889146969|C,2.895257302
 7,-0.1836140628,2.0735532159|C,0.5605500307,1.0633393099,2.7804211195|
 H,-2.1806704841,-1.6105242802,-0.9606524361|H,-1.10568765,-2.192490928
 6,0.2650706284|H,-1.3372179186,0.0546027114,0.7475013716|H,1.059755239
 2,1.1068379394,0.0415739958|H,-0.3506993883,-1.6611164562,-2.633516876
 4|H,-0.5139219786,-3.2200050137,-1.8322298329|H,2.7288299754,-0.683863
 1437,-0.5983311208|H,1.6557598152,-0.109691103,-1.8294077195|H,1.40987
 21119,-2.772426421,-0.3789672683|H,1.8799701936,-2.4980759873,-2.05307
 03348|H,-1.0764558215,2.2773095905,-3.1818905912|H,0.4373664389,1.8613
 081569,-2.3729959546|H,-0.5004712095,0.6066715525,-3.2151497067|H,-3.5
 064274062,1.7764852962,-2.0446686919|H,-3.1161435778,0.0755907109,-2.3
 231972439|H,-3.6380352123,0.615455586,-0.7098393206|H,-1.910012892,3.4
 471652623,-0.8397173365|H,-2.0170073547,2.509779079,0.661108449|H,-0.4
 327725479,2.9519408433,-0.0030973387|H,0.9593989672,-1.7866892238,3.51
 51406453|H,-0.4827201061,-1.6710565784,2.5021832486|H,0.9594162014,-2.
 5270381344,1.9102043249|H,3.1211025237,-0.1632006121,3.1406199639|H,3.
 3548490892,-1.0742196626,1.644471116|H,3.3226878401,0.704666017,1.6065
 320408|H,0.8614730572,0.9419874704,3.8218478233|H,0.9343723253,2.02150
 61636,2.4175207708|H,-0.5278597901,1.0687546502,2.73499041||Version=IA
 32W-G03RevD.01|HF=0.0523617|RMSD=0.000e+000|RMSF=3.322e-005|Thermal=0.
 |Dipole=0.,0.,0.|PG=C01 [X(C12H28Si2)]||@


 THE NUMBERS ARE MEANINGLESS, BUT THE TRENDS ARE IMPORTANT.
     -- LARRY BURGGRAF
 Job cpu time:  0 days  0 hours  0 minutes  3.0 seconds.
 File lengths (MBytes):  RWF=     11 Int=      0 D2E=      0 Chk=      4 Scr=      1
 Normal termination of Gaussian 03 at Tue Mar 11 13:40:44 2008.
