 Entering Link 1 = C:\G03W\l1.exe PID=      2532.
  
 Copyright (c) 1988,1990,1992,1993,1995,1998,2003,2004, Gaussian, Inc.
                  All Rights Reserved.
  
 This is the Gaussian(R) 03 program.  It is based on the
 the Gaussian(R) 98 system (copyright 1998, Gaussian, Inc.),
 the Gaussian(R) 94 system (copyright 1995, Gaussian, Inc.),
 the Gaussian 92(TM) system (copyright 1992, Gaussian, Inc.),
 the Gaussian 90(TM) system (copyright 1990, Gaussian, Inc.),
 the Gaussian 88(TM) system (copyright 1988, Gaussian, Inc.),
 the Gaussian 86(TM) system (copyright 1986, Carnegie Mellon
 University), and the Gaussian 82(TM) system (copyright 1983,
 Carnegie Mellon University). Gaussian is a federally registered
 trademark of Gaussian, Inc.
  
 This software contains proprietary and confidential information,
 including trade secrets, belonging to Gaussian, Inc.
  
 This software is provided under written license and may be
 used, copied, transmitted, or stored only in accord with that
 written license.
  
 The following legend is applicable only to US Government
 contracts under FAR:
  
                    RESTRICTED RIGHTS LEGEND
  
 Use, reproduction and disclosure by the US Government is
 subject to restrictions as set forth in subparagraphs (a)
 and (c) of the Commercial Computer Software - Restricted
 Rights clause in FAR 52.227-19.
  
 Gaussian, Inc.
 340 Quinnipiac St., Bldg. 40, Wallingford CT 06492
  
  
 ---------------------------------------------------------------
 Warning -- This program may not be used in any manner that
 competes with the business of Gaussian, Inc. or will provide
 assistance to any competitor of Gaussian, Inc.  The licensee
 of this program is prohibited from giving any competitor of
 Gaussian, Inc. access to this program.  By using this program,
 the user acknowledges that Gaussian, Inc. is engaged in the
 business of creating and licensing software in the field of
 computational chemistry and represents and warrants to the
 licensee that it is not a competitor of Gaussian, Inc. and that
 it will not use this program in any manner prohibited above.
 ---------------------------------------------------------------
  

 Cite this work as:
 Gaussian 03, Revision D.01,
 M. J. Frisch, G. W. Trucks, H. B. Schlegel, G. E. Scuseria, 
 M. A. Robb, J. R. Cheeseman, J. A. Montgomery, Jr., T. Vreven, 
 K. N. Kudin, J. C. Burant, J. M. Millam, S. S. Iyengar, J. Tomasi, 
 V. Barone, B. Mennucci, M. Cossi, G. Scalmani, N. Rega, 
 G. A. Petersson, H. Nakatsuji, M. Hada, M. Ehara, K. Toyota, 
 R. Fukuda, J. Hasegawa, M. Ishida, T. Nakajima, Y. Honda, O. Kitao, 
 H. Nakai, M. Klene, X. Li, J. E. Knox, H. P. Hratchian, J. B. Cross, 
 V. Bakken, C. Adamo, J. Jaramillo, R. Gomperts, R. E. Stratmann, 
 O. Yazyev, A. J. Austin, R. Cammi, C. Pomelli, J. W. Ochterski, 
 P. Y. Ayala, K. Morokuma, G. A. Voth, P. Salvador, J. J. Dannenberg, 
 V. G. Zakrzewski, S. Dapprich, A. D. Daniels, M. C. Strain, 
 O. Farkas, D. K. Malick, A. D. Rabuck, K. Raghavachari, 
 J. B. Foresman, J. V. Ortiz, Q. Cui, A. G. Baboul, S. Clifford, 
 J. Cioslowski, B. B. Stefanov, G. Liu, A. Liashenko, P. Piskorz, 
 I. Komaromi, R. L. Martin, D. J. Fox, T. Keith, M. A. Al-Laham, 
 C. Y. Peng, A. Nanayakkara, M. Challacombe, P. M. W. Gill, 
 B. Johnson, W. Chen, M. W. Wong, C. Gonzalez, and J. A. Pople, 
 Gaussian, Inc., Wallingford CT, 2004.
 
 ******************************************
 Gaussian 03:  IA32W-G03RevD.01 13-Oct-2005
                13-Dec-2007 
 ******************************************
 --------------
 # opt dreiding
 --------------
 1/6=10,10=10,14=-1,18=4000020,38=1,56=1,64=1/1,3;
 2/9=110,17=6,18=5,40=1/2;
 3/5=30,11=9,16=1,25=1,30=1/1;
 4/20=9,22=1001,24=3/2;
 7/44=-1/16;
 1/6=10,10=10,14=-1,18=4000020,64=1/3(2);
 2/9=110/2;
 99//99;
 2/9=110/2;
 3/5=30,11=9,16=1,25=1,30=1/1;
 4/16=2,20=9,22=1001,24=3/2;
 7/44=-1/16;
 1/6=10,10=10,14=-1,18=4000020,64=1/3(-4);
 2/9=110/2;
 99//99;
 -------------------
 cyclohexanethiol-eq
 -------------------
 Symbolic Z-matrix:
 Charge =  0 Multiplicity = 1
 C                     0.19655  -1.66881  -1.17214 
 C                     1.61855  -1.08881  -1.20614 
 C                     1.58655   0.44619  -1.18614 
 C                    -0.57545  -1.15481   0.05186 
 C                     0.81455   0.96219   0.03786 
 C                    -0.60645   0.38119   0.05686 
 H                     0.24155  -2.78481  -1.15314 
 H                    -0.34545  -1.37881  -2.10414 
 H                     2.15355  -1.44581  -2.11914 
 H                     2.19255  -1.46081  -0.32414 
 H                     1.09955   0.82019  -2.11814 
 H                     2.62855   0.84819  -1.17614 
 H                    -0.08045  -1.53181   0.97786 
 H                    -1.61545  -1.56281   0.03786 
 H                     0.77655   2.07719   0.01486 
 H                     1.36255   0.66519   0.96386 
 H                    -1.18045   0.75019  -0.82614 
 S                    -1.48345   0.96719   1.65086 
 H                    -1.70345   2.26619   1.91986 
 
 Include all MM classes
 MMInit generated parameter data with length LenPar=  2218.

 GradGradGradGradGradGradGradGradGradGradGradGradGradGradGradGradGradGrad
 Berny optimization.
 Initialization pass.
 No Z-matrix variables, so optimization will use Cartesian coordinates.
 Trust Radius=1.00D-01 FncErr=1.00D-07 GrdErr=1.00D-07
 Number of steps in this run=   2 maximum allowed number of steps=   2.
 GradGradGradGradGradGradGradGradGradGradGradGradGradGradGradGradGradGrad

                          Input orientation:                          
 ---------------------------------------------------------------------
 Center     Atomic     Atomic              Coordinates (Angstroms)
 Number     Number      Type              X           Y           Z
 ---------------------------------------------------------------------
    1          6      10061003        0.196547   -1.668813   -1.172141
    2          6      10061003        1.618547   -1.088813   -1.206141
    3          6      10061003        1.586547    0.446188   -1.186141
    4          6      10061003       -0.575453   -1.154813    0.051859
    5          6      10061003        0.814547    0.962188    0.037859
    6          6      10061003       -0.606453    0.381188    0.056859
    7          1      10011000        0.241547   -2.784813   -1.153141
    8          1      10011000       -0.345453   -1.378813   -2.104141
    9          1      10011000        2.153547   -1.445813   -2.119141
   10          1      10011000        2.192547   -1.460813   -0.324141
   11          1      10011000        1.099547    0.820188   -2.118141
   12          1      10011000        2.628547    0.848188   -1.176141
   13          1      10011000       -0.080453   -1.531813    0.977859
   14          1      10011000       -1.615453   -1.562813    0.037859
   15          1      10011000        0.776547    2.077188    0.014859
   16          1      10011000        1.362547    0.665188    0.963859
   17          1      10011000       -1.180453    0.750188   -0.826141
   18         16      10161003       -1.483453    0.967188    1.650859
   19          1      10011000       -1.703453    2.266188    1.919859
 ---------------------------------------------------------------------
                    Distance matrix (angstroms):
                    1          2          3          4          5
     1  C    0.000000
     2  C    1.536112   0.000000
     3  C    2.530913   1.535464   0.000000
     4  C    1.535694   2.529932   2.961434   0.000000
     5  C    2.961112   2.529931   1.536365   2.532585   0.000000
     6  C    2.521458   2.950711   2.521611   1.536321   1.535306
     7  H    1.117068   2.185258   3.499925   2.185501   3.973263
     8  H    1.116462   2.178945   2.811756   2.179773   3.378468
     9  H    2.185495   1.116800   2.184409   3.499338   3.499148
    10  H    2.178620   1.116147   2.178745   2.810131   2.810846
    11  H    2.811663   2.178391   1.116095   3.378631   2.179386
    12  H    3.499990   2.184713   1.116901   3.973111   2.185724
    13  H    2.172095   2.802268   3.372576   1.115630   2.811523
    14  H    2.181440   3.497280   3.973293   1.117256   3.504358
    15  H    3.972139   3.496192   2.181436   3.503583   1.115884
    16  H    3.371885   2.801955   2.172703   2.810692   1.116239
    17  H    2.804890   3.370567   2.806832   2.183102   2.184368
    18  S    4.211915   4.691694   4.212471   2.807873   2.807596
    19  H    5.353007   5.662472   4.876857   4.057715   3.403331
                    6          7          8          9         10
     6  C    0.000000
     7  H    3.493817   0.000000
     8  H    2.799222   1.796053   0.000000
     9  H    3.961124   2.526227   2.499943   0.000000
    10  H    3.372318   2.499324   3.101059   1.795486   0.000000
    11  H    2.798889   3.829284   2.631316   2.499134   3.100975
    12  H    3.493366   4.347066   3.829542   2.525334   2.499496
    13  H    2.187347   2.492961   3.097153   3.819628   2.620453
    14  H    2.190337   2.521946   2.496982   4.344157   3.826527
    15  H    2.188805   5.028866   4.206303   4.342996   3.825888
    16  H    2.186382   4.200099   4.062982   3.819279   2.620634
    17  H    1.115942   3.824296   2.619761   4.196406   4.064192
    18  S    1.911377   4.991547   4.571519   5.767429   4.827917
    19  H    2.868345   6.224063   5.596674   6.705887   5.839938
                   11         12         13         14         15
    11  H    0.000000
    12  H    1.796104   0.000000
    13  H    4.063191   4.200333   0.000000
    14  H    4.206929   5.029737   1.800218   0.000000
    15  H    2.496811   2.521671   3.832323   4.355662   0.000000
    16  H    3.097082   2.493160   2.628546   3.832746   1.799372
    17  H    2.621558   3.826302   3.109974   2.507128   2.509593
    18  S    4.571527   4.991456   2.943865   3.003347   3.002698
    19  H    5.123785   5.510187   4.236307   4.267424   3.132913
                   16         17         18         19
    16  H    0.000000
    17  H    3.110976   0.000000
    18  S    2.943279   2.504881   0.000000
    19  H    3.588522   3.179984   1.344679   0.000000
 Stoichiometry    C6H12S
 Framework group  C1[X(C6H12S)]
 Deg. of freedom    51
 Full point group                 C1
 Largest Abelian subgroup         C1      NOp   1
 Largest concise Abelian subgroup C1      NOp   1
                         Standard orientation:                         
 ---------------------------------------------------------------------
 Center     Atomic     Atomic              Coordinates (Angstroms)
 Number     Number      Type              X           Y           Z
 ---------------------------------------------------------------------
    1          6      10061003       -1.616739   -1.241730    0.204309
    2          6      10061003       -2.267073    0.036946   -0.344958
    3          6      10061003       -1.557639    1.288462    0.191754
    4          6      10061003       -0.117710   -1.279616   -0.127103
    5          6      10061003       -0.057729    1.252231   -0.138962
    6          6      10061003        0.581830   -0.026344    0.420835
    7          1      10011000       -2.124316   -2.140250   -0.223324
    8          1      10011000       -1.755476   -1.283183    1.311342
    9          1      10011000       -3.348193    0.064125   -0.066239
   10          1      10011000       -2.216748    0.029736   -1.459947
   11          1      10011000       -1.693541    1.347370    1.297977
   12          1      10011000       -2.021719    2.205550   -0.245336
   13          1      10011000        0.008011   -1.336370   -1.234173
   14          1      10011000        0.339891   -2.200448    0.309851
   15          1      10011000        0.442465    2.153949    0.287544
   16          1      10011000        0.070307    1.291406   -1.247141
   17          1      10011000        0.529535   -0.021593    1.535541
   18         16      10161003        2.417449   -0.072627   -0.109939
   19          1      10011000        3.300960    0.872052    0.257690
 ---------------------------------------------------------------------
 Rotational constants (GHZ):      4.1913324      1.3588102      1.1008741
 Standard basis: Dummy (5D, 7F)
 There are    19 symmetry adapted basis functions of A   symmetry.
 Integral buffers will be    262144 words long.
 Raffenetti 1 integral format.
 Two-electron integral symmetry is turned on.
    19 basis functions,    19 primitive gaussians,    19 cartesian basis functions
    13 alpha electrons       13 beta electrons
       nuclear repulsion energy        67.8812366734 Hartrees.
 NAtoms=   19 NActive=   19 NUniq=   19 SFac= 7.50D-01 NAtFMM=   80 NAOKFM=F Big=F
 Dreiding calculation of energy and first derivatives.
 MO and density RWFs will be updated without deorthogonalization.
 NRF= 0 NRA=   0 NVA=  19 HaveQM=F
 Convergence limit is  0.750E-04 MaxStp=  5000 StMxLn= 1.00D-04 StpMin= 1.00D-06.
 Convergence criteria           0.00011250 0.00007500 0.00045000 0.00030000
  Step  NS  ND Rises OKQ   Scale  Max. Force  RMS Force Max. Disp.  RMS Disp.     Energy   Flag
     1   0   0   F    T  1.00D+00 0.07765725 0.01713624 0.07765725 0.01713624    0.0496674 ----
     2   0   0   F    F  2.17D-01 0.07765725 0.01713624 0.07765725 0.01713624    0.0398278 ----
     3   0   0   F    T  3.43D+00 0.02843297 0.00575605 0.02992488 0.00607210    0.0395056 ----
     4   0   0   F    F  1.18D+00 0.02843297 0.00575605 0.10279174 0.02085762    0.0344553 ----
     5   0   0   F    F -9.01D-03 0.02843297 0.00575605 0.12176798 0.02470811    0.0323228 ----
     6   0   0   F    T  2.58D+00 0.02742946 0.00908470 0.09669393 0.01757228    0.0323226 ----
     7   0   0   F    F -1.98D-01 0.02742946 0.00908470 0.24950612 0.04534300    0.0277245 ----
     8   0   0   F    F -2.88D-03 0.02742946 0.00908470 0.04939308 0.00897625    0.0274218 ----
     9   0   0   F    T  4.10D+00 0.01588793 0.00589101 0.05136783 0.00887466    0.0274218 ----
    10   0   0   F    F -1.95D-01 0.01588793 0.00589101 0.21064570 0.03639259    0.0243758 ----
    11   0   0   F    T  3.79D+00 0.01341582 0.00474873 0.03943233 0.00772677    0.0241916 ----
    12   0   0   F    F -1.99D-01 0.01341582 0.00474873 0.14951121 0.02929674    0.0223539 ----
    13   0   0   F    T  4.16D+00 0.00994694 0.00356185 0.02542632 0.00564606    0.0222321 ----
    14   0   0   F    F -4.70D-01 0.00994694 0.00356185 0.10568802 0.02346864    0.0220623 ----
    15   0   0   F    T  3.94D+00 0.00738569 0.00224192 0.01324089 0.00315568    0.0214345 ----
    16   0   0   F    F  6.15D-02 0.00738569 0.00224192 0.05221300 0.01244386    0.0208367 ----
    17   0   0   F    T  4.16D+00 0.00583390 0.00198857 0.01121279 0.00317754    0.0208346 ----
    18   0   0   F    F -1.04D-01 0.00583390 0.00198857 0.04661415 0.01320977    0.0204205 ----
    19   0   0   F    T  2.72D+00 0.00632622 0.00215852 0.01374895 0.00434188    0.0204148 ----
    20   0   0   F    F  3.94D-01 0.00632622 0.00215852 0.03746311 0.01183075    0.0199493 ----
    21   0   0   F    T  4.47D+00 0.00658073 0.00187755 0.01301763 0.00368950    0.0199087 ----
    22   0   0   F    F -2.74D-01 0.00658073 0.00187755 0.05817388 0.01648781    0.0196300 ----
    23   0   0   F    T  4.00D+00 0.00513365 0.00156315 0.00956549 0.00299290    0.0195838 ----
    24   0   0   F    F -4.10D-01 0.00513365 0.00156315 0.03823253 0.01196238    0.0194990 ----
    25   0   0   F    T  3.86D+00 0.00278819 0.00109004 0.00484512 0.00182938    0.0194196 ----
    26   0   0   F    F -3.29D-01 0.00278819 0.00109004 0.01868893 0.00705639    0.0193529 ----
    27   0   0   F    T  4.29D+00 0.00183705 0.00073519 0.00280945 0.00110425    0.0193318 ----
    28   0   0   F    F -1.23D-02 0.00183705 0.00073519 0.01205425 0.00473789    0.0192665 ----
    29   0   0   F    T  3.27D+00 0.00274769 0.00076973 0.00435283 0.00143247    0.0192665 ----
    30   0   0   F    F -3.09D-01 0.00274769 0.00076973 0.01422010 0.00467967    0.0192360 ----
    31   0   0   F    T  4.15D+00 0.00182731 0.00049806 0.00206701 0.00077966    0.0192284 ----
    32   0   0   F    F -2.42D-02 0.00182731 0.00049806 0.00857517 0.00323448    0.0191998 ----
    33   0   0   F    T  3.13D+00 0.00155233 0.00052379 0.00294240 0.00100883    0.0191998 ----
    34   0   0   F    F -2.26D-01 0.00155233 0.00052379 0.00920580 0.00315629    0.0191824 ----
    35   0   0   F    T  5.57D+00 0.00077561 0.00029627 0.00137266 0.00043900    0.0191808 ----
    36   0   0   F    F -8.48D-02 0.00077561 0.00029627 0.00764174 0.00244398    0.0191682 ----
    37   0   0   F    T  2.65D+00 0.00103421 0.00038709 0.00251610 0.00084375    0.0191681 ----
    38   0   0   F    F  7.42D-02 0.00103421 0.00038709 0.00667011 0.00223675    0.0191560 ----
    39   0   0   F    T  5.64D+00 0.00069456 0.00024795 0.00123446 0.00042587    0.0191559 ----
    40   0   0   F    F -4.73D-01 0.00069456 0.00024795 0.00696479 0.00240274    0.0191549 ----
    41   0   0   F    T  2.51D+00 0.00097555 0.00025156 0.00149623 0.00050538    0.0191507 ----
    42   0   0   F    F  2.87D+00 0.00097555 0.00025156 0.00375227 0.00126740    0.0191428 ----
    43   0   0   F    T  2.44D+00 0.00140351 0.00049397 0.00602625 0.00200962    0.0191332 ----
    44   0   0   F    F  7.25D-02 0.00140351 0.00049397 0.01469030 0.00489890    0.0191151 ----
    45   0   0   F    T  5.71D+00 0.00088686 0.00032407 0.00244121 0.00092085    0.0191151 ----
    46   0   0   F    F -4.07D-01 0.00088686 0.00032407 0.01392903 0.00525421    0.0191097 ----
    47   0   0   F    T  2.37D+00 0.00095174 0.00037922 0.00335855 0.00131747    0.0191049 ----
    48   0   0   F    F  9.71D-01 0.00095174 0.00037922 0.00794496 0.00311660    0.0190904 ----
    49   0   0   F    T  4.88D+00 0.00081312 0.00036278 0.00303211 0.00125759    0.0190858 ----
    50   0   0   F    F -2.37D-01 0.00081312 0.00036278 0.01481007 0.00614256    0.0190732 ----
    51   0   0   F    T  6.41D+00 0.00064660 0.00026680 0.00195811 0.00073083    0.0190718 ----
    52   0   0   F    F -4.81D-01 0.00064660 0.00026680 0.01256052 0.00468797    0.0190709 ----
    53   0   0   F    T  3.27D+00 0.00072298 0.00026062 0.00204224 0.00074332    0.0190651 ----
    54   0   0   F    F  5.39D-02 0.00072298 0.00026062 0.00668587 0.00243347    0.0190584 ----
    55   0   0   F    T  4.42D+00 0.00075561 0.00022173 0.00158255 0.00058088    0.0190584 ----
    56   0   0   F    F -3.56D-01 0.00075561 0.00022173 0.00698738 0.00256473    0.0190556 ----
    57   0   0   F    T  6.29D+00 0.00032317 0.00013766 0.00085162 0.00026268    0.0190544 ---+
    58   0   0   T    F  4.54D-01 0.00032317 0.00013766 0.00535288 0.00165105    0.0190551 ----
    59   0   0   F    T  2.12D+00 0.00036545 0.00015175 0.00128881 0.00035343    0.0190529 ----
    60   0   0   F    F  2.62D+00 0.00036545 0.00015175 0.00273057 0.00074880    0.0190505 ----
    61   0   0   F    T  8.37D+00 0.00038323 0.00013813 0.00114513 0.00032378    0.0190478 ----
    62   0   0   T    F  2.60D-01 0.00038323 0.00013813 0.00958631 0.00271045    0.0190562 ----
    63   0   0   F    T  3.48D+00 0.00021775 0.00010165 0.00080332 0.00020283    0.0190466 ---+
    64   0   0   F    F  1.88D-01 0.00021775 0.00010165 0.00279349 0.00070531    0.0190455 ----
    65   0   0   F    T  2.58D+00 0.00028455 0.00012356 0.00144179 0.00032434    0.0190454 ----
    66   0   0   F    F  2.76D-01 0.00028455 0.00012356 0.00372482 0.00083791    0.0190441 ----
    67   0   0   F    T  5.94D+00 0.00027691 0.00008624 0.00080865 0.00017979    0.0190440 ---+
    68   0   0   T    F  4.99D-01 0.00027691 0.00008624 0.00480706 0.00106878    0.0190440 ----
    69   0   0   F    T  2.47D+00 0.00031210 0.00009017 0.00095278 0.00021609    0.0190434 ---+
    70   0   0   F    F  6.63D-01 0.00031210 0.00009017 0.00234996 0.00053298    0.0190426 ----
    71   0   0   F    T  4.34D+00 0.00023633 0.00008365 0.00096032 0.00020413    0.0190424 ---+
    72   0   0   F    F -1.09D-01 0.00023633 0.00008365 0.00416893 0.00088618    0.0190417 ----
    73   0   0   F    T  2.83D+00 0.00028624 0.00009478 0.00132975 0.00027897    0.0190416 ---+
    74   0   0   F    F  6.74D-01 0.00028624 0.00009478 0.00376536 0.00078995    0.0190406 ----
    75   0   0   F    T  5.34D+00 0.00020911 0.00008666 0.00108133 0.00024758    0.0190404 ---+
    76   0   0   F    F -2.83D-01 0.00020911 0.00008666 0.00577593 0.00132244    0.0190397 ----
    77   0   0   F    T  4.23D+00 0.00023148 0.00007960 0.00099105 0.00022389    0.0190396 ---+
    78   0   0   F    F -4.18D-01 0.00023148 0.00007960 0.00419592 0.00094789    0.0190394 ----
    79   0   0   F    T  4.03D+00 0.00017343 0.00005902 0.00060382 0.00013690    0.0190392 -+-+
    80   0   0   F    F -7.00D-02 0.00017343 0.00005902 0.00243185 0.00055134    0.0190388 -+--
    81   0   0   F    T  3.12D+00 0.00023106 0.00006221 0.00063321 0.00016409    0.0190388 -+-+
    82   0   0   F    F -9.61D-02 0.00023106 0.00006221 0.00197865 0.00051276    0.0190385 -+--
    83   0   0   F    T  4.98D+00 0.00009483 0.00004399 0.00037141 0.00009299    0.0190385 ====
 Energy=    0.019038483717 NIter=   0.
 Dipole moment=       0.000000       0.000000       0.000000
 ***** Axes restored to original set *****
 -------------------------------------------------------------------
 Center     Atomic                   Forces (Hartrees/Bohr)
 Number     Number              X              Y              Z
 -------------------------------------------------------------------
    1          6           0.000016964   -0.000039367   -0.000029622
    2          6           0.000063365    0.000070928   -0.000024120
    3          6          -0.000061724   -0.000016542    0.000051140
    4          6           0.000008901   -0.000021893   -0.000097116
    5          6           0.000050181    0.000015139    0.000079351
    6          6          -0.000024012   -0.000040250    0.000116107
    7          1          -0.000066030    0.000115134   -0.000021056
    8          1           0.000004809   -0.000009439    0.000036243
    9          1          -0.000010126   -0.000013890    0.000052392
   10          1          -0.000004962   -0.000045455    0.000026025
   11          1          -0.000017010   -0.000020141   -0.000017105
   12          1          -0.000001005   -0.000007617   -0.000029697
   13          1           0.000024026    0.000027730    0.000007748
   14          1           0.000027834    0.000032022    0.000054148
   15          1           0.000008915   -0.000040362   -0.000018977
   16          1          -0.000011825    0.000013390   -0.000066257
   17          1          -0.000000028    0.000027769   -0.000033894
   18         16           0.000025576    0.000014271   -0.000092965
   19          1          -0.000033849   -0.000061429    0.000007657
 -------------------------------------------------------------------
 Cartesian Forces:  Max     0.000116107 RMS     0.000043987

 GradGradGradGradGradGradGradGradGradGradGradGradGradGradGradGradGradGrad
 Berny optimization.
 Search for a local minimum.
 Step number   1 out of a maximum of   2
 All quantities printed in internal units (Hartrees-Bohrs-Radians)
 Second derivative matrix not updated -- unit matrix used.
 RFO step:  Lambda=-1.10289058D-07.
 Linear search not attempted -- first point.
 TrRot=  0.000000  0.000000  0.000000  0.000000  0.000000  0.000000
 Variable       Old X    -DE/DX   Delta X   Delta X   Delta X     New X
                                 (Linear)    (Quad)   (Total)
    X1        0.34140   0.00002   0.00000   0.00002   0.00002   0.34142
    Y1       -3.16063  -0.00004   0.00000  -0.00004  -0.00004  -3.16067
    Z1       -2.20118  -0.00003   0.00000  -0.00003  -0.00003  -2.20121
    X2        3.03818   0.00006   0.00000   0.00006   0.00006   3.03824
    Y2       -2.02061   0.00007   0.00000   0.00007   0.00007  -2.02053
    Z2       -2.33567  -0.00002   0.00000  -0.00002  -0.00002  -2.33570
    X3        2.99030  -0.00006   0.00000  -0.00006  -0.00006   2.99024
    Y3        0.90518  -0.00002   0.00000  -0.00002  -0.00002   0.90516
    Z3       -2.16821   0.00005   0.00000   0.00005   0.00005  -2.16816
    X4       -1.11956   0.00001   0.00000   0.00001   0.00001  -1.11955
    Y4       -2.22719  -0.00002   0.00000  -0.00002  -0.00002  -2.22721
    Z4        0.16392  -0.00010   0.00000  -0.00010  -0.00010   0.16382
    X5        1.52838   0.00005   0.00000   0.00005   0.00005   1.52843
    Y5        1.83800   0.00002   0.00000   0.00002   0.00002   1.83801
    Z5        0.19634   0.00008   0.00000   0.00008   0.00008   0.19642
    X6       -1.18462  -0.00002   0.00000  -0.00002  -0.00002  -1.18464
    Y6        0.70779  -0.00004   0.00000  -0.00004  -0.00004   0.70775
    Z6        0.32314   0.00012   0.00000   0.00012   0.00012   0.32325
    X7        0.47622  -0.00007   0.00000  -0.00007  -0.00007   0.47615
    Y7       -5.22183   0.00012   0.00000   0.00012   0.00012  -5.22171
    Z7       -2.15083  -0.00002   0.00000  -0.00002  -0.00002  -2.15085
    X8       -0.70744   0.00000   0.00000   0.00000   0.00000  -0.70744
    Y8       -2.63770  -0.00001   0.00000  -0.00001  -0.00001  -2.63771
    Z8       -3.90411   0.00004   0.00000   0.00004   0.00004  -3.90407
    X9        3.93093  -0.00001   0.00000  -0.00001  -0.00001   3.93092
    Y9       -2.58751  -0.00001   0.00000  -0.00001  -0.00001  -2.58753
    Z9       -4.11035   0.00005   0.00000   0.00005   0.00005  -4.11030
   X10        4.17813   0.00000   0.00000   0.00000   0.00000   4.17812
   Y10       -2.77508  -0.00005   0.00000  -0.00005  -0.00005  -2.77513
   Z10       -0.78526   0.00003   0.00000   0.00003   0.00003  -0.78524
   X11        2.10099  -0.00002   0.00000  -0.00002  -0.00002   2.10098
   Y11        1.67301  -0.00002   0.00000  -0.00002  -0.00002   1.67299
   Z11       -3.86892  -0.00002   0.00000  -0.00002  -0.00002  -3.86894
   X12        4.92910   0.00000   0.00000   0.00000   0.00000   4.92910
   Y12        1.61472  -0.00001   0.00000  -0.00001  -0.00001   1.61471
   Z12       -2.09496  -0.00003   0.00000  -0.00003  -0.00003  -2.09499
   X13       -0.21766   0.00002   0.00000   0.00002   0.00002  -0.21764
   Y13       -3.00140   0.00003   0.00000   0.00003   0.00003  -3.00137
   Z13        1.85611   0.00001   0.00000   0.00001   0.00001   1.85611
   X14       -3.05051   0.00003   0.00000   0.00003   0.00003  -3.05048
   Y14       -2.95971   0.00003   0.00000   0.00003   0.00003  -2.95967
   Z14        0.08297   0.00005   0.00000   0.00005   0.00005   0.08302
   X15        1.42126   0.00001   0.00000   0.00001   0.00001   1.42127
   Y15        3.90064  -0.00004   0.00000  -0.00004  -0.00004   3.90060
   Z15        0.13677  -0.00002   0.00000  -0.00002  -0.00002   0.13676
   X16        2.58520  -0.00001   0.00000  -0.00001  -0.00001   2.58519
   Y16        1.30677   0.00001   0.00000   0.00001   0.00001   1.30678
   Z16        1.89254  -0.00007   0.00000  -0.00007  -0.00007   1.89247
   X17       -2.28265   0.00000   0.00000   0.00000   0.00000  -2.28265
   Y17        1.42581   0.00003   0.00000   0.00003   0.00003   1.42583
   Z17       -1.27544  -0.00003   0.00000  -0.00003  -0.00003  -1.27547
   X18       -2.79403   0.00003   0.00000   0.00003   0.00003  -2.79401
   Y18        1.68384   0.00001   0.00000   0.00001   0.00001   1.68386
   Z18        3.18436  -0.00009   0.00000  -0.00009  -0.00009   3.18427
   X19       -2.78363  -0.00003   0.00000  -0.00003  -0.00003  -2.78366
   Y19        4.17836  -0.00006   0.00000  -0.00006  -0.00006   4.17830
   Z19        2.55764   0.00001   0.00000   0.00001   0.00001   2.55765
         Item               Value     Threshold  Converged?
 Maximum Force            0.000116     0.000450     YES
 RMS     Force            0.000044     0.000300     YES
 Maximum Displacement     0.000116     0.001800     YES
 RMS     Displacement     0.000044     0.001200     YES
 Predicted change in Energy=-5.514452D-08
 Optimization completed.
    -- Stationary point found.
 GradGradGradGradGradGradGradGradGradGradGradGradGradGradGradGradGradGrad

                          Input orientation:                          
 ---------------------------------------------------------------------
 Center     Atomic     Atomic              Coordinates (Angstroms)
 Number     Number      Type              X           Y           Z
 ---------------------------------------------------------------------
    1          6      10061003        0.180662   -1.672532   -1.164814
    2          6      10061003        1.607735   -1.069258   -1.235985
    3          6      10061003        1.582401    0.479000   -1.147366
    4          6      10061003       -0.592445   -1.178578    0.086742
    5          6      10061003        0.808782    0.972627    0.103899
    6          6      10061003       -0.626871    0.374546    0.170996
    7          1      10011000        0.252005   -2.763272   -1.138170
    8          1      10011000       -0.374363   -1.395813   -2.065966
    9          1      10011000        2.080156   -1.369253   -2.175102
   10          1      10011000        2.210970   -1.468511   -0.415543
   11          1      10011000        1.111798    0.885321   -2.047343
   12          1      10011000        2.608368    0.854474   -1.108606
   13          1      10011000       -0.115182   -1.588272    0.982209
   14          1      10011000       -1.614259   -1.566209    0.043904
   15          1      10011000        0.752100    2.064128    0.072378
   16          1      10011000        1.368030    0.691513    1.001488
   17          1      10011000       -1.207925    0.754504   -0.674932
   18         16      10161003       -1.478538    0.891052    1.685092
   19          1      10011000       -1.473033    2.211095    1.353446
 ---------------------------------------------------------------------
                    Distance matrix (angstroms):
                    1          2          3          4          5
     1  C    0.000000
     2  C    1.550981   0.000000
     3  C    2.567931   1.551000   0.000000
     4  C    1.551799   2.569504   3.000091   0.000000
     5  C    3.000172   2.569613   1.551714   2.567375   0.000000
     6  C    2.574301   3.009590   2.574854   1.555788   1.556696
     7  H    1.093396   2.171925   3.504622   2.173652   3.976139
     8  H    1.093938   2.173527   2.861412   2.174604   3.423105
     9  H    2.172726   1.093215   2.172566   3.506436   3.506371
    10  H    2.173749   1.093810   2.173353   2.862777   2.862709
    11  H    2.861552   2.173623   1.093857   3.423221   2.174232
    12  H    3.504665   2.172151   1.093202   3.975848   2.173164
    13  H    2.168948   2.856257   3.419136   1.094299   2.860653
    14  H    2.166574   3.502330   3.977517   1.093707   3.510044
    15  H    3.977413   3.501719   2.165595   3.510435   1.093426
    16  H    3.419272   2.857282   2.169951   2.859627   1.094281
    17  H    2.838778   3.401299   2.843416   2.166972   2.172846
    18  S    4.176946   4.679807   4.190698   2.761024   2.781845
    19  H    4.915171   5.192014   4.311600   3.724226   2.881293
                    6          7          8          9         10
     6  C    0.000000
     7  H    3.511729   0.000000
     8  H    2.863901   1.767226   0.000000
     9  H    3.984094   2.522034   2.457087   0.000000
    10  H    3.434273   2.456857   3.068082   1.767205   0.000000
    11  H    2.864418   3.857210   2.722607   2.457060   3.067813
    12  H    3.512049   4.317570   3.857073   2.522178   2.456526
    13  H    2.184615   2.451828   3.065222   3.851765   2.716438
    14  H    2.181196   2.512608   2.453146   4.314102   3.853961
    15  H    2.183111   5.001931   4.220500   4.313120   3.853038
    16  H    2.183991   4.214166   4.099041   3.852870   2.717394
    17  H    1.094343   3.836761   2.693263   4.191936   4.086309
    18  S    1.812347   4.931498   4.529833   5.716151   4.857229
    19  H    2.342454   5.824796   5.090112   6.155867   5.499155
                   11         12         13         14         15
    11  H    0.000000
    12  H    1.766891   0.000000
    13  H    4.099064   4.213816   0.000000
    14  H    4.220746   5.001856   1.768654   0.000000
    15  H    2.451976   2.510720   3.862640   4.333568   0.000000
    16  H    3.065712   2.453058   2.719872   3.861130   1.768243
    17  H    2.698470   3.842156   3.070635   2.463237   2.472911
    18  S    4.543231   4.950646   2.915447   2.958049   2.992107
    19  H    4.472627   4.955801   4.051761   4.000359   2.571761
                   16         17         18         19
    16  H    0.000000
    17  H    3.074068   0.000000
    18  S    2.934294   2.379409   0.000000
    19  H    3.241087   2.511226   1.361078   0.000000
 Stoichiometry    C6H12S
 Framework group  C1[X(C6H12S)]
 Deg. of freedom    51
 Full point group                 C1
 Largest Abelian subgroup         C1      NOp   1
 Largest concise Abelian subgroup C1      NOp   1
                         Standard orientation:                         
 ---------------------------------------------------------------------
 Center     Atomic     Atomic              Coordinates (Angstroms)
 Number     Number      Type              X           Y           Z
 ---------------------------------------------------------------------
    1          6      10061003       -1.596212   -1.266580    0.214226
    2          6      10061003       -2.281647    0.022012   -0.310420
    3          6      10061003       -1.554224    1.300789    0.180689
    4          6      10061003       -0.083088   -1.295457   -0.128850
    5          6      10061003       -0.041109    1.271361   -0.161998
    6          6      10061003        0.649217   -0.017545    0.372297
    7          1      10011000       -2.083759   -2.139331   -0.228626
    8          1      10011000       -1.722859   -1.327597    1.299093
    9          1      10011000       -3.319801    0.043604    0.031472
   10          1      10011000       -2.289820    0.008206   -1.404112
   11          1      10011000       -1.678252    1.394412    1.263452
   12          1      10011000       -2.012619    2.177287   -0.284840
   13          1      10011000        0.032389   -1.388180   -1.213082
   14          1      10011000        0.364900   -2.179778    0.333186
   15          1      10011000        0.434382    2.152865    0.276682
   16          1      10011000        0.078703    1.331073   -1.248060
   17          1      10011000        0.618649   -0.007335    1.466165
   18         16      10161003        2.393191   -0.074323   -0.117534
   19          1      10011000        2.729414    1.036455    0.593563
 ---------------------------------------------------------------------
 Rotational constants (GHZ):      4.1247721      1.3865085      1.1101288
 1|1|UNPC-UNK|FOpt|Dreiding|ZDO|C6H12S1|PCUSER|13-Dec-2007|0||# opt dre
 iding||cyclohexanethiol-eq||0,1|C,0.1806617307,-1.6725320533,-1.164814
 342|C,1.6077352162,-1.069258491,-1.2359846855|C,1.5824012393,0.4790004
 873,-1.1473655454|C,-0.5924454408,-1.1785780176,0.0867421336|C,0.80878
 17101,0.9726267908,0.1038987563|C,-0.6268712741,0.3745458359,0.1709964
 485|H,0.2520045796,-2.76327246,-1.1381702575|H,-0.374362693,-1.3958129
 082,-2.0659658003|H,2.0801559901,-1.3692526084,-2.1751022126|H,2.21097
 02847,-1.4685107075,-0.4155429533|H,1.1117975199,0.8853207543,-2.04734
 3181|H,2.6083683384,0.8544741102,-1.1086064157|H,-0.1151817154,-1.5882
 715083,0.9822094186|H,-1.6142587667,-1.5662087742,0.0439035021|H,0.752
 1004553,2.0641277268,0.0723782003|H,1.3680297469,0.6915131988,1.001488
 2461|H,-1.2079251109,0.7545035527,-0.6749315349|S,-1.4785382342,0.8910
 521118,1.6850921559|H,-1.4730329461,2.21109546,1.3534461968||Version=I
 A32W-G03RevD.01|HF=0.0190385|RMSD=0.000e+000|RMSF=4.399e-005|Thermal=0
 .|Dipole=0.,0.,0.|PG=C01 [X(C6H12S1)]||@


 You can't act like a skunk without someone's getting wind of it.
 -- Lorene Workman
 Job cpu time:  0 days  0 hours  0 minutes  3.0 seconds.
 File lengths (MBytes):  RWF=     11 Int=      0 D2E=      0 Chk=      4 Scr=      1
 Normal termination of Gaussian 03 at Thu Dec 13 16:05:26 2007.
