 Entering Link 1 = C:\G03W\l1.exe PID=      2928.
  
 Copyright (c) 1988,1990,1992,1993,1995,1998,2003,2004, Gaussian, Inc.
                  All Rights Reserved.
  
 This is the Gaussian(R) 03 program.  It is based on the
 the Gaussian(R) 98 system (copyright 1998, Gaussian, Inc.),
 the Gaussian(R) 94 system (copyright 1995, Gaussian, Inc.),
 the Gaussian 92(TM) system (copyright 1992, Gaussian, Inc.),
 the Gaussian 90(TM) system (copyright 1990, Gaussian, Inc.),
 the Gaussian 88(TM) system (copyright 1988, Gaussian, Inc.),
 the Gaussian 86(TM) system (copyright 1986, Carnegie Mellon
 University), and the Gaussian 82(TM) system (copyright 1983,
 Carnegie Mellon University). Gaussian is a federally registered
 trademark of Gaussian, Inc.
  
 This software contains proprietary and confidential information,
 including trade secrets, belonging to Gaussian, Inc.
  
 This software is provided under written license and may be
 used, copied, transmitted, or stored only in accord with that
 written license.
  
 The following legend is applicable only to US Government
 contracts under FAR:
  
                    RESTRICTED RIGHTS LEGEND
  
 Use, reproduction and disclosure by the US Government is
 subject to restrictions as set forth in subparagraphs (a)
 and (c) of the Commercial Computer Software - Restricted
 Rights clause in FAR 52.227-19.
  
 Gaussian, Inc.
 340 Quinnipiac St., Bldg. 40, Wallingford CT 06492
  
  
 ---------------------------------------------------------------
 Warning -- This program may not be used in any manner that
 competes with the business of Gaussian, Inc. or will provide
 assistance to any competitor of Gaussian, Inc.  The licensee
 of this program is prohibited from giving any competitor of
 Gaussian, Inc. access to this program.  By using this program,
 the user acknowledges that Gaussian, Inc. is engaged in the
 business of creating and licensing software in the field of
 computational chemistry and represents and warrants to the
 licensee that it is not a competitor of Gaussian, Inc. and that
 it will not use this program in any manner prohibited above.
 ---------------------------------------------------------------
  

 Cite this work as:
 Gaussian 03, Revision D.01,
 M. J. Frisch, G. W. Trucks, H. B. Schlegel, G. E. Scuseria, 
 M. A. Robb, J. R. Cheeseman, J. A. Montgomery, Jr., T. Vreven, 
 K. N. Kudin, J. C. Burant, J. M. Millam, S. S. Iyengar, J. Tomasi, 
 V. Barone, B. Mennucci, M. Cossi, G. Scalmani, N. Rega, 
 G. A. Petersson, H. Nakatsuji, M. Hada, M. Ehara, K. Toyota, 
 R. Fukuda, J. Hasegawa, M. Ishida, T. Nakajima, Y. Honda, O. Kitao, 
 H. Nakai, M. Klene, X. Li, J. E. Knox, H. P. Hratchian, J. B. Cross, 
 V. Bakken, C. Adamo, J. Jaramillo, R. Gomperts, R. E. Stratmann, 
 O. Yazyev, A. J. Austin, R. Cammi, C. Pomelli, J. W. Ochterski, 
 P. Y. Ayala, K. Morokuma, G. A. Voth, P. Salvador, J. J. Dannenberg, 
 V. G. Zakrzewski, S. Dapprich, A. D. Daniels, M. C. Strain, 
 O. Farkas, D. K. Malick, A. D. Rabuck, K. Raghavachari, 
 J. B. Foresman, J. V. Ortiz, Q. Cui, A. G. Baboul, S. Clifford, 
 J. Cioslowski, B. B. Stefanov, G. Liu, A. Liashenko, P. Piskorz, 
 I. Komaromi, R. L. Martin, D. J. Fox, T. Keith, M. A. Al-Laham, 
 C. Y. Peng, A. Nanayakkara, M. Challacombe, P. M. W. Gill, 
 B. Johnson, W. Chen, M. W. Wong, C. Gonzalez, and J. A. Pople, 
 Gaussian, Inc., Wallingford CT, 2004.
 
 ******************************************
 Gaussian 03:  IA32W-G03RevD.01 13-Oct-2005
                13-Dec-2007 
 ******************************************
 --------------
 # opt dreiding
 --------------
 1/6=10,10=10,14=-1,18=4000020,38=1,56=1,64=1/1,3;
 2/9=110,17=6,18=5,40=1/2;
 3/5=30,11=9,16=1,25=1,30=1/1;
 4/20=9,22=1001,24=3/2;
 7/44=-1/16;
 1/6=10,10=10,14=-1,18=4000020,64=1/3(2);
 2/9=110/2;
 99//99;
 2/9=110/2;
 3/5=30,11=9,16=1,25=1,30=1/1;
 4/16=2,20=9,22=1001,24=3/2;
 7/44=-1/16;
 1/6=10,10=10,14=-1,18=4000020,64=1/3(-4);
 2/9=110/2;
 99//99;
 --------------------
 fluorocyclohexane-ax
 --------------------
 Symbolic Z-matrix:
 Charge =  0 Multiplicity = 1
 C                    -0.85271  -0.9485   -0.67438 
 C                    -0.09671  -1.4805    0.55163 
 C                     1.34429  -0.9505    0.57863 
 C                    -0.82771   0.5855   -0.73138 
 C                     1.36329   0.5845    0.55163 
 C                     0.61029   1.1205   -0.67438 
 H                    -1.90871  -1.3095   -0.65838 
 H                    -0.38171  -1.3565   -1.60038 
 H                    -0.09071  -2.5975    0.53963 
 H                     1.90229  -1.3455   -0.30338 
 H                     1.86929  -1.3215    1.49263 
 H                    -1.32971   0.9405   -1.66438 
 H                     2.41829   0.9505    0.53963 
 H                     0.89329   0.9785    1.48363 
 H                     1.15129   0.8125   -1.60038 
 H                     0.59829   2.2365   -0.65838 
 H                    -0.62571  -1.1695    1.48363 
 F                    -1.52671   1.0795    0.37063 
 
 Include all MM classes
 MMInit generated parameter data with length LenPar=  2129.

 GradGradGradGradGradGradGradGradGradGradGradGradGradGradGradGradGradGrad
 Berny optimization.
 Initialization pass.
 No Z-matrix variables, so optimization will use Cartesian coordinates.
 Trust Radius=1.00D-01 FncErr=1.00D-07 GrdErr=1.00D-07
 Number of steps in this run=   2 maximum allowed number of steps=   2.
 GradGradGradGradGradGradGradGradGradGradGradGradGradGradGradGradGradGrad

                          Input orientation:                          
 ---------------------------------------------------------------------
 Center     Atomic     Atomic              Coordinates (Angstroms)
 Number     Number      Type              X           Y           Z
 ---------------------------------------------------------------------
    1          6      10061003       -0.852714   -0.948500   -0.674375
    2          6      10061003       -0.096714   -1.480500    0.551625
    3          6      10061003        1.344286   -0.950500    0.578625
    4          6      10061003       -0.827714    0.585500   -0.731375
    5          6      10061003        1.363286    0.584500    0.551625
    6          6      10061003        0.610286    1.120500   -0.674375
    7          1      10011000       -1.908714   -1.309500   -0.658375
    8          1      10011000       -0.381714   -1.356500   -1.600375
    9          1      10011000       -0.090714   -2.597500    0.539625
   10          1      10011000        1.902286   -1.345500   -0.303375
   11          1      10011000        1.869286   -1.321500    1.492625
   12          1      10011000       -1.329714    0.940500   -1.664375
   13          1      10011000        2.418286    0.950500    0.539625
   14          1      10011000        0.893286    0.978500    1.483625
   15          1      10011000        1.151286    0.812500   -1.600375
   16          1      10011000        0.598286    2.236500   -0.658375
   17          1      10011000       -0.625714   -1.169500    1.483625
   18          9      10091000       -1.526714    1.079500    0.370625
 ---------------------------------------------------------------------
                    Distance matrix (angstroms):
                    1          2          3          4          5
     1  C    0.000000
     2  C    1.535460   0.000000
     3  C    2.529194   1.535614   0.000000
     4  C    1.535262   2.539450   2.965296   0.000000
     5  C    2.960375   2.528997   1.535355   2.539010   0.000000
     6  C    2.533995   2.961102   2.529388   1.535356   1.535377
     7  H    1.116115   2.185563   3.498722   2.182869   3.969549
     8  H    1.116146   2.174329   2.809262   2.173808   3.382841
     9  H    2.184866   1.117081   2.184801   3.505724   3.498483
    10  H    2.808073   2.178360   1.115936   3.371179   2.178634
    11  H    3.499186   2.185387   1.117435   3.982039   2.185029
    12  H    2.185395   3.506021   3.969535   1.117371   3.505658
    13  H    3.972334   3.497875   2.183758   3.505022   1.116748
    14  H    3.379173   2.809876   2.177950   2.832404   1.115688
    15  H    2.823936   3.383261   2.809530   2.173277   2.174404
    16  H    3.499983   3.970291   3.499093   2.182798   2.185962
    17  H    2.181131   1.115879   2.178964   2.833206   2.810918
    18  F    2.378883   2.937901   3.522329   1.395364   2.937667
                    6          7          8          9         10
     6  C    0.000000
     7  H    3.500074   0.000000
     8  H    2.824371   1.794799   0.000000
     9  H    3.973502   2.529678   2.490856   0.000000
    10  H    2.808569   3.827668   2.626592   2.500040   0.000000
    11  H    3.499190   4.347439   3.825556   2.525467   1.796463
    12  H    2.185429   2.531754   2.485761   4.348584   4.186161
    13  H    2.184390   5.026503   4.212107   4.345502   2.499704
    14  H    2.181105   4.204083   4.072948   3.827162   3.100391
    15  H    1.115805   3.841074   2.656059   4.213106   2.627389
    16  H    1.116179   4.342714   3.841538   5.027672   3.828468
    17  H    3.380645   2.500770   3.099284   1.793473   3.100827
    18  F    2.379175   2.629085   3.336160   3.951074   4.253580
                   11         12         13         14         15
    11  H    0.000000
    12  H    5.031590   0.000000
    13  H    2.524202   4.348013   0.000000
    14  H    2.498531   3.853969   1.793752   0.000000
    15  H    3.825719   2.485124   2.490770   3.099222   0.000000
    16  H    4.347598   2.531568   2.530099   2.501550   1.794700
    17  H    2.499642   3.854558   3.827724   2.630830   4.073955
    18  F    4.307726   2.049233   3.950725   2.665590   3.335838
                   16         17         18
    16  H    0.000000
    17  H    4.205612   0.000000
    18  F    2.629280   2.666190   0.000000
 Stoichiometry    C6H11F
 Framework group  C1[X(C6H11F)]
 Deg. of freedom    48
 Full point group                 C1
 Largest Abelian subgroup         C1      NOp   1
 Largest concise Abelian subgroup C1      NOp   1
                         Standard orientation:                         
 ---------------------------------------------------------------------
 Center     Atomic     Atomic              Coordinates (Angstroms)
 Number     Number      Type              X           Y           Z
 ---------------------------------------------------------------------
    1          6      10061003        0.345134   -1.266819    0.598003
    2          6      10061003       -0.906765   -1.264359   -0.291030
    3          6      10061003       -1.744272    0.000686   -0.053639
    4          6      10061003        1.187571   -0.000217    0.390519
    5          6      10061003       -0.905688    1.264638   -0.291374
    6          6      10061003        0.346079    1.267176    0.597700
    7          1      10011000        0.963143   -2.171511    0.385140
    8          1      10011000        0.034058   -1.327775    1.668188
    9          1      10011000       -1.522846   -2.172668   -0.082973
   10          1      10011000       -2.129186    0.000599    0.993813
   11          1      10011000       -2.633437    0.001124   -0.730430
   12          1      10011000        2.055778   -0.000430    1.093893
   13          1      10011000       -1.521375    2.172834   -0.083444
   14          1      10011000       -0.604914    1.314743   -1.364586
   15          1      10011000        0.035602    1.328284    1.667696
   16          1      10011000        0.965069    2.171202    0.384525
   17          1      10011000       -0.605787   -1.316086   -1.364306
   18          9      10091000        1.670170   -0.000771   -0.918733
 ---------------------------------------------------------------------
 Rotational constants (GHZ):      3.5233313      2.6254810      1.9820428
 Standard basis: Dummy (5D, 7F)
 There are    18 symmetry adapted basis functions of A   symmetry.
 Integral buffers will be    262144 words long.
 Raffenetti 1 integral format.
 Two-electron integral symmetry is turned on.
    18 basis functions,    18 primitive gaussians,    18 cartesian basis functions
    12 alpha electrons       12 beta electrons
       nuclear repulsion energy        61.2908286330 Hartrees.
 NAtoms=   18 NActive=   18 NUniq=   18 SFac= 7.50D-01 NAtFMM=   80 NAOKFM=F Big=F
 Dreiding calculation of energy and first derivatives.
 MO and density RWFs will be updated without deorthogonalization.
 NRF= 0 NRA=   0 NVA=  18 HaveQM=F
 Convergence limit is  0.750E-04 MaxStp=  5000 StMxLn= 1.00D-04 StpMin= 1.00D-06.
 Convergence criteria           0.00011250 0.00007500 0.00045000 0.00030000
  Step  NS  ND Rises OKQ   Scale  Max. Force  RMS Force Max. Disp.  RMS Disp.     Energy   Flag
     1   0   0   F    T  1.00D+00 0.02967722 0.01190958 0.02967722 0.01190958    0.0244223 ----
     2   0   0   F    F  1.31D-01 0.02967722 0.01190958 0.02967722 0.01190958    0.0201552 ----
     3   0   0   F    T  6.02D+00 0.00740660 0.00219970 0.00754447 0.00223690    0.0200975 ----
     4   0   0   F    F -3.82D-01 0.00740660 0.00219970 0.04541760 0.01346613    0.0197956 ----
     5   0   0   F    T  2.42D+00 0.00631977 0.00233586 0.01359648 0.00343749    0.0196122 ----
     6   0   0   F    F -1.02D-01 0.00631977 0.00233586 0.03294173 0.00832840    0.0192966 ----
     7   0   0   F    T  5.64D+00 0.00391393 0.00108979 0.00690121 0.00132591    0.0192925 ----
     8   0   0   F    F  7.65D-01 0.00391393 0.00108979 0.03893754 0.00748099    0.0190346 ----
     9   0   0   F    T  3.96D+00 0.00470031 0.00160894 0.01706023 0.00333462    0.0189756 ----
    10   0   0   T    F  4.04D-01 0.00470031 0.00160894 0.06754677 0.01320279    0.0191067 ----
    11   0   0   F    T  4.05D+00 0.00285447 0.00086894 0.00452007 0.00131796    0.0188637 ----
    12   0   0   F    F  1.11D-01 0.00285447 0.00086894 0.01831331 0.00533980    0.0187728 ----
    13   0   0   F    T  2.83D+00 0.00305348 0.00102548 0.00654738 0.00209957    0.0187719 ----
    14   0   0   F    F  1.12D+00 0.00305348 0.00102548 0.01850557 0.00593426    0.0186493 ----
    15   0   0   F    T  4.88D+00 0.00344866 0.00108249 0.00536461 0.00258122    0.0186019 ----
    16   0   0   F    F -4.39D-01 0.00344866 0.00108249 0.02615540 0.01258485    0.0185679 ----
    17   0   0   F    T  6.71D+00 0.00216950 0.00061430 0.00220416 0.00105377    0.0185155 ----
    18   0   0   T    F  3.64D-01 0.00216950 0.00061430 0.01478037 0.00706627    0.0185669 ----
    19   0   0   F    T  4.00D+00 0.00087811 0.00041795 0.00144436 0.00064242    0.0184906 ----
    20   0   0   F    F  4.14D-01 0.00087811 0.00041795 0.00577909 0.00257044    0.0184662 ----
    21   0   0   F    T  2.79D+00 0.00153635 0.00056409 0.00273680 0.00130064    0.0184640 ----
    22   0   0   F    F -2.48D-01 0.00153635 0.00056409 0.00764792 0.00363461    0.0184479 ----
    23   0   0   F    T  6.18D+00 0.00071843 0.00028755 0.00140441 0.00044253    0.0184459 ----
    24   0   0   T    F  4.11D-01 0.00071843 0.00028755 0.00867396 0.00273319    0.0184518 ----
    25   0   0   F    T  2.86D+00 0.00054265 0.00024087 0.00151154 0.00039276    0.0184402 ----
    26   0   0   F    F  7.46D-01 0.00054265 0.00024087 0.00432835 0.00112469    0.0184338 ----
    27   0   0   F    T  2.90D+00 0.00088206 0.00029934 0.00255228 0.00067713    0.0184324 ----
    28   0   0   F    F -1.14D-01 0.00088206 0.00029934 0.00740189 0.00196375    0.0184263 ----
    29   0   0   F    T  7.57D+00 0.00037398 0.00015095 0.00058111 0.00022996    0.0184262 ---+
    30   0   0   T    F  3.87D-01 0.00037398 0.00015095 0.00439703 0.00174001    0.0184289 ----
    31   0   0   F    T  2.31D+00 0.00035233 0.00015620 0.00065471 0.00029168    0.0184244 ---+
    32   0   0   F    F  9.26D-01 0.00035233 0.00015620 0.00150977 0.00067261    0.0184221 ----
    33   0   0   F    T  1.97D+01 0.00011807 0.00005514 0.00012648 0.00006594    0.0184214 -+++
    34   0   0   T    F  9.69D-02 0.00011807 0.00005514 0.00248547 0.00129576    0.0184349 -+--
    35   0   0   F    T  2.57D+00 0.00010083 0.00003776 0.00014145 0.00004882    0.0184213 ====
 Energy=    0.018421291059 NIter=   0.
 Dipole moment=       0.000000       0.000000       0.000000
 ***** Axes restored to original set *****
 -------------------------------------------------------------------
 Center     Atomic                   Forces (Hartrees/Bohr)
 Number     Number              X              Y              Z
 -------------------------------------------------------------------
    1          6           0.000020495   -0.000021586    0.000020987
    2          6          -0.000027526    0.000094346   -0.000014448
    3          6          -0.000015365   -0.000000603    0.000067111
    4          6          -0.000013411   -0.000017704   -0.000027698
    5          6          -0.000112169    0.000003789   -0.000015401
    6          6           0.000040368   -0.000001538    0.000021773
    7          1           0.000086922   -0.000039443    0.000037063
    8          1          -0.000059407    0.000014540   -0.000026533
    9          1           0.000025505   -0.000009284   -0.000023958
   10          1           0.000023604   -0.000017105   -0.000033240
   11          1          -0.000057530    0.000039489   -0.000010873
   12          1           0.000026129   -0.000016432    0.000048034
   13          1           0.000032319   -0.000018303   -0.000025464
   14          1          -0.000021169   -0.000008743   -0.000011934
   15          1          -0.000028949    0.000048371   -0.000033010
   16          1           0.000066533   -0.000067574    0.000039211
   17          1           0.000004612    0.000021159   -0.000018223
   18          9           0.000009037   -0.000003379    0.000006602
 -------------------------------------------------------------------
 Cartesian Forces:  Max     0.000112169 RMS     0.000037763

 GradGradGradGradGradGradGradGradGradGradGradGradGradGradGradGradGradGrad
 Berny optimization.
 Search for a local minimum.
 Step number   1 out of a maximum of   2
 All quantities printed in internal units (Hartrees-Bohrs-Radians)
 Second derivative matrix not updated -- unit matrix used.
 RFO step:  Lambda=-7.70067928D-08.
 Linear search not attempted -- first point.
 TrRot=  0.000000  0.000000  0.000000  0.000000  0.000000  0.000000
 Variable       Old X    -DE/DX   Delta X   Delta X   Delta X     New X
                                 (Linear)    (Quad)   (Total)
    X1       -1.65348   0.00002   0.00000   0.00002   0.00002  -1.65346
    Y1       -1.80542  -0.00002   0.00000  -0.00002  -0.00002  -1.80544
    Z1       -1.26624   0.00002   0.00000   0.00002   0.00002  -1.26622
    X2       -0.17296  -0.00003   0.00000  -0.00003  -0.00003  -0.17299
    Y2       -2.85234   0.00009   0.00000   0.00009   0.00009  -2.85225
    Z2        1.03979  -0.00001   0.00000  -0.00001  -0.00001   1.03978
    X3        2.56822  -0.00002   0.00000  -0.00002  -0.00002   2.56820
    Y3       -1.81632   0.00000   0.00000   0.00000   0.00000  -1.81632
    Z3        1.13392   0.00007   0.00000   0.00007   0.00007   1.13399
    X4       -1.59499  -0.00001   0.00000  -0.00001  -0.00001  -1.59500
    Y4        1.12780  -0.00002   0.00000  -0.00002  -0.00002   1.12779
    Z4       -1.39028  -0.00003   0.00000  -0.00003  -0.00003  -1.39030
    X5        2.63132  -0.00011   0.00000  -0.00011  -0.00011   2.63121
    Y5        1.11340   0.00000   0.00000   0.00000   0.00000   1.11340
    Z5        1.04012  -0.00002   0.00000  -0.00002  -0.00002   1.04011
    X6        1.15094   0.00004   0.00000   0.00004   0.00004   1.15098
    Y6        2.16060   0.00000   0.00000   0.00000   0.00000   2.16060
    Z6       -1.26587   0.00002   0.00000   0.00002   0.00002  -1.26585
    X7       -3.61318   0.00009   0.00000   0.00009   0.00009  -3.61309
    Y7       -2.45432  -0.00004   0.00000  -0.00004  -0.00004  -2.45435
    Z7       -1.17314   0.00004   0.00000   0.00004   0.00004  -1.17310
    X8       -0.82524  -0.00006   0.00000  -0.00006  -0.00006  -0.82530
    Y8       -2.57038   0.00001   0.00000   0.00001   0.00001  -2.57036
    Z8       -2.99904  -0.00003   0.00000  -0.00003  -0.00003  -2.99907
    X9       -0.11856   0.00003   0.00000   0.00003   0.00003  -0.11853
    Y9       -4.91470  -0.00001   0.00000  -0.00001  -0.00001  -4.91471
    Z9        0.93536  -0.00002   0.00000  -0.00002  -0.00002   0.93534
   X10        3.63945   0.00002   0.00000   0.00002   0.00002   3.63947
   Y10       -2.57367  -0.00002   0.00000  -0.00002  -0.00002  -2.57368
   Z10       -0.46334  -0.00003   0.00000  -0.00003  -0.00003  -0.46337
   X11        3.48274  -0.00006   0.00000  -0.00006  -0.00006   3.48268
   Y11       -2.46312   0.00004   0.00000   0.00004   0.00004  -2.46308
   Z11        2.86975  -0.00001   0.00000  -0.00001  -0.00001   2.86974
   X12       -2.45566   0.00003   0.00000   0.00003   0.00003  -2.45563
   Y12        1.73654  -0.00002   0.00000  -0.00002  -0.00002   1.73652
   Z12       -3.16720   0.00005   0.00000   0.00005   0.00005  -3.16715
   X13        4.59383   0.00003   0.00000   0.00003   0.00003   4.59386
   Y13        1.74957  -0.00002   0.00000  -0.00002  -0.00002   1.74956
   Z13        0.93593  -0.00003   0.00000  -0.00003  -0.00003   0.93590
   X14        1.81571  -0.00002   0.00000  -0.00002  -0.00002   1.81569
   Y14        1.87126  -0.00001   0.00000  -0.00001  -0.00001   1.87126
   Z14        2.78144  -0.00001   0.00000  -0.00001  -0.00001   2.78143
   X15        2.14833  -0.00003   0.00000  -0.00003  -0.00003   2.14830
   Y15        1.63493   0.00005   0.00000   0.00005   0.00005   1.63498
   Z15       -2.99864  -0.00003   0.00000  -0.00003  -0.00003  -2.99868
   X16        1.10951   0.00007   0.00000   0.00007   0.00007   1.10958
   Y16        4.22450  -0.00007   0.00000  -0.00007  -0.00007   4.22443
   Z16       -1.17254   0.00004   0.00000   0.00004   0.00004  -1.17250
   X17       -1.15951   0.00000   0.00000   0.00000   0.00000  -1.15950
   Y17       -2.33617   0.00002   0.00000   0.00002   0.00002  -2.33615
   Z17        2.78110  -0.00002   0.00000  -0.00002  -0.00002   2.78109
   X18       -3.02353   0.00001   0.00000   0.00001   0.00001  -3.02352
   Y18        2.13771   0.00000   0.00000   0.00000   0.00000   2.13771
   Z18        0.53875   0.00001   0.00000   0.00001   0.00001   0.53875
         Item               Value     Threshold  Converged?
 Maximum Force            0.000112     0.000450     YES
 RMS     Force            0.000038     0.000300     YES
 Maximum Displacement     0.000112     0.001800     YES
 RMS     Displacement     0.000038     0.001200     YES
 Predicted change in Energy=-3.850339D-08
 Optimization completed.
    -- Stationary point found.
 GradGradGradGradGradGradGradGradGradGradGradGradGradGradGradGradGradGrad

                          Input orientation:                          
 ---------------------------------------------------------------------
 Center     Atomic     Atomic              Coordinates (Angstroms)
 Number     Number      Type              X           Y           Z
 ---------------------------------------------------------------------
    1          6      10061003       -0.874986   -0.955387   -0.670068
    2          6      10061003       -0.091526   -1.509394    0.550234
    3          6      10061003        1.359043   -0.961153    0.600046
    4          6      10061003       -0.844030    0.596808   -0.735702
    5          6      10061003        1.392435    0.589186    0.550409
    6          6      10061003        0.609049    1.143339   -0.669870
    7          1      10011000       -1.912012   -1.298768   -0.620800
    8          1      10011000       -0.436697   -1.360186   -1.587024
    9          1      10011000       -0.062739   -2.600749    0.494972
   10          1      10011000        1.925914   -1.361925   -0.245187
   11          1      10011000        1.842984   -1.303425    1.518607
   12          1      10011000       -1.299478    0.918935   -1.676009
   13          1      10011000        2.430950    0.925835    0.495272
   14          1      10011000        0.960831    0.990230    1.471876
   15          1      10011000        1.136848    0.865166   -1.586814
   16          1      10011000        0.587128    2.235509   -0.620480
   17          1      10011000       -0.613585   -1.236248    1.471697
   18          9      10091000       -1.599985    1.131228    0.285093
 ---------------------------------------------------------------------
                    Distance matrix (angstroms):
                    1          2          3          4          5
     1  C    0.000000
     2  C    1.552376   0.000000
     3  C    2.569846   1.551516   0.000000
     4  C    1.553890   2.579918   3.010813   0.000000
     5  C    3.002743   2.570249   1.551493   2.579906   0.000000
     6  C    2.570410   3.002740   2.569837   1.553856   1.552372
     7  H    1.093509   2.174823   3.507742   2.178760   3.981893
     8  H    1.093969   2.170087   2.857829   2.172669   3.422630
     9  H    2.173541   1.093133   2.172736   3.514163   3.506608
    10  H    2.861964   2.173593   1.093791   3.427802   2.173570
    11  H    3.506963   2.173131   1.093208   3.989090   2.173104
    12  H    2.169146   3.508858   3.972768   1.093332   3.508855
    13  H    3.978218   3.506600   2.172713   3.514121   1.093108
    14  H    3.426889   2.864437   2.174065   2.878490   1.093719
    15  H    2.863968   3.422633   2.857826   2.172622   2.170072
    16  H    3.510278   3.981889   3.507732   2.178723   2.174828
    17  H    2.175861   1.093731   2.174101   2.878508   2.864455
    18  F    2.406640   3.052643   3.637733   1.378077   3.052668
                    6          7          8          9         10
     6  C    0.000000
     7  H    3.510277   0.000000
     8  H    2.863982   1.764629   0.000000
     9  H    3.978235   2.521887   2.452254   0.000000
    10  H    2.861964   3.856780   2.717068   2.457084   0.000000
    11  H    3.506948   4.321699   3.852935   2.522432   1.766712
    12  H    2.169135   2.531180   2.438586   4.316348   4.201514
    13  H    2.173519   5.005576   4.217256   4.319176   2.457069
    14  H    2.175838   4.227532   4.102976   3.859685   3.067952
    15  H    1.093955   3.861521   2.725479   4.217276   2.717080
    16  H    1.093506   4.328604   3.861535   5.005593   3.856777
    17  H    3.426891   2.463405   3.066337   1.766150   3.067986
    18  F    2.406644   2.612064   3.326440   4.041637   4.350744
                   11         12         13         14         15
    11  H    0.000000
    12  H    5.001952   0.000000
    13  H    2.522403   4.316318   0.000000
    14  H    2.457892   3.875985   1.766112   0.000000
    15  H    3.852928   2.438551   2.452236   3.066302   0.000000
    16  H    4.321681   2.531164   2.521870   2.463397   1.764606
    17  H    2.457935   3.875993   3.859689   2.726901   4.102981
    18  F    4.393532   1.995319   4.041633   2.825971   3.326422
                   16         17         18
    16  H    0.000000
    17  H    4.227531   0.000000
    18  F    2.612081   2.825943   0.000000
 Stoichiometry    C6H11F
 Framework group  C1[X(C6H11F)]
 Deg. of freedom    48
 Full point group                 C1
 Largest Abelian subgroup         C1      NOp   1
 Largest concise Abelian subgroup C1      NOp   1
                         Standard orientation:                         
 ---------------------------------------------------------------------
 Center     Atomic     Atomic              Coordinates (Angstroms)
 Number     Number      Type              X           Y           Z
 ---------------------------------------------------------------------
    1          6      10061003       -0.346154    1.285201    0.581720
    2          6      10061003        0.941381    1.285135   -0.285530
    3          6      10061003        1.782674    0.000008   -0.066723
    4          6      10061003       -1.195232   -0.000029    0.377207
    5          6      10061003        0.941415   -1.285114   -0.285525
    6          6      10061003       -0.346136   -1.285209    0.581697
    7          1      10011000       -0.948261    2.164294    0.335909
    8          1      10011000       -0.064277    1.362732    1.635904
    9          1      10011000        1.546559    2.159607   -0.032552
   10          1      10011000        2.184259    0.000010    0.950680
   11          1      10011000        2.628548    0.000009   -0.759255
   12          1      10011000       -2.014561   -0.000030    1.101138
   13          1      10011000        1.546578   -2.159569   -0.032563
   14          1      10011000        0.668180   -1.363439   -1.341663
   15          1      10011000       -0.064281   -1.362747    1.635871
   16          1      10011000       -0.948227   -2.164310    0.335883
   17          1      10011000        0.668135    1.363463   -1.341678
   18          9      10091000       -1.763371    0.000003   -0.878306
 ---------------------------------------------------------------------
 Rotational constants (GHZ):      3.5180055      2.5296372      1.8903152
 1|1|UNPC-UNK|FOpt|Dreiding|ZDO|C6H11F1|PCUSER|13-Dec-2007|0||# opt dre
 iding||fluorocyclohexane-ax||0,1|C,-0.8749861836,-0.9553866086,-0.6700
 675011|C,-0.091526198,-1.509393645,0.5502342562|C,1.3590430969,-0.9611
 528943,0.6000455268|C,-0.8440298783,0.5968076212,-0.7357023435|C,1.392
 4352828,0.5891862184,0.5504087316|C,0.6090490314,1.1433386688,-0.66987
 02289|H,-1.9120122729,-1.2987677185,-0.6207999666|H,-0.4366973158,-1.3
 601859557,-1.5870239213|H,-0.062739398,-2.6007494539,0.4949717685|H,1.
 9259136775,-1.3619252412,-0.2451874196|H,1.8429840578,-1.3034251727,1.
 5186068322|H,-1.2994775413,0.9189348135,-1.6760093745|H,2.4309497609,0
 .9258347951,0.4952718865|H,0.9608305482,0.9902301848,1.4718760101|H,1.
 1368480383,0.865165945,-1.5868144665|H,0.58712828,2.23550918,-0.620479
 9559|H,-0.6135850171,-1.2362483881,1.4716969694|F,-1.5999851888,1.1312
 276512,0.2850931966||Version=IA32W-G03RevD.01|HF=0.0184213|RMSD=0.000e
 +000|RMSF=3.776e-005|Thermal=0.|Dipole=0.,0.,0.|PG=C01 [X(C6H11F1)]||@


 You can't act like a skunk without someone's getting wind of it.
 -- Lorene Workman
 Job cpu time:  0 days  0 hours  0 minutes  3.0 seconds.
 File lengths (MBytes):  RWF=     11 Int=      0 D2E=      0 Chk=      4 Scr=      1
 Normal termination of Gaussian 03 at Thu Dec 13 16:05:47 2007.
