 Entering Link 1 = C:\G03W\l1.exe PID=       788.
  
 Copyright (c) 1988,1990,1992,1993,1995,1998,2003,2004, Gaussian, Inc.
                  All Rights Reserved.
  
 This is the Gaussian(R) 03 program.  It is based on the
 the Gaussian(R) 98 system (copyright 1998, Gaussian, Inc.),
 the Gaussian(R) 94 system (copyright 1995, Gaussian, Inc.),
 the Gaussian 92(TM) system (copyright 1992, Gaussian, Inc.),
 the Gaussian 90(TM) system (copyright 1990, Gaussian, Inc.),
 the Gaussian 88(TM) system (copyright 1988, Gaussian, Inc.),
 the Gaussian 86(TM) system (copyright 1986, Carnegie Mellon
 University), and the Gaussian 82(TM) system (copyright 1983,
 Carnegie Mellon University). Gaussian is a federally registered
 trademark of Gaussian, Inc.
  
 This software contains proprietary and confidential information,
 including trade secrets, belonging to Gaussian, Inc.
  
 This software is provided under written license and may be
 used, copied, transmitted, or stored only in accord with that
 written license.
  
 The following legend is applicable only to US Government
 contracts under FAR:
  
                    RESTRICTED RIGHTS LEGEND
  
 Use, reproduction and disclosure by the US Government is
 subject to restrictions as set forth in subparagraphs (a)
 and (c) of the Commercial Computer Software - Restricted
 Rights clause in FAR 52.227-19.
  
 Gaussian, Inc.
 340 Quinnipiac St., Bldg. 40, Wallingford CT 06492
  
  
 ---------------------------------------------------------------
 Warning -- This program may not be used in any manner that
 competes with the business of Gaussian, Inc. or will provide
 assistance to any competitor of Gaussian, Inc.  The licensee
 of this program is prohibited from giving any competitor of
 Gaussian, Inc. access to this program.  By using this program,
 the user acknowledges that Gaussian, Inc. is engaged in the
 business of creating and licensing software in the field of
 computational chemistry and represents and warrants to the
 licensee that it is not a competitor of Gaussian, Inc. and that
 it will not use this program in any manner prohibited above.
 ---------------------------------------------------------------
  

 Cite this work as:
 Gaussian 03, Revision D.01,
 M. J. Frisch, G. W. Trucks, H. B. Schlegel, G. E. Scuseria, 
 M. A. Robb, J. R. Cheeseman, J. A. Montgomery, Jr., T. Vreven, 
 K. N. Kudin, J. C. Burant, J. M. Millam, S. S. Iyengar, J. Tomasi, 
 V. Barone, B. Mennucci, M. Cossi, G. Scalmani, N. Rega, 
 G. A. Petersson, H. Nakatsuji, M. Hada, M. Ehara, K. Toyota, 
 R. Fukuda, J. Hasegawa, M. Ishida, T. Nakajima, Y. Honda, O. Kitao, 
 H. Nakai, M. Klene, X. Li, J. E. Knox, H. P. Hratchian, J. B. Cross, 
 V. Bakken, C. Adamo, J. Jaramillo, R. Gomperts, R. E. Stratmann, 
 O. Yazyev, A. J. Austin, R. Cammi, C. Pomelli, J. W. Ochterski, 
 P. Y. Ayala, K. Morokuma, G. A. Voth, P. Salvador, J. J. Dannenberg, 
 V. G. Zakrzewski, S. Dapprich, A. D. Daniels, M. C. Strain, 
 O. Farkas, D. K. Malick, A. D. Rabuck, K. Raghavachari, 
 J. B. Foresman, J. V. Ortiz, Q. Cui, A. G. Baboul, S. Clifford, 
 J. Cioslowski, B. B. Stefanov, G. Liu, A. Liashenko, P. Piskorz, 
 I. Komaromi, R. L. Martin, D. J. Fox, T. Keith, M. A. Al-Laham, 
 C. Y. Peng, A. Nanayakkara, M. Challacombe, P. M. W. Gill, 
 B. Johnson, W. Chen, M. W. Wong, C. Gonzalez, and J. A. Pople, 
 Gaussian, Inc., Wallingford CT, 2004.
 
 ******************************************
 Gaussian 03:  IA32W-G03RevD.01 13-Oct-2005
                28-Mar-2008 
 ******************************************
 --------------
 # opt dreiding
 --------------
 1/6=10,10=10,14=-1,18=4000020,38=1,56=1,64=1/1,3;
 2/9=110,17=6,18=5,40=1/2;
 3/5=30,11=9,16=1,25=1,30=1/1;
 4/20=9,22=1001,24=3/2;
 7/44=-1/16;
 1/6=10,10=10,14=-1,18=4000020,64=1/3(2);
 2/9=110/2;
 99//99;
 2/9=110/2;
 3/5=30,11=9,16=1,25=1,30=1/1;
 4/16=2,20=9,22=1001,24=3/2;
 7/44=-1/16;
 1/6=10,10=10,14=-1,18=4000020,64=1/3(-4);
 2/9=110/2;
 99//99;
 --------------
 Me3SiO-cycl-ax
 --------------
 Symbolic Z-matrix:
 Charge =  0 Multiplicity = 1
 C                    -2.05544   0.10001  -2.03149 
 C                    -1.77244   1.60501  -2.13749 
 C                    -0.72044   2.04001  -1.10749 
 C                    -0.76144  -0.71399  -2.18349 
 C                     0.56556   1.21601  -1.26049 
 C                     0.29656  -0.29599  -1.14649 
 O                    -0.17944  -0.65899   0.13551 
 Si                    0.68756  -0.64399   1.51651 
 C                    -0.00844  -2.00899   2.61651 
 C                     2.50356  -0.98299   1.17751 
 C                     0.48156   1.00701   2.39251 
 H                    -2.52544  -0.12099  -1.04349 
 H                    -2.78944  -0.20299  -2.81549 
 H                    -1.40444   1.84201  -3.16449 
 H                    -2.71544   2.18301  -1.98649 
 H                    -0.49244   3.12601  -1.23249 
 H                    -1.13244   1.91401  -0.07849 
 H                    -0.98444  -1.80299  -2.08149 
 H                    -0.35244  -0.56399  -3.21149 
 H                     1.00956   1.42501  -2.26349 
 H                     1.32856   1.54301  -0.51749 
 H                     1.23556  -0.86999  -1.34849 
 H                     0.56156  -2.01199   3.57251 
 H                    -1.08444  -1.79399   2.80351 
 H                     0.11056  -2.98099   2.08751 
 H                     3.03656  -1.01699   2.15451 
 H                     2.59056  -1.96199   0.65651 
 H                     2.91456  -0.16399   0.54651 
 H                     1.00756   0.94601   3.37151 
 H                     0.92656   1.81401   1.77051 
 H                    -0.60544   1.18901   2.54751 
 
 Include all MM classes
 MMInit generated parameter data with length LenPar=  3472.

 GradGradGradGradGradGradGradGradGradGradGradGradGradGradGradGradGradGrad
 Berny optimization.
 Initialization pass.
 No Z-matrix variables, so optimization will use Cartesian coordinates.
 Trust Radius=1.00D-01 FncErr=1.00D-07 GrdErr=1.00D-07
 Number of steps in this run=   2 maximum allowed number of steps=   2.
 GradGradGradGradGradGradGradGradGradGradGradGradGradGradGradGradGradGrad

                          Input orientation:                          
 ---------------------------------------------------------------------
 Center     Atomic     Atomic              Coordinates (Angstroms)
 Number     Number      Type              X           Y           Z
 ---------------------------------------------------------------------
    1          6      10061003       -2.055438    0.100010   -2.031490
    2          6      10061003       -1.772438    1.605010   -2.137490
    3          6      10061003       -0.720438    2.040010   -1.107490
    4          6      10061003       -0.761438   -0.713990   -2.183490
    5          6      10061003        0.565563    1.216010   -1.260490
    6          6      10061003        0.296563   -0.295990   -1.146490
    7          8      10081003       -0.179438   -0.658990    0.135510
    8         14      10141003        0.687563   -0.643990    1.516510
    9          6      10061003       -0.008438   -2.008990    2.616510
   10          6      10061003        2.503563   -0.982990    1.177510
   11          6      10061003        0.481563    1.007010    2.392510
   12          1      10011000       -2.525438   -0.120990   -1.043490
   13          1      10011000       -2.789438   -0.202990   -2.815490
   14          1      10011000       -1.404438    1.842010   -3.164490
   15          1      10011000       -2.715438    2.183010   -1.986490
   16          1      10011000       -0.492438    3.126010   -1.232490
   17          1      10011000       -1.132438    1.914010   -0.078490
   18          1      10011000       -0.984438   -1.802990   -2.081490
   19          1      10011000       -0.352438   -0.563990   -3.211490
   20          1      10011000        1.009563    1.425010   -2.263490
   21          1      10011000        1.328563    1.543010   -0.517490
   22          1      10011000        1.235563   -0.869990   -1.348490
   23          1      10011000        0.561563   -2.011990    3.572510
   24          1      10011000       -1.084438   -1.793990    2.803510
   25          1      10011000        0.110563   -2.980990    2.087510
   26          1      10011000        3.036563   -1.016990    2.154510
   27          1      10011000        2.590563   -1.961990    0.656510
   28          1      10011000        2.914563   -0.163990    0.546510
   29          1      10011000        1.007563    0.946010    3.371510
   30          1      10011000        0.926563    1.814010    1.770510
   31          1      10011000       -0.605438    1.189010    2.547510
 ---------------------------------------------------------------------
                    Distance matrix (angstroms):
                    1          2          3          4          5
     1  C    0.000000
     2  C    1.535041   0.000000
     3  C    2.529743   1.535197   0.000000
     4  C    1.536273   2.530217   2.957021   0.000000
     5  C    2.951193   2.527191   1.534986   2.517490   0.000000
     6  C    2.544002   2.979370   2.548079   1.539304   1.539968
     7  O    2.965020   3.581881   3.020320   2.391550   2.453460
     8  Si   4.545975   4.945838   4.008952   3.974230   3.344580
     9  C    5.499272   6.226814   5.547028   5.028323   5.075552
    10  C    5.679353   5.997595   4.975332   4.693496   3.812517
    11  C    5.179845   5.095000   3.842121   5.044469   3.659938
    12  H    1.116192   2.177825   2.816388   2.182417   3.374750
    13  H    1.115895   2.182392   3.497009   2.184795   3.960759
    14  H    2.177626   1.116388   2.176766   2.812285   2.810337
    15  H    2.185524   1.116304   2.184746   3.499933   3.496731
    16  H    3.498292   2.184231   1.116694   3.965143   2.183632
    17  H    2.820768   2.178202   1.115554   3.387484   2.183468
    18  H    2.184250   3.498363   3.973288   1.116268   3.491547
    19  H    2.175662   2.806143   3.367945   1.116497   2.795984
    20  H    3.347189   2.790663   2.169668   2.778158   1.116614
    21  H    3.978178   3.499206   2.189409   3.498243   1.114068
    22  H    3.498295   3.974445   3.514558   2.170154   2.192724
    23  H    6.535599   7.150828   6.321758   6.047038   5.811875
    24  H    5.282736   6.036557   5.488895   5.112817   5.319652
    25  H    5.581243   6.513656   6.009079   4.913361   5.388037
    26  H    6.685712   6.958637   5.839601   5.773635   4.770153
    27  H    5.750000   6.290127   5.485474   4.567166   4.227907
    28  H    5.605058   5.683413   4.561421   4.611765   3.269167
    29  H    6.268181   6.205785   4.923846   6.061599   4.660868
    30  H    5.126921   4.754024   3.323638   4.987409   3.110448
    31  H    4.925004   4.846047   3.754524   5.101775   3.984073
                    6          7          8          9         10
     6  C    0.000000
     7  O    1.414874   0.000000
     8  Si   2.713955   1.630667   0.000000
     9  C    4.145789   2.829682   1.886171   0.000000
    10  C    3.277773   2.896417   1.878217   3.071407   0.000000
    11  C    3.775785   2.882104   1.880323   3.063745   3.086229
    12  H    2.829296   2.680149   4.141316   4.826534   5.564775
    13  H    3.509645   3.965909   5.572274   6.364136   6.675949
    14  H    3.396582   4.318058   5.698107   7.085124   6.488918
    15  H    3.990387   4.360177   5.642991   6.788838   6.875494
    16  H    3.512834   4.036783   4.812723   6.435626   5.627433
    17  H    2.840205   2.752151   3.521333   4.890432   4.815666
    18  H    2.187747   2.621421   4.133336   4.802730   4.843514
    19  H    2.181112   3.352814   4.841692   6.014312   5.253153
    20  H    2.172073   3.392931   4.321209   6.053353   4.457688
    21  H    2.200588   2.747595   3.054670   4.922015   3.261031
    22  H    1.118929   2.061311   2.925680   4.308838   2.828651
    23  H    5.028304   3.767315   2.472739   1.113034   3.250574
    24  H    4.444510   3.037347   2.473632   1.113090   4.021858
    25  H    4.207443   3.047308   2.473972   1.113008   3.247546
    26  H    4.350177   3.814077   2.462514   3.235666   1.113451
    27  H    3.359881   3.105181   2.469440   3.255551   1.112408
    28  H    3.120512   3.160187   2.476051   4.029002   1.112584
    29  H    4.739241   3.802195   2.464046   3.214702   3.282178
    30  H    3.654845   3.164204   2.482620   4.025577   3.265239
    31  H    4.082213   3.068277   2.468744   3.253978   4.032414
                   11         12         13         14         15
    11  C    0.000000
    12  H    4.703247   0.000000
    13  H    6.267919   1.793434   0.000000
    14  H    5.927434   3.099782   2.494404   0.000000
    15  H    5.547921   2.496751   2.526997   1.795184   0.000000
    16  H    4.310390   3.835599   4.343310   2.492594   2.529722
    17  H    3.087634   2.648188   3.836471   3.098800   2.493735
    18  H    5.482876   2.506242   2.521266   3.825613   4.346675
    19  H    5.879491   3.101355   2.495217   2.626357   3.824971
    20  H    4.704449   4.046572   4.169831   2.610189   3.811419
    21  H    3.077792   4.230708   5.028642   3.816451   4.349885
    22  H    4.252849   3.846966   4.335620   4.197904   5.033712
    23  H    3.242400   5.866251   7.436950   8.006600   7.696703
    24  H    3.235255   4.435631   6.083705   6.995707   6.435899
    25  H    4.016816   4.993121   6.337720   7.289723   7.158956
    26  H    3.268217   6.478107   7.701024   7.495874   7.776464
    27  H    4.034419   5.696730   6.640276   6.710476   7.233264
    28  H    3.270848   5.667764   6.621192   6.037327   6.604650
    29  H    1.113031   5.754373   7.349584   7.024233   6.640712
    30  H    1.111826   4.855834   6.237655   5.457891   5.245510
    31  H    1.112977   4.277591   5.955610   5.804460   5.098754
                   16         17         18         19         20
    16  H    0.000000
    17  H    1.791720   0.000000
    18  H    5.025724   4.224926   0.000000
    19  H    4.189528   4.069960   1.792051   0.000000
    20  H    2.492462   3.098630   3.798571   2.590341   0.000000
    21  H    2.516576   2.527228   4.357956   3.810885   1.778820
    22  H    4.355164   3.869235   2.517177   2.467012   2.480993
    23  H    7.113226   5.622536   5.865280   6.996768   6.787678
    24  H    6.391100   4.696540   4.886032   6.182956   6.357774
    25  H    6.977210   5.495237   4.468475   5.842573   6.257175
    26  H    6.410153   5.563956   5.893211   6.362742   5.439744
    27  H    6.241871   5.424420   4.505835   5.057378   4.743177
    28  H    5.059307   4.592049   4.979448   4.995583   3.748339
    29  H    5.310293   4.173622   6.423416   6.889527   5.655322
    30  H    3.571122   2.769166   5.618942   5.666661   4.053562
    31  H    4.248898   2.774749   5.524794   6.025205   5.080319
                   21         22         23         24         25
    21  H    0.000000
    22  H    2.553777   0.000000
    23  H    5.473063   5.096536   0.000000
    24  H    5.290291   4.845130   1.829809   0.000000
    25  H    5.360609   4.186650   1.829641   1.830205   0.000000
    26  H    4.075592   3.941601   3.020989   4.243533   3.524665
    27  H    3.905886   2.654904   3.552801   4.259514   3.039165
    28  H    2.561511   2.628403   4.255395   4.872674   4.262932
    29  H    3.947629   5.062434   2.998180   3.493807   4.227836
    30  H    2.338801   4.126439   4.244845   4.257802   4.874256
    31  H    3.641414   4.775728   3.557937   3.032040   4.255955
                   26         27         28         29         30
    26  H    0.000000
    27  H    1.826457   0.000000
    28  H    1.824324   1.830268   0.000000
    29  H    3.074297   4.281773   3.584602   0.000000
    30  H    3.551636   4.274116   3.059870   1.822961   0.000000
    31  H    4.276102   4.870226   4.269076   1.827510   1.827944
                   31
    31  H    0.000000
 Stoichiometry    C9H20OSi
 Framework group  C1[X(C9H20OSi)]
 Deg. of freedom    87
 Full point group                 C1
 Largest Abelian subgroup         C1      NOp   1
 Largest concise Abelian subgroup C1      NOp   1
                         Standard orientation:                         
 ---------------------------------------------------------------------
 Center     Atomic     Atomic              Coordinates (Angstroms)
 Number     Number      Type              X           Y           Z
 ---------------------------------------------------------------------
    1          6      10061003        2.616077   -0.955539   -0.777727
    2          6      10061003        3.122749    0.476259   -0.555042
    3          6      10061003        1.968352    1.414801   -0.176445
    4          6      10061003        1.865883   -1.471139    0.459811
    5          6      10061003        1.218921    0.887836    1.055156
    6          6      10061003        0.696907   -0.545039    0.840982
    7          8      10081003       -0.269842   -0.613163   -0.189855
    8         14      10141003       -1.780917   -0.003653   -0.124856
    9          6      10061003       -2.864437   -1.105880   -1.205931
   10          6      10061003       -2.439233   -0.016567    1.634164
   11          6      10061003       -1.805113    1.742982   -0.820767
   12          1      10011000        1.938513   -0.976191   -1.664500
   13          1      10011000        3.475118   -1.629014   -1.009463
   14          1      10011000        3.883623    0.477836    0.261898
   15          1      10011000        3.631049    0.849622   -1.476109
   16          1      10011000        2.362973    2.439055    0.028942
   17          1      10011000        1.265840    1.507350   -1.038055
   18          1      10011000        1.486735   -2.503803    0.270325
   19          1      10011000        2.577637   -1.541730    1.317126
   20          1      10011000        1.916016    0.887188    1.927443
   21          1      10011000        0.389137    1.578065    1.331180
   22          1      10011000        0.233532   -0.930479    1.783702
   23          1      10011000       -3.901842   -0.703072   -1.186424
   24          1      10011000       -2.457913   -1.089127   -2.241995
   25          1      10011000       -2.838327   -2.138567   -0.791613
   26          1      10011000       -3.488512    0.355357    1.612730
   27          1      10011000       -2.407892   -1.060505    2.017129
   28          1      10011000       -1.809872    0.651789    2.262692
   29          1      10011000       -2.862702    2.088823   -0.847912
   30          1      10011000       -1.202674    2.410325   -0.166642
   31          1      10011000       -1.379500    1.717243   -1.848828
 ---------------------------------------------------------------------
 Rotational constants (GHZ):      1.5991912      0.5793833      0.5506174
 Standard basis: Dummy (5D, 7F)
 There are    31 symmetry adapted basis functions of A   symmetry.
 Integral buffers will be    262144 words long.
 Raffenetti 1 integral format.
 Two-electron integral symmetry is turned on.
    31 basis functions,    31 primitive gaussians,    31 cartesian basis functions
    21 alpha electrons       21 beta electrons
       nuclear repulsion energy       145.0589172132 Hartrees.
 NAtoms=   31 NActive=   31 NUniq=   31 SFac= 7.50D-01 NAtFMM=   80 NAOKFM=F Big=F
 Dreiding calculation of energy and first derivatives.
 MO and density RWFs will be updated without deorthogonalization.
 NRF= 0 NRA=   0 NVA=  31 HaveQM=F
 Convergence limit is  0.750E-04 MaxStp=  5000 StMxLn= 1.00D-04 StpMin= 1.00D-06.
 Convergence criteria           0.00011250 0.00007500 0.00045000 0.00030000
  Step  NS  ND Rises OKQ   Scale  Max. Force  RMS Force Max. Disp.  RMS Disp.     Energy   Flag
     1   0   0   F    T  1.00D+00 0.09426324 0.02313509 0.09426324 0.02313509    0.0958877 ----
     2   0   0   F    F  4.26D-01 0.09426324 0.02313509 0.09426324 0.02313509    0.0634213 ----
     3   0   0   F    T  3.15D+00 0.03998422 0.00967380 0.04426186 0.01048545    0.0602159 ----
     4   0   0   F    F -1.56D-02 0.03998422 0.00967380 0.13921965 0.03298056    0.0467519 ----
     5   0   0   F    T  3.65D+00 0.02896248 0.00699850 0.02638637 0.00888925    0.0467486 ----
     6   0   0   F    F -4.88D-01 0.02896248 0.00699850 0.09637323 0.03246697    0.0463692 ----
     7   0   0   F    T  3.26D+00 0.01192828 0.00409628 0.01610610 0.00509730    0.0424903 ----
     8   0   0   F    F  8.39D-01 0.01192828 0.00409628 0.05250077 0.01661559    0.0387882 ----
     9   0   0   F    T  2.70D+00 0.02290267 0.00566427 0.03624789 0.01131934    0.0378155 ----
    10   0   0   F    F -9.21D-02 0.02290267 0.00566427 0.09787352 0.03056354    0.0341899 ----
    11   0   0   F    T  8.68D+00 0.00983692 0.00244217 0.00843530 0.00319574    0.0341520 ----
    12   0   0   T    F  2.16D-01 0.00983692 0.00244217 0.07324390 0.02774864    0.0404883 ----
    13   0   0   F    T  3.52D+00 0.00499147 0.00137040 0.00482569 0.00170404    0.0336307 ----
    14   0   0   F    F -2.59D-02 0.00499147 0.00137040 0.01700480 0.00600470    0.0333308 ----
    15   0   0   F    T  3.05D+00 0.00504315 0.00126199 0.00620792 0.00191816    0.0333306 ----
    16   0   0   F    F  3.52D-02 0.00504315 0.00126199 0.01892932 0.00584891    0.0330970 ----
    17   0   0   F    T  2.57D+00 0.00501432 0.00128050 0.00786794 0.00235445    0.0330967 ----
    18   0   0   F    F  2.12D-01 0.00501432 0.00128050 0.02023277 0.00605456    0.0328661 ----
    19   0   0   F    T  4.39D+00 0.00270333 0.00097409 0.00640393 0.00167286    0.0328588 ----
    20   0   0   F    F -1.49D-01 0.00270333 0.00097409 0.02809349 0.00733869    0.0326992 ----
    21   0   0   F    T  3.17D+00 0.00282172 0.00098533 0.00791018 0.00197283    0.0326942 ----
    22   0   0   F    F -1.03D-02 0.00282172 0.00098533 0.02504108 0.00624534    0.0325528 ----
    23   0   0   F    T  5.87D+00 0.00194878 0.00064014 0.00376499 0.00105213    0.0325528 ----
    24   0   0   T    F  4.23D-01 0.00194878 0.00064014 0.02211812 0.00618094    0.0325941 ----
    25   0   0   F    T  4.72D+00 0.00126356 0.00039090 0.00150736 0.00055300    0.0325055 ----
    26   0   0   F    F -3.61D-01 0.00126356 0.00039090 0.00711904 0.00261175    0.0324909 ----
    27   0   0   F    T  2.25D+00 0.00185464 0.00041323 0.00216764 0.00074321    0.0324840 ----
    28   0   0   F    F  6.67D-01 0.00185464 0.00041323 0.00487096 0.00167008    0.0324590 ----
    29   0   0   F    T  5.44D+00 0.00085608 0.00030680 0.00136780 0.00051146    0.0324543 ----
    30   0   0   F    F -2.43D-01 0.00085608 0.00030680 0.00744626 0.00278436    0.0324381 ----
    31   0   0   F    T  2.11D+00 0.00124618 0.00040952 0.00256634 0.00099859    0.0324362 ----
    32   0   0   F    F  1.37D+00 0.00124618 0.00040952 0.00541598 0.00210741    0.0324103 ----
    33   0   0   F    T  4.21D+00 0.00139475 0.00043008 0.00316093 0.00118513    0.0323973 ----
    34   0   0   F    F -3.67D-01 0.00139475 0.00043008 0.01330132 0.00498706    0.0323822 ----
    35   0   0   F    T  3.99D+00 0.00118016 0.00033364 0.00235578 0.00079071    0.0323744 ----
    36   0   0   F    F -2.37D-01 0.00118016 0.00033364 0.00939927 0.00315483    0.0323602 ----
    37   0   0   F    T  3.57D+00 0.00095236 0.00029229 0.00183879 0.00067404    0.0323587 ----
    38   0   0   F    F -1.30D-01 0.00095236 0.00029229 0.00656693 0.00240723    0.0323466 ----
    39   0   0   F    T  4.67D+00 0.00066260 0.00022209 0.00104254 0.00044876    0.0323463 ----
    40   0   0   F    F -2.20D-01 0.00066260 0.00022209 0.00486591 0.00209451    0.0323387 ----
    41   0   0   F    T  2.63D+00 0.00091057 0.00024994 0.00150283 0.00062077    0.0323380 ----
    42   0   0   F    F  7.61D-02 0.00091057 0.00024994 0.00395661 0.00163434    0.0323298 ----
    43   0   0   F    T  5.20D+00 0.00056493 0.00017143 0.00076412 0.00033852    0.0323298 ----
    44   0   0   F    F -1.89D-01 0.00056493 0.00017143 0.00396995 0.00175876    0.0323243 ----
    45   0   0   F    T  3.62D+00 0.00054450 0.00017505 0.00099151 0.00039419    0.0323240 ----
    46   0   0   F    F -2.41D-01 0.00054450 0.00017505 0.00358886 0.00142679    0.0323205 ----
    47   0   0   F    T  3.61D+00 0.00042495 0.00014317 0.00097206 0.00030012    0.0323201 ----
    48   0   0   F    T  3.71D+00 0.00041850 0.00013399 0.00092581 0.00029150    0.0323166 ---+
    49   0   0   F    F -6.20D-02 0.00041850 0.00013399 0.00343750 0.00108235    0.0323136 ----
    50   0   0   F    T  3.40D+00 0.00041697 0.00012687 0.00092658 0.00029877    0.0323136 ---+
    51   0   0   F    F  7.46D-02 0.00041697 0.00012687 0.00314845 0.00101520    0.0323109 ----
    52   0   0   F    T  3.77D+00 0.00031934 0.00012033 0.00082357 0.00028970    0.0323109 ---+
    53   0   0   F    F -2.10D-01 0.00031934 0.00012033 0.00310120 0.00109090    0.0323090 ----
    54   0   0   F    T  4.01D+00 0.00028514 0.00009784 0.00063289 0.00021498    0.0323089 ---+
    55   0   0   F    F -1.77D-01 0.00028514 0.00009784 0.00253739 0.00086190    0.0323075 ----
    56   0   0   F    T  2.40D+00 0.00034877 0.00011042 0.00090612 0.00029527    0.0323074 ---+
    57   0   0   F    F  1.02D+00 0.00034877 0.00011042 0.00217762 0.00070960    0.0323054 ----
    58   0   0   F    T  4.01D+00 0.00045415 0.00011802 0.00112490 0.00035745    0.0323047 ----
    59   0   0   F    F -2.48D-01 0.00045415 0.00011802 0.00451636 0.00143513    0.0323029 ----
    60   0   0   F    T  3.80D+00 0.00026966 0.00010166 0.00090905 0.00028411    0.0323027 ---+
    61   0   0   F    F  4.67D-01 0.00026966 0.00010166 0.00345136 0.00107866    0.0323003 ----
    62   0   0   F    T  2.81D+00 0.00056920 0.00014091 0.00175816 0.00056381    0.0323000 ----
    63   0   0   F    T  6.24D+00 0.00030695 0.00009247 0.00082419 0.00025332    0.0322974 ---+
    64   0   0   F    F -4.89D-01 0.00030695 0.00009247 0.00514676 0.00158191    0.0322973 ----
    65   0   0   F    T  2.25D+00 0.00037244 0.00010682 0.00124206 0.00035880    0.0322961 ----
    66   0   0   F    F  2.92D+00 0.00037244 0.00010682 0.00279719 0.00080803    0.0322941 ----
    67   0   0   F    T  5.89D+00 0.00039650 0.00013089 0.00204602 0.00053811    0.0322915 ----
    68   0   0   T    F  4.03D-01 0.00039650 0.00013089 0.01204614 0.00316820    0.0322937 ----
    69   0   0   F    T  2.51D+00 0.00042151 0.00012523 0.00206189 0.00050844    0.0322896 ----
    70   0   0   F    F  1.16D+00 0.00042151 0.00012523 0.00518390 0.00127829    0.0322867 ----
    71   0   0   F    T  5.44D+00 0.00031500 0.00012288 0.00189696 0.00050683    0.0322856 ----
    72   0   0   F    F -3.91D-01 0.00031500 0.00012288 0.01031767 0.00275667    0.0322842 ----
    73   0   0   F    T  3.74D+00 0.00035682 0.00011372 0.00157381 0.00044925    0.0322833 ----
    74   0   0   F    F -4.28D-01 0.00035682 0.00011372 0.00588496 0.00167989    0.0322827 ----
    75   0   0   F    T  5.62D+00 0.00016549 0.00006733 0.00052655 0.00017102    0.0322820 -+-+
    76   0   0   F    F -1.54D-01 0.00016549 0.00006733 0.00295815 0.00096079    0.0322810 -+--
    77   0   0   F    T  3.12D+00 0.00026735 0.00008103 0.00075818 0.00026060    0.0322810 ---+
    78   0   0   F    T  4.55D+00 0.00023218 0.00006562 0.00054888 0.00017840    0.0322800 -+-+
    79   0   0   F    F -3.76D-01 0.00023218 0.00006562 0.00250004 0.00081255    0.0322797 -+--
    80   0   0   F    T  3.23D+00 0.00020163 0.00005810 0.00046899 0.00015683    0.0322794 -+-+
    81   0   0   F    F  8.48D-01 0.00020163 0.00005810 0.00151559 0.00050680    0.0322787 -+--
    82   0   0   F    T  2.86D+00 0.00028003 0.00008332 0.00088549 0.00032757    0.0322785 ----
    83   0   0   F    F  1.23D-01 0.00028003 0.00008332 0.00253218 0.00093675    0.0322775 ----
    84   0   0   F    T  4.92D+00 0.00019652 0.00006562 0.00049921 0.00021366    0.0322775 -+-+
    85   0   0   F    F -4.62D-02 0.00019652 0.00006562 0.00245853 0.00105224    0.0322765 -+--
    86   0   0   F    T  3.80D+00 0.00019733 0.00007154 0.00060995 0.00026382    0.0322765 -+-+
    87   0   0   F    F -1.83D-01 0.00019733 0.00007154 0.00232034 0.00100363    0.0322758 -+--
    88   0   0   F    T  4.57D+00 0.00016618 0.00005745 0.00044487 0.00017945    0.0322758 -+++
    89   0   0   F    F -3.73D-01 0.00016618 0.00005745 0.00203357 0.00082028    0.0322755 -+--
    90   0   0   F    T  3.16D+00 0.00017453 0.00005318 0.00042472 0.00016266    0.0322753 -+++
    91   0   0   F    F  6.01D-01 0.00017453 0.00005318 0.00134366 0.00051458    0.0322748 -+--
    92   0   0   F    T  4.67D+00 0.00018408 0.00005399 0.00043268 0.00017619    0.0322747 -+++
    93   0   0   T    F  4.83D-01 0.00018408 0.00005399 0.00202272 0.00082365    0.0322747 -+--
    94   0   0   F    T  3.59D+00 0.00010108 0.00004121 0.00025650 0.00011071    0.0322744 ====
 Energy=    0.032274377796 NIter=   0.
 Dipole moment=       0.000000       0.000000       0.000000
 ***** Axes restored to original set *****
 -------------------------------------------------------------------
 Center     Atomic                   Forces (Hartrees/Bohr)
 Number     Number              X              Y              Z
 -------------------------------------------------------------------
    1          6           0.000001531    0.000089048   -0.000001273
    2          6          -0.000018919   -0.000050588   -0.000070802
    3          6          -0.000030920    0.000106656    0.000000566
    4          6          -0.000060067    0.000018678    0.000002039
    5          6          -0.000014824   -0.000029797    0.000003715
    6          6           0.000051813    0.000085760   -0.000013784
    7          8          -0.000012762   -0.000086999    0.000051315
    8         14          -0.000008035   -0.000019278   -0.000127841
    9          6          -0.000007239   -0.000020900    0.000055960
   10          6           0.000030583   -0.000018507    0.000071576
   11          6           0.000015749   -0.000026092    0.000025116
   12          1          -0.000002242   -0.000037113   -0.000051046
   13          1          -0.000028126   -0.000045499   -0.000093848
   14          1           0.000091425   -0.000048329    0.000048832
   15          1          -0.000046256    0.000008817    0.000038442
   16          1          -0.000011430    0.000025450    0.000022667
   17          1          -0.000024435    0.000036197    0.000033202
   18          1           0.000025557   -0.000023119   -0.000015970
   19          1           0.000033489   -0.000009433    0.000021850
   20          1          -0.000064272   -0.000015309    0.000047868
   21          1          -0.000028113   -0.000021351   -0.000030542
   22          1           0.000044918   -0.000011273   -0.000002055
   23          1           0.000016780   -0.000018146   -0.000000210
   24          1          -0.000008379    0.000010446    0.000019880
   25          1          -0.000003546    0.000010752   -0.000032527
   26          1          -0.000009337   -0.000021270    0.000027484
   27          1          -0.000036582   -0.000052440   -0.000015895
   28          1           0.000009731    0.000014912   -0.000020808
   29          1           0.000069896    0.000039737    0.000017027
   30          1           0.000032821    0.000052689   -0.000038803
   31          1          -0.000008811    0.000056303    0.000027863
 -------------------------------------------------------------------
 Cartesian Forces:  Max     0.000127841 RMS     0.000041215

 GradGradGradGradGradGradGradGradGradGradGradGradGradGradGradGradGradGrad
 Berny optimization.
 Search for a local minimum.
 Step number   1 out of a maximum of   2
 All quantities printed in internal units (Hartrees-Bohrs-Radians)
 Second derivative matrix not updated -- unit matrix used.
 RFO step:  Lambda=-1.57975493D-07.
 Linear search not attempted -- first point.
 TrRot=  0.000000  0.000000  0.000000  0.000000  0.000000  0.000000
 Variable       Old X    -DE/DX   Delta X   Delta X   Delta X     New X
                                 (Linear)    (Quad)   (Total)
    X1       -3.90211   0.00000   0.00000   0.00000   0.00000  -3.90211
    Y1        0.16445   0.00009   0.00000   0.00009   0.00009   0.16454
    Z1       -3.85236   0.00000   0.00000   0.00000   0.00000  -3.85236
    X2       -3.40983  -0.00002   0.00000  -0.00002  -0.00002  -3.40985
    Y2        3.04699  -0.00005   0.00000  -0.00005  -0.00005   3.04694
    Z2       -4.05997  -0.00007   0.00000  -0.00007  -0.00007  -4.06004
    X3       -1.36652  -0.00003   0.00000  -0.00003  -0.00003  -1.36655
    Y3        3.94896   0.00011   0.00000   0.00011   0.00011   3.94907
    Z3       -2.16130   0.00000   0.00000   0.00000   0.00000  -2.16130
    X4       -1.41533  -0.00006   0.00000  -0.00006  -0.00006  -1.41539
    Y4       -1.38289   0.00002   0.00000   0.00002   0.00002  -1.38287
    Z4       -4.04213   0.00000   0.00000   0.00000   0.00000  -4.04213
    X5        1.09310  -0.00001   0.00000  -0.00001  -0.00001   1.09308
    Y5        2.37180  -0.00003   0.00000  -0.00003  -0.00003   2.37177
    Z5       -2.39810   0.00000   0.00000   0.00000   0.00000  -2.39810
    X6        0.59109   0.00005   0.00000   0.00005   0.00005   0.59114
    Y6       -0.51351   0.00009   0.00000   0.00009   0.00009  -0.51342
    Z6       -2.07498  -0.00001   0.00000  -0.00001  -0.00001  -2.07499
    X7       -0.35666  -0.00001   0.00000  -0.00001  -0.00001  -0.35667
    Y7       -1.24965  -0.00009   0.00000  -0.00009  -0.00009  -1.24974
    Z7        0.38323   0.00005   0.00000   0.00005   0.00005   0.38328
    X8        1.34577  -0.00001   0.00000  -0.00001  -0.00001   1.34576
    Y8       -1.23097  -0.00002   0.00000  -0.00002  -0.00002  -1.23099
    Z8        2.90488  -0.00013   0.00000  -0.00013  -0.00013   2.90475
    X9        0.15545  -0.00001   0.00000  -0.00001  -0.00001   0.15544
    Y9       -3.56554  -0.00002   0.00000  -0.00002  -0.00002  -3.56556
    Z9        4.78156   0.00006   0.00000   0.00006   0.00006   4.78161
   X10        4.46975   0.00003   0.00000   0.00003   0.00003   4.46978
   Y10       -1.84473  -0.00002   0.00000  -0.00002  -0.00002  -1.84475
   Z10        2.36587   0.00007   0.00000   0.00007   0.00007   2.36594
   X11        1.01255   0.00002   0.00000   0.00002   0.00002   1.01257
   Y11        1.57458  -0.00003   0.00000  -0.00003  -0.00003   1.57455
   Z11        4.46198   0.00003   0.00000   0.00003   0.00003   4.46201
   X12       -4.82959   0.00000   0.00000   0.00000   0.00000  -4.82960
   Y12       -0.24108  -0.00004   0.00000  -0.00004  -0.00004  -0.24112
   Z12       -2.05033  -0.00005   0.00000  -0.00005  -0.00005  -2.05038
   X13       -5.18443  -0.00003   0.00000  -0.00003  -0.00003  -5.18445
   Y13       -0.41712  -0.00005   0.00000  -0.00005  -0.00005  -0.41717
   Z13       -5.36344  -0.00009   0.00000  -0.00009  -0.00009  -5.36353
   X14       -2.79912   0.00009   0.00000   0.00009   0.00009  -2.79903
   Y14        3.49612  -0.00005   0.00000  -0.00005  -0.00005   3.49608
   Z14       -5.98318   0.00005   0.00000   0.00005   0.00005  -5.98313
   X15       -5.17000  -0.00005   0.00000  -0.00005  -0.00005  -5.17005
   Y15        4.06774   0.00001   0.00000   0.00001   0.00001   4.06775
   Z15       -3.70457   0.00004   0.00000   0.00004   0.00004  -3.70453
   X16       -0.93806  -0.00001   0.00000  -0.00001  -0.00001  -0.93807
   Y16        5.93816   0.00003   0.00000   0.00003   0.00003   5.93818
   Z16       -2.51662   0.00002   0.00000   0.00002   0.00002  -2.51659
   X17       -2.10309  -0.00002   0.00000  -0.00002  -0.00002  -2.10312
   Y17        3.79568   0.00004   0.00000   0.00004   0.00004   3.79571
   Z17       -0.23732   0.00003   0.00000   0.00003   0.00003  -0.23729
   X18       -1.84053   0.00003   0.00000   0.00003   0.00003  -1.84050
   Y18       -3.38486  -0.00002   0.00000  -0.00002  -0.00002  -3.38489
   Z18       -3.75570  -0.00002   0.00000  -0.00002  -0.00002  -3.75571
   X19       -0.64117   0.00003   0.00000   0.00003   0.00003  -0.64114
   Y19       -1.18337  -0.00001   0.00000  -0.00001  -0.00001  -1.18337
   Z19       -5.94921   0.00002   0.00000   0.00002   0.00002  -5.94918
   X20        1.92654  -0.00006   0.00000  -0.00006  -0.00006   1.92647
   Y20        2.70769  -0.00002   0.00000  -0.00002  -0.00002   2.70768
   Z20       -4.26049   0.00005   0.00000   0.00005   0.00005  -4.26045
   X21        2.46768  -0.00003   0.00000  -0.00003  -0.00003   2.46765
   Y21        3.01895  -0.00002   0.00000  -0.00002  -0.00002   3.01893
   Z21       -1.00822  -0.00003   0.00000  -0.00003  -0.00003  -1.00825
   X22        2.33262   0.00004   0.00000   0.00004   0.00004   2.33266
   Y22       -1.54710  -0.00001   0.00000  -0.00001  -0.00001  -1.54711
   Z22       -2.49569   0.00000   0.00000   0.00000   0.00000  -2.49569
   X23        1.18548   0.00002   0.00000   0.00002   0.00002   1.18550
   Y23       -3.63795  -0.00002   0.00000  -0.00002  -0.00002  -3.63796
   Z23        6.56548   0.00000   0.00000   0.00000   0.00000   6.56548
   X24       -1.83662  -0.00001   0.00000  -0.00001  -0.00001  -1.83663
   Y24       -3.20320   0.00001   0.00000   0.00001   0.00001  -3.20319
   Z24        5.16639   0.00002   0.00000   0.00002   0.00002   5.16641
   X25        0.33219   0.00000   0.00000   0.00000   0.00000   0.33218
   Y25       -5.38306   0.00001   0.00000   0.00001   0.00001  -5.38305
   Z25        3.82616  -0.00003   0.00000  -0.00003  -0.00003   3.82613
   X26        5.47896  -0.00001   0.00000  -0.00001  -0.00001   5.47895
   Y26       -1.96164  -0.00002   0.00000  -0.00002  -0.00002  -1.96166
   Z26        4.15900   0.00003   0.00000   0.00003   0.00003   4.15903
   X27        4.66828  -0.00004   0.00000  -0.00004  -0.00004   4.66824
   Y27       -3.63542  -0.00005   0.00000  -0.00005  -0.00005  -3.63548
   Z27        1.36590  -0.00002   0.00000  -0.00002  -0.00002   1.36588
   X28        5.30378   0.00001   0.00000   0.00001   0.00001   5.30379
   Y28       -0.34051   0.00001   0.00000   0.00001   0.00001  -0.34050
   Z28        1.23290  -0.00002   0.00000  -0.00002  -0.00002   1.23288
   X29        1.90224   0.00007   0.00000   0.00007   0.00007   1.90231
   Y29        1.45392   0.00004   0.00000   0.00004   0.00004   1.45396
   Z29        6.31704   0.00002   0.00000   0.00002   0.00002   6.31706
   X30        1.89824   0.00003   0.00000   0.00003   0.00003   1.89827
   Y30        3.10081   0.00005   0.00000   0.00005   0.00005   3.10087
   Z30        3.40646  -0.00004   0.00000  -0.00004  -0.00004   3.40642
   X31       -0.98964  -0.00001   0.00000  -0.00001  -0.00001  -0.98965
   Y31        1.99757   0.00006   0.00000   0.00006   0.00006   1.99763
   Z31        4.70375   0.00003   0.00000   0.00003   0.00003   4.70377
         Item               Value     Threshold  Converged?
 Maximum Force            0.000128     0.000450     YES
 RMS     Force            0.000041     0.000300     YES
 Maximum Displacement     0.000128     0.001800     YES
 RMS     Displacement     0.000041     0.001200     YES
 Predicted change in Energy=-7.898772D-08
 Optimization completed.
    -- Stationary point found.
 GradGradGradGradGradGradGradGradGradGradGradGradGradGradGradGradGradGrad

                          Input orientation:                          
 ---------------------------------------------------------------------
 Center     Atomic     Atomic              Coordinates (Angstroms)
 Number     Number      Type              X           Y           Z
 ---------------------------------------------------------------------
    1          6      10061003       -2.064907    0.087023   -2.038580
    2          6      10061003       -1.804404    1.612398   -2.148446
    3          6      10061003       -0.723133    2.089699   -1.143710
    4          6      10061003       -0.748963   -0.731795   -2.139004
    5          6      10061003        0.578443    1.255104   -1.269020
    6          6      10061003        0.312792   -0.271738   -1.098031
    7          8      10081003       -0.188737   -0.661288    0.202795
    8         14      10141003        0.712150   -0.651404    1.537197
    9          6      10061003        0.082260   -1.886804    2.530290
   10          6      10061003        2.365292   -0.976188    1.251963
   11          6      10061003        0.535821    0.833230    2.361180
   12          1      10011000       -2.555711   -0.127576   -1.084988
   13          1      10011000       -2.743480   -0.220730   -2.838208
   14          1      10011000       -1.481233    1.850069   -3.166163
   15          1      10011000       -2.735849    2.152555   -1.960375
   16          1      10011000       -0.496400    3.142337   -1.331736
   17          1      10011000       -1.112909    2.008586   -0.125584
   18          1      10011000       -0.973965   -1.791192   -1.987429
   19          1      10011000       -0.339293   -0.626210   -3.148184
   20          1      10011000        1.019479    1.432848   -2.254556
   21          1      10011000        1.305840    1.597559   -0.533526
   22          1      10011000        1.234367   -0.818688   -1.320662
   23          1      10011000        0.627331   -1.925118    3.474305
   24          1      10011000       -0.971897   -1.695062    2.733935
   25          1      10011000        0.175787   -2.848594    2.024719
   26          1      10011000        2.899339   -1.038054    2.200847
   27          1      10011000        2.470346   -1.923783    0.722802
   28          1      10011000        2.806641   -0.180191    0.652423
   29          1      10011000        1.006624    0.769380    3.342834
   30          1      10011000        1.004504    1.640881    1.802622
   31          1      10011000       -0.523697    1.057068    2.489115
 ---------------------------------------------------------------------
                    Distance matrix (angstroms):
                    1          2          3          4          5
     1  C    0.000000
     2  C    1.551354   0.000000
     3  C    2.571354   1.551276   0.000000
     4  C    1.553144   2.570853   2.992007   0.000000
     5  C    2.990641   2.564958   1.551242   2.542960   0.000000
     6  C    2.582014   3.022558   2.579072   1.556471   1.559184
     7  O    3.017241   3.648062   3.109113   2.408909   2.535224
     8  Si   4.587319   5.004178   4.094013   3.956736   3.395218
     9  C    5.420415   6.139584   5.473529   4.881320   4.955052
    10  C    5.620031   5.970755   4.967623   4.610527   3.811410
    11  C    5.165123   5.140086   3.930387   4.934737   3.654880
    12  H    1.093745   2.173226   2.877169   2.177238   3.430538
    13  H    1.092968   2.172095   3.505883   2.174436   3.959244
    14  H    2.172660   1.093927   2.173121   2.873551   2.862761
    15  H    2.173178   1.093037   2.172997   3.507007   3.502559
    16  H    3.506392   2.172234   1.093072   3.965396   2.172756
    17  H    2.873718   2.174190   1.093200   3.419942   2.176202
    18  H    2.172663   3.507133   3.979460   1.093583   3.493709
    19  H    2.172019   2.856115   3.397266   1.094269   2.812977
    20  H    3.372140   2.831574   2.168439   2.797574   1.094251
    21  H    3.988589   3.504541   2.175146   3.496522   1.089649
    22  H    3.495844   3.978634   3.510247   2.147284   2.175664
    23  H    6.456683   7.074085   6.266464   5.901477   5.710984
    24  H    5.210316   5.955670   5.424245   4.972234   5.208712
    25  H    5.490806   6.421597   5.935802   4.761574   5.277422
    26  H    6.624370   6.932997   5.838767   5.677870   4.762889
    27  H    5.677771   6.246769   5.458041   4.469308   4.201425
    28  H    5.571793   5.685066   4.564844   4.553971   3.273665
    29  H    6.233741   6.226292   4.986420   5.948627   4.657088
    30  H    5.156606   4.847856   3.444857   4.923479   3.124954
    31  H    4.880198   4.843095   3.782000   4.966916   3.921417
                    6          7          8          9         10
     6  C    0.000000
     7  O    1.447559   0.000000
     8  Si   2.692221   1.610069   0.000000
     9  C    3.978228   2.644346   1.705640   0.000000
    10  C    3.198667   2.779024   1.708719   2.770483   0.000000
    11  C    3.638246   2.723453   1.707096   2.762770   2.802020
    12  H    2.872153   2.746961   4.222459   4.808743   5.513415
    13  H    3.517331   3.996061   5.592050   6.291374   6.587850
    14  H    3.463778   4.396287   5.761066   6.989872   6.504100
    15  H    3.989366   4.368614   5.655429   6.665150   6.791890
    16  H    3.516435   4.113028   4.907528   6.367287   5.641544
    17  H    2.859747   2.844319   3.629218   4.863759   4.785853
    18  H    2.180714   2.586570   4.070023   4.640532   4.723190
    19  H    2.180366   3.354543   4.801975   5.831970   5.176732
    20  H    2.177744   3.447284   4.337735   5.898578   4.462100
    21  H    2.190681   2.806834   3.114192   4.798427   3.306748
    22  H    1.094541   2.090675   2.909992   4.159093   2.814640
    23  H    4.872253   3.600835   2.319899   1.090749   2.976538
    24  H    4.284885   2.844064   2.314610   1.090635   3.721538
    25  H    4.050990   2.869947   2.313657   1.090592   2.982782
    26  H    4.261462   3.697347   2.318130   2.960547   1.090604
    27  H    3.271043   2.989151   2.318069   2.995218   1.090405
    28  H    3.048238   3.066906   2.322016   3.723058   1.089885
    29  H    4.613742   3.651787   2.316392   2.927454   3.043802
    30  H    3.542649   3.046842   2.326046   3.718144   3.000669
    31  H    3.915744   2.879619   2.313513   3.005871   3.743118
                   11         12         13         14         15
    11  C    0.000000
    12  H    4.728297   0.000000
    13  H    6.236849   1.765706   0.000000
    14  H    5.971097   3.065432   2.447250   0.000000
    15  H    5.578555   2.449030   2.530442   1.766207   0.000000
    16  H    4.476057   3.872205   4.316138   2.450505   2.527842
    17  H    3.206831   2.750513   3.871298   3.066906   2.453797
    18  H    5.298815   2.466564   2.514231   3.860767   4.319503
    19  H    5.766185   3.068863   2.457766   2.726959   3.856930
    20  H    4.679582   4.072443   4.151486   2.694190   3.834972
    21  H    3.091351   4.265182   5.001474   3.842176   4.321940
    22  H    4.095456   3.859775   4.299275   4.231148   5.000013
    23  H    2.975887   5.843805   7.356298   7.924260   7.581170
    24  H    2.967224   4.421498   6.030003   6.902067   6.320777
    25  H    3.714654   4.953311   6.251068   7.195026   7.026385
    26  H    3.018878   6.432981   7.609304   7.505695   7.697473
    27  H    3.745369   5.635220   6.539508   6.706786   7.135855
    28  H    3.017200   5.637037   6.556676   6.090108   6.556494
    29  H    1.090585   5.753292   7.297183   7.051551   6.636512
    30  H    1.088095   4.913334   6.249023   5.559809   5.330309
    31  H    1.090436   4.278630   5.911056   5.790328   5.088385
                   16         17         18         19         20
    16  H    0.000000
    17  H    1.766431   0.000000
    18  H    4.999771   4.233684   0.000000
    19  H    4.186420   4.083717   1.762767   0.000000
    20  H    2.464110   3.067747   3.799949   2.623843   0.000000
    21  H    2.504306   2.487108   4.335318   3.806318   1.752449
    22  H    4.322660   3.864116   2.503412   2.419357   2.446988
    23  H    7.073888   5.609069   5.693208   6.817543   6.652035
    24  H    6.336892   4.681211   4.722342   6.011818   6.215661
    25  H    6.899918   5.465961   4.305503   5.653603   6.111854
    26  H    6.440951   5.549092   5.754247   6.266617   5.430456
    27  H    6.219990   5.387299   4.384770   4.956037   4.715575
    28  H    5.087844   4.556195   4.884376   4.953832   3.774437
    29  H    5.453587   4.249467   6.236262   6.774400   5.636589
    30  H    3.785668   2.887321   5.482513   5.608562   4.062535
    31  H    4.352929   2.844153   5.324920   5.886134   5.002501
                   21         22         23         24         25
    21  H    0.000000
    22  H    2.542232   0.000000
    23  H    5.378879   4.958265   0.000000
    24  H    5.167760   4.698445   1.777246   0.000000
    25  H    5.252610   4.053725   1.777076   1.775049   0.000000
    26  H    4.118554   3.901446   2.751472   3.962614   3.275181
    27  H    3.915901   2.631468   3.311718   3.993245   2.795580
    28  H    2.611374   2.602459   3.969531   4.572185   3.990610
    29  H    3.975120   4.931737   2.724237   3.218506   3.939220
    30  H    2.355900   3.982112   3.956404   3.987734   4.570720
    31  H    3.574310   4.596048   3.344981   2.799114   3.994889
                   26         27         28         29         30
    26  H    0.000000
    27  H    1.775717   0.000000
    28  H    1.772608   1.777122   0.000000
    29  H    2.855402   4.032392   3.373435   0.000000
    30  H    3.305400   4.002690   2.808372   1.769681   0.000000
    31  H    4.023656   4.579261   3.999425   1.775805   1.774122
                   31
    31  H    0.000000
 Stoichiometry    C9H20OSi
 Framework group  C1[X(C9H20OSi)]
 Deg. of freedom    87
 Full point group                 C1
 Largest Abelian subgroup         C1      NOp   1
 Largest concise Abelian subgroup C1      NOp   1
                         Standard orientation:                         
 ---------------------------------------------------------------------
 Center     Atomic     Atomic              Coordinates (Angstroms)
 Number     Number      Type              X           Y           Z
 ---------------------------------------------------------------------
    1          6      10061003        2.631129   -1.011065   -0.722841
    2          6      10061003        3.159299    0.440336   -0.577343
    3          6      10061003        2.026820    1.435434   -0.211655
    4          6      10061003        1.819275   -1.457353    0.523745
    5          6      10061003        1.235961    0.964041    1.036818
    6          6      10061003        0.659830   -0.473428    0.855678
    7          8      10081003       -0.314413   -0.610338   -0.206176
    8         14      10141003       -1.804218   -0.005472   -0.122862
    9          6      10061003       -2.778542   -1.043317   -1.062426
   10          6      10061003       -2.437832    0.043061    1.463297
   11          6      10061003       -1.853573    1.549264   -0.826095
   12          1      10011000        1.998504   -1.077468   -1.612591
   13          1      10011000        3.476475   -1.689159   -0.864825
   14          1      10011000        3.928316    0.467369    0.200191
   15          1      10011000        3.624335    0.751507   -1.516302
   16          1      10011000        2.461407    2.418642   -0.013556
   17          1      10011000        1.344695    1.536425   -1.059943
   18          1      10011000        1.411109   -2.456294    0.346425
   19          1      10011000        2.494053   -1.528086    1.382288
   20          1      10011000        1.903640    0.974732    1.903696
   21          1      10011000        0.433409    1.669475    1.250373
   22          1      10011000        0.224909   -0.802845    1.804544
   23          1      10011000       -3.807320   -0.681244   -1.078290
   24          1      10011000       -2.397822   -1.082588   -2.083697
   25          1      10011000       -2.760187   -2.048194   -0.639018
   26          1      10011000       -3.474184    0.381778    1.437579
   27          1      10011000       -2.400309   -0.952095    1.907415
   28          1      10011000       -1.858930    0.731911    2.078282
   29          1      10011000       -2.888732    1.878713   -0.922454
   30          1      10011000       -1.316132    2.267125   -0.209828
   31          1      10011000       -1.397094    1.517770   -1.815885
 ---------------------------------------------------------------------
 Rotational constants (GHZ):      1.7249506      0.5862700      0.5547710
 1|1|UNPC-UNK|FOpt|Dreiding|ZDO|C9H20O1Si1|PCUSER|28-Mar-2008|0||# opt 
 dreiding||Me3SiO-cycl-ax||0,1|C,-2.0649068245,0.0870232315,-2.03857999
 93|C,-1.8044041873,1.6123979139,-2.1484457652|C,-0.7231326657,2.089699
 4877,-1.143710232|C,-0.7489629835,-0.7317948547,-2.1390035935|C,0.5784
 434508,1.255104112,-1.2690202988|C,0.3127921222,-0.2717377417,-1.09803
 07774|O,-0.1887370227,-0.6612877059,0.2027947819|Si,0.7121495588,-0.65
 14037189,1.5371965428|C,0.0822604804,-1.8868037569,2.5302902507|C,2.36
 52915298,-0.9761880451,1.2519625246|C,0.535821022,0.8332296292,2.36118
 02383|H,-2.5557105179,-0.1275758112,-1.0849879285|H,-2.7434802297,-0.2
 207304568,-2.8382084669|H,-1.4812327688,1.8500687999,-3.1661633846|H,-
 2.7358487872,2.1525552026,-1.9603745071|H,-0.4963998539,3.1423365302,-
 1.331736336|H,-1.1129085934,2.0085858035,-0.1255838906|H,-0.9739653246
 ,-1.7911923143,-1.9874285095|H,-0.3392932257,-0.6262099038,-3.14818449
 92|H,1.0194789064,1.4328481115,-2.2545562537|H,1.3058404051,1.59755925
 98,-0.5335257045|H,1.2343667768,-0.8186878968,-1.3206624554|H,0.627330
 7717,-1.9251178187,3.474304839|H,-0.9718968876,-1.6950621911,2.7339346
 553|H,0.1757865786,-2.848593953,2.0247188198|H,2.8993386081,-1.0380537
 484,2.2008473664|H,2.4703456171,-1.9237831095,0.7228015348|H,2.8066411
 062,-0.1801909517,0.652423153|H,1.006623522,0.769380382,3.3428342773|H
 ,1.0045040355,1.6408805687,1.802621647|H,-0.523697119,1.0570679664,2.4
 891149913||Version=IA32W-G03RevD.01|HF=0.0322744|RMSD=0.000e+000|RMSF=
 4.121e-005|Thermal=0.|Dipole=0.,0.,0.|PG=C01 [X(C9H20O1Si1)]||@


 BLESSED ARE THOSE WHO NOUGHT EXPECT,
 FOR THEY SHALL NOT BE DISAPPOINTED..  WALCOT - ODE TO PITT
 Job cpu time:  0 days  0 hours  0 minutes  3.0 seconds.
 File lengths (MBytes):  RWF=     11 Int=      0 D2E=      0 Chk=      4 Scr=      1
 Normal termination of Gaussian 03 at Fri Mar 28 18:27:15 2008.
