 Entering Link 1 = C:\G03W\l1.exe PID=      2464.
  
 Copyright (c) 1988,1990,1992,1993,1995,1998,2003,2004, Gaussian, Inc.
                  All Rights Reserved.
  
 This is the Gaussian(R) 03 program.  It is based on the
 the Gaussian(R) 98 system (copyright 1998, Gaussian, Inc.),
 the Gaussian(R) 94 system (copyright 1995, Gaussian, Inc.),
 the Gaussian 92(TM) system (copyright 1992, Gaussian, Inc.),
 the Gaussian 90(TM) system (copyright 1990, Gaussian, Inc.),
 the Gaussian 88(TM) system (copyright 1988, Gaussian, Inc.),
 the Gaussian 86(TM) system (copyright 1986, Carnegie Mellon
 University), and the Gaussian 82(TM) system (copyright 1983,
 Carnegie Mellon University). Gaussian is a federally registered
 trademark of Gaussian, Inc.
  
 This software contains proprietary and confidential information,
 including trade secrets, belonging to Gaussian, Inc.
  
 This software is provided under written license and may be
 used, copied, transmitted, or stored only in accord with that
 written license.
  
 The following legend is applicable only to US Government
 contracts under FAR:
  
                    RESTRICTED RIGHTS LEGEND
  
 Use, reproduction and disclosure by the US Government is
 subject to restrictions as set forth in subparagraphs (a)
 and (c) of the Commercial Computer Software - Restricted
 Rights clause in FAR 52.227-19.
  
 Gaussian, Inc.
 340 Quinnipiac St., Bldg. 40, Wallingford CT 06492
  
  
 ---------------------------------------------------------------
 Warning -- This program may not be used in any manner that
 competes with the business of Gaussian, Inc. or will provide
 assistance to any competitor of Gaussian, Inc.  The licensee
 of this program is prohibited from giving any competitor of
 Gaussian, Inc. access to this program.  By using this program,
 the user acknowledges that Gaussian, Inc. is engaged in the
 business of creating and licensing software in the field of
 computational chemistry and represents and warrants to the
 licensee that it is not a competitor of Gaussian, Inc. and that
 it will not use this program in any manner prohibited above.
 ---------------------------------------------------------------
  

 Cite this work as:
 Gaussian 03, Revision D.01,
 M. J. Frisch, G. W. Trucks, H. B. Schlegel, G. E. Scuseria, 
 M. A. Robb, J. R. Cheeseman, J. A. Montgomery, Jr., T. Vreven, 
 K. N. Kudin, J. C. Burant, J. M. Millam, S. S. Iyengar, J. Tomasi, 
 V. Barone, B. Mennucci, M. Cossi, G. Scalmani, N. Rega, 
 G. A. Petersson, H. Nakatsuji, M. Hada, M. Ehara, K. Toyota, 
 R. Fukuda, J. Hasegawa, M. Ishida, T. Nakajima, Y. Honda, O. Kitao, 
 H. Nakai, M. Klene, X. Li, J. E. Knox, H. P. Hratchian, J. B. Cross, 
 V. Bakken, C. Adamo, J. Jaramillo, R. Gomperts, R. E. Stratmann, 
 O. Yazyev, A. J. Austin, R. Cammi, C. Pomelli, J. W. Ochterski, 
 P. Y. Ayala, K. Morokuma, G. A. Voth, P. Salvador, J. J. Dannenberg, 
 V. G. Zakrzewski, S. Dapprich, A. D. Daniels, M. C. Strain, 
 O. Farkas, D. K. Malick, A. D. Rabuck, K. Raghavachari, 
 J. B. Foresman, J. V. Ortiz, Q. Cui, A. G. Baboul, S. Clifford, 
 J. Cioslowski, B. B. Stefanov, G. Liu, A. Liashenko, P. Piskorz, 
 I. Komaromi, R. L. Martin, D. J. Fox, T. Keith, M. A. Al-Laham, 
 C. Y. Peng, A. Nanayakkara, M. Challacombe, P. M. W. Gill, 
 B. Johnson, W. Chen, M. W. Wong, C. Gonzalez, and J. A. Pople, 
 Gaussian, Inc., Wallingford CT, 2004.
 
 ******************************************
 Gaussian 03:  IA32W-G03RevD.01 13-Oct-2005
                13-Dec-2007 
 ******************************************
 --------------
 # opt dreiding
 --------------
 1/6=10,10=10,14=-1,18=4000020,38=1,56=1,64=1/1,3;
 2/9=110,17=6,18=5,40=1/2;
 3/5=30,11=9,16=1,25=1,30=1/1;
 4/20=9,22=1001,24=3/2;
 7/44=-1/16;
 1/6=10,10=10,14=-1,18=4000020,64=1/3(2);
 2/9=110/2;
 99//99;
 2/9=110/2;
 3/5=30,11=9,16=1,25=1,30=1/1;
 4/16=2,20=9,22=1001,24=3/2;
 7/44=-1/16;
 1/6=10,10=10,14=-1,18=4000020,64=1/3(-4);
 2/9=110/2;
 99//99;
 ---------------------
 methoxycyclohexane-eq
 ---------------------
 Symbolic Z-matrix:
 Charge =  0 Multiplicity = 1
 C                     0.23928  -1.81328  -1.04634 
 C                     1.65128  -1.21428  -1.08134 
 C                     1.58628   0.31872  -1.09234 
 C                    -0.54072  -1.28728   0.16666 
 C                     0.79728   0.85172   0.11366 
 C                    -0.61672   0.24872   0.16166 
 H                     0.29928  -2.92828  -1.00634 
 H                    -0.30472  -1.54628  -1.98334 
 H                     2.19828  -1.58028  -1.98334 
 H                     2.22528  -1.55728  -0.18734 
 H                     1.09728   0.66172  -2.03534 
 H                     2.62028   0.74172  -1.08734 
 H                    -0.04172  -1.63228   1.10366 
 H                    -1.57072  -1.71728   0.16766 
 H                     0.75428   1.96372   0.03866 
 H                     1.33928   0.60072   1.05666 
 H                    -1.21672   0.57272  -0.72334 
 O                    -1.30472   0.62472   1.34066 
 C                    -1.70172   1.97472   1.38566 
 H                    -2.33472   2.08772   2.29366 
 H                    -0.81072   2.63172   1.48966 
 H                    -2.30672   2.22972   0.48566 
 
 Include all MM classes
 MMInit generated parameter data with length LenPar=  2481.

 GradGradGradGradGradGradGradGradGradGradGradGradGradGradGradGradGradGrad
 Berny optimization.
 Initialization pass.
 No Z-matrix variables, so optimization will use Cartesian coordinates.
 Trust Radius=1.00D-01 FncErr=1.00D-07 GrdErr=1.00D-07
 Number of steps in this run=   2 maximum allowed number of steps=   2.
 GradGradGradGradGradGradGradGradGradGradGradGradGradGradGradGradGradGrad

                          Input orientation:                          
 ---------------------------------------------------------------------
 Center     Atomic     Atomic              Coordinates (Angstroms)
 Number     Number      Type              X           Y           Z
 ---------------------------------------------------------------------
    1          6      10061003        0.239281   -1.813281   -1.046344
    2          6      10061003        1.651281   -1.214281   -1.081344
    3          6      10061003        1.586281    0.318719   -1.092344
    4          6      10061003       -0.540719   -1.287281    0.166656
    5          6      10061003        0.797281    0.851719    0.113656
    6          6      10061003       -0.616719    0.248719    0.161656
    7          1      10011000        0.299281   -2.928281   -1.006344
    8          1      10011000       -0.304719   -1.546281   -1.983344
    9          1      10011000        2.198281   -1.580281   -1.983344
   10          1      10011000        2.225281   -1.557281   -0.187344
   11          1      10011000        1.097281    0.661719   -2.035344
   12          1      10011000        2.620281    0.741719   -1.087344
   13          1      10011000       -0.041719   -1.632281    1.103656
   14          1      10011000       -1.570719   -1.717281    0.167656
   15          1      10011000        0.754281    1.963719    0.038656
   16          1      10011000        1.339281    0.600719    1.056656
   17          1      10011000       -1.216719    0.572719   -0.723344
   18          8      10081003       -1.304719    0.624719    1.340656
   19          6      10061003       -1.701719    1.974719    1.385656
   20          1      10011000       -2.334719    2.087719    2.293656
   21          1      10011000       -0.810719    2.631719    1.489656
   22          1      10011000       -2.306719    2.229719    0.485656
 ---------------------------------------------------------------------
                    Distance matrix (angstroms):
                    1          2          3          4          5
     1  C    0.000000
     2  C    1.534200   0.000000
     3  C    2.522290   1.534417   0.000000
     4  C    1.535072   2.523430   2.947617   0.000000
     5  C    2.959593   2.534896   1.536570   2.523564   0.000000
     6  C    2.538473   2.971404   2.535868   1.537887   1.537956
     7  H    1.117329   2.184336   3.493819   2.185042   3.973764
     8  H    1.115883   2.179395   2.801426   2.178366   3.370789
     9  H    2.184019   1.116588   2.185092   3.494348   3.503546
    10  H    2.178902   1.116405   2.178697   2.801602   2.816570
    11  H    2.799984   2.176329   1.116252   3.366073   2.178142
    12  H    3.492688   2.182873   1.117188   3.959959   2.185825
    13  H    2.175827   2.795568   3.358452   1.116241   2.802548
    14  H    2.181539   3.492033   3.962265   1.116155   3.494295
    15  H    3.963355   3.486932   2.162732   3.501772   1.115356
    16  H    3.385263   2.821810   2.181452   2.809100   1.116250
    17  H    2.813763   3.398081   2.838571   2.169948   2.198774
    18  O    3.745070   4.240983   3.790911   2.370172   2.444476
    19  C    4.902147   5.243893   4.437766   3.670766   3.020615
    20  H    5.744465   6.179161   5.474358   4.374150   4.011174
    21  H    5.224157   5.240534   4.214535   4.145092   2.765401
    22  H    5.017468   5.475618   4.614916   3.948393   3.416443
                    6          7          8          9         10
     6  C    0.000000
     7  H    3.506652   0.000000
     8  H    2.814319   1.797017   0.000000
     9  H    3.983778   2.525437   2.503231   0.000000
    10  H    3.385321   2.501975   3.102682   1.796350   0.000000
    11  H    2.816944   3.818867   2.616022   2.498293   3.100234
    12  H    3.504457   4.343098   3.820129   2.524398   2.500285
    13  H    2.180860   2.499599   3.099376   3.814430   2.609903
    14  H    2.185248   2.518273   2.501759   4.341766   3.815919
    15  H    2.199090   5.023018   4.186892   4.328228   3.822611
    16  H    2.179648   4.217986   4.068654   3.838781   2.643765
    17  H    1.117229   3.825617   2.628594   4.229094   4.083082
    18  O    1.415896   4.550278   4.094169   5.308673   4.422308
    19  C    2.377914   5.810772   5.069439   6.260845   5.510960
    20  H    3.298313   6.556540   5.968215   7.231531   6.343105
    21  H    2.734942   6.194814   5.456505   6.233519   5.438506
    22  H    2.624012   5.968439   4.935802   6.395865   5.944184
                   11         12         13         14         15
    11  H    0.000000
    12  H    1.795726   0.000000
    13  H    4.051306   4.186001   0.000000
    14  H    4.198937   5.018584   1.794760   0.000000
    15  H    2.472717   2.498623   3.833935   4.355689   0.000000
    16  H    3.102056   2.501515   2.625959   3.825120   1.798977
    17  H    2.661552   3.857930   3.095251   2.482599   2.529894
    18  O    4.143471   4.616763   2.597188   2.632802   2.779857
    19  C    4.611031   5.129883   3.980650   3.889929   2.801154
    20  H    5.705466   6.147756   4.529056   4.425110   3.826529
    21  H    4.466205   4.688794   4.349949   4.608588   2.236258
    22  H    4.516778   5.381803   4.519645   4.027608   3.104881
                   16         17         18         19         20
    16  H    0.000000
    17  H    3.114855   0.000000
    18  O    2.659317   2.066529   0.000000
    19  C    3.353177   2.578509   1.407883   0.000000
    20  H    4.152061   3.556324   2.027185   1.112619   0.000000
    21  H    2.989139   3.049867   2.072266   1.111911   1.806911
    22  H    4.033980   2.322806   2.076308   1.114024   1.813784
                   21         22
    21  H    0.000000
    22  H    1.845978   0.000000
 Stoichiometry    C7H14O
 Framework group  C1[X(C7H14O)]
 Deg. of freedom    60
 Full point group                 C1
 Largest Abelian subgroup         C1      NOp   1
 Largest concise Abelian subgroup C1      NOp   1
                         Standard orientation:                         
 ---------------------------------------------------------------------
 Center     Atomic     Atomic              Coordinates (Angstroms)
 Number     Number      Type              X           Y           Z
 ---------------------------------------------------------------------
    1          6      10061003       -1.775850   -1.094135    0.298839
    2          6      10061003       -2.293115    0.254931   -0.217132
    3          6      10061003       -1.353765    1.390961    0.208889
    4          6      10061003       -0.345140   -1.349011   -0.195684
    5          6      10061003        0.082772    1.136788   -0.273611
    6          6      10061003        0.605835   -0.218413    0.231508
    7          1      10011000       -2.449634   -1.916896   -0.043951
    8          1      10011000       -1.790845   -1.099660    1.414607
    9          1      10011000       -3.322214    0.443039    0.173174
   10          1      10011000       -2.364151    0.226995   -1.330925
   11          1      10011000       -1.360263    1.479008    1.321644
   12          1      10011000       -1.725415    2.362608   -0.198405
   13          1      10011000       -0.349072   -1.431487   -1.308868
   14          1      10011000        0.023168   -2.324354    0.202882
   15          1      10011000        0.725795    1.972787    0.089217
   16          1      10011000        0.111640    1.152487   -1.389377
   17          1      10011000        0.686155   -0.222594    1.345838
   18          8      10081003        1.874159   -0.525877   -0.317655
   19          6      10061003        2.935772    0.253965    0.179295
   20          1      10011000        3.870486   -0.182836   -0.237163
   21          1      10011000        2.841715    1.301562   -0.181314
   22          1      10011000        2.970309    0.195846    1.291266
 ---------------------------------------------------------------------
 Rotational constants (GHZ):      3.9461274      1.3594428      1.0947059
 Standard basis: Dummy (5D, 7F)
 There are    22 symmetry adapted basis functions of A   symmetry.
 Integral buffers will be    262144 words long.
 Raffenetti 1 integral format.
 Two-electron integral symmetry is turned on.
    22 basis functions,    22 primitive gaussians,    22 cartesian basis functions
    15 alpha electrons       15 beta electrons
       nuclear repulsion energy        87.1347720940 Hartrees.
 NAtoms=   22 NActive=   22 NUniq=   22 SFac= 7.50D-01 NAtFMM=   80 NAOKFM=F Big=F
 Dreiding calculation of energy and first derivatives.
 MO and density RWFs will be updated without deorthogonalization.
 NRF= 0 NRA=   0 NVA=  22 HaveQM=F
 Convergence limit is  0.750E-04 MaxStp=  5000 StMxLn= 1.00D-04 StpMin= 1.00D-06.
 Convergence criteria           0.00011250 0.00007500 0.00045000 0.00030000
  Step  NS  ND Rises OKQ   Scale  Max. Force  RMS Force Max. Disp.  RMS Disp.     Energy   Flag
     1   0   0   F    T  1.00D+00 0.02590870 0.01123607 0.02590870 0.01123607    0.0355993 ----
     2   0   0   F    F  2.06D-01 0.02590870 0.01123607 0.02590870 0.01123607    0.0307272 ----
     3   0   0   F    T  4.03D+00 0.00831677 0.00323404 0.00894324 0.00336534    0.0305816 ----
     4   0   0   F    F -1.31D-01 0.00831677 0.00323404 0.03599739 0.01354582    0.0294033 ----
     5   0   0   F    T  3.23D+00 0.00814126 0.00273738 0.01202137 0.00364893    0.0293762 ----
     6   0   0   F    F -1.52D-01 0.00814126 0.00273738 0.03879414 0.01177547    0.0287220 ----
     7   0   0   F    T  3.14D+00 0.00580653 0.00217828 0.01092466 0.00318298    0.0287003 ----
     8   0   0   F    F  1.48D-01 0.00580653 0.00217828 0.03426659 0.00998383    0.0281458 ----
     9   0   0   F    T  3.96D+00 0.00671591 0.00182623 0.01007924 0.00289183    0.0281364 ----
    10   0   0   F    F  1.73D-01 0.00671591 0.00182623 0.03996137 0.01146528    0.0276367 ----
    11   0   0   F    T  3.43D+00 0.00671653 0.00196893 0.01214328 0.00391762    0.0276256 ----
    12   0   0   F    F -2.23D-01 0.00671653 0.00196893 0.04169934 0.01345289    0.0273129 ----
    13   0   0   F    T  3.99D+00 0.00418444 0.00145805 0.00661102 0.00261839    0.0272848 ----
    14   0   0   F    F -3.93D-01 0.00418444 0.00145805 0.02637502 0.01044622    0.0271862 ----
    15   0   0   F    T  4.10D+00 0.00285726 0.00098121 0.00386614 0.00154770    0.0271150 ----
    16   0   0   F    F -3.59D-01 0.00285726 0.00098121 0.01583428 0.00633882    0.0270578 ----
    17   0   0   F    T  2.90D+00 0.00225040 0.00083523 0.00378516 0.00139999    0.0270316 ----
    18   0   0   F    F  4.24D-01 0.00225040 0.00083523 0.01097964 0.00406096    0.0269450 ----
    19   0   0   F    T  5.26D+00 0.00164421 0.00066016 0.00297429 0.00109939    0.0269366 ----
    20   0   0   F    F -4.65D-01 0.00164421 0.00066016 0.01564862 0.00578419    0.0269267 ----
    21   0   0   F    T  2.55D+00 0.00187853 0.00063863 0.00329445 0.00121176    0.0268961 ----
    22   0   0   F    F  7.65D-01 0.00187853 0.00063863 0.00841468 0.00309507    0.0268468 ----
    23   0   0   F    T  5.97D+00 0.00137339 0.00050641 0.00245406 0.00091455    0.0268354 ----
    24   0   0   F    F -4.19D-01 0.00137339 0.00050641 0.01465899 0.00546295    0.0268213 ----
    25   0   0   F    T  2.43D+00 0.00186594 0.00057322 0.00367745 0.00130433    0.0268060 ----
    26   0   0   F    F  2.30D-01 0.00186594 0.00057322 0.00894805 0.00317373    0.0267747 ----
    27   0   0   F    T  4.10D+00 0.00118848 0.00045848 0.00269316 0.00095244    0.0267736 ----
    28   0   0   F    F -1.49D-01 0.00118848 0.00045848 0.01103817 0.00390366    0.0267501 ----
    29   0   0   F    T  3.15D+00 0.00121321 0.00045773 0.00262267 0.00105409    0.0267494 ----
    30   0   0   F    F  3.14D-01 0.00121321 0.00045773 0.00826483 0.00332176    0.0267224 ----
    31   0   0   F    T  4.24D+00 0.00112216 0.00043086 0.00255885 0.00103040    0.0267208 ----
    32   0   0   F    F -4.54D-01 0.00112216 0.00043086 0.01083707 0.00436389    0.0267164 ----
    33   0   0   F    T  4.22D+00 0.00080469 0.00029408 0.00169718 0.00056447    0.0267066 ----
    34   0   0   F    F  1.63D-01 0.00080469 0.00029408 0.00716463 0.00238290    0.0266929 ----
    35   0   0   F    T  4.10D+00 0.00088326 0.00030399 0.00200262 0.00067629    0.0266926 ----
    36   0   0   F    F -4.70D-01 0.00088326 0.00030399 0.00820304 0.00277017    0.0266912 ----
    37   0   0   F    T  4.92D+00 0.00058289 0.00018022 0.00071374 0.00029835    0.0266860 ---+
    38   0   0   F    F  1.16D-01 0.00058289 0.00018022 0.00351013 0.00146726    0.0266802 ----
    39   0   0   F    T  3.51D+00 0.00066633 0.00021277 0.00118725 0.00046711    0.0266801 ----
    40   0   0   F    T  2.77D+00 0.00082792 0.00022852 0.00150845 0.00059177    0.0266750 ----
    41   0   0   F    F  9.80D-02 0.00082792 0.00022852 0.00417531 0.00163799    0.0266699 ----
    42   0   0   F    T  4.93D+00 0.00049681 0.00017440 0.00094923 0.00036511    0.0266699 ----
    43   0   0   F    F -3.68D-01 0.00049681 0.00017440 0.00467561 0.00179844    0.0266678 ----
    44   0   0   F    T  4.55D+00 0.00036326 0.00013175 0.00071003 0.00024979    0.0266667 ---+
    45   0   0   F    F -4.74D-01 0.00036326 0.00013175 0.00322936 0.00113610    0.0266665 ----
    46   0   0   F    T  3.46D+00 0.00030673 0.00009921 0.00050848 0.00017291    0.0266654 ---+
    47   0   0   F    F -8.86D-02 0.00030673 0.00009921 0.00175720 0.00059755    0.0266643 ----
    48   0   0   F    T  3.70D+00 0.00027241 0.00008320 0.00050949 0.00014736    0.0266643 ---+
    49   0   0   F    F -2.80D-01 0.00027241 0.00008320 0.00188282 0.00054458    0.0266638 ----
    50   0   0   F    T  2.55D+00 0.00026105 0.00007888 0.00065242 0.00015414    0.0266637 ---+
    51   0   0   F    F  1.85D+00 0.00026105 0.00007888 0.00166041 0.00039229    0.0266629 ----
    52   0   0   F    T  4.33D+00 0.00033095 0.00009831 0.00117416 0.00025874    0.0266622 ---+
    53   0   0   F    F  1.47D+00 0.00033095 0.00009831 0.00507873 0.00111914    0.0266600 ----
    54   0   0   F    T  3.74D+00 0.00051308 0.00016413 0.00335447 0.00074008    0.0266588 ----
    55   0   0   F    F -3.72D-01 0.00051308 0.00016413 0.01252961 0.00276436    0.0266575 ----
    56   0   0   F    T  4.05D+00 0.00032490 0.00012206 0.00192121 0.00042813    0.0266568 ----
    57   0   0   F    F  1.44D+00 0.00032490 0.00012206 0.00778763 0.00173545    0.0266536 ----
    58   0   0   F    T  2.03D+00 0.00081443 0.00026809 0.00934288 0.00208398    0.0266519 ----
    59   0   0   F    F  9.47D-01 0.00081443 0.00026809 0.01896569 0.00423039    0.0266447 ----
    60   0   0   F    T  6.10D+00 0.00064863 0.00021675 0.00617148 0.00135035    0.0266425 ----
    61   0   0   T    F  3.77D-01 0.00064863 0.00021675 0.03763617 0.00823499    0.0266487 ----
    62   0   0   F    T  5.73D+00 0.00039729 0.00013706 0.00259569 0.00054132    0.0266389 ----
    63   0   0   F    F -1.48D-01 0.00039729 0.00013706 0.01486857 0.00310078    0.0266360 ----
    64   0   0   F    T  2.65D+00 0.00044727 0.00018378 0.00481503 0.00099670    0.0266359 ----
    65   0   0   F    F  1.72D-02 0.00044727 0.00018378 0.01275544 0.00264035    0.0266329 ----
    66   0   0   F    T  6.03D+00 0.00039445 0.00011894 0.00214379 0.00044547    0.0266329 ----
    67   0   0   T    F  4.38D-01 0.00039445 0.00011894 0.01292528 0.00268583    0.0266337 ----
    68   0   0   F    T  3.19D+00 0.00025974 0.00010596 0.00173298 0.00036853    0.0266317 ----
    69   0   0   F    F  6.07D-01 0.00025974 0.00010596 0.00552743 0.00117544    0.0266300 ----
    70   0   0   F    T  2.82D+00 0.00035222 0.00014150 0.00307647 0.00066914    0.0266298 ----
    71   0   0   F    F  3.53D-01 0.00035222 0.00014150 0.00868526 0.00188907    0.0266274 ----
    72   0   0   F    T  3.56D+00 0.00054046 0.00014628 0.00325477 0.00071838    0.0266272 ----
    73   0   0   F    F  7.33D-02 0.00054046 0.00014628 0.01158385 0.00255674    0.0266246 ----
    74   0   0   F    T  3.71D+00 0.00036371 0.00014658 0.00339209 0.00073949    0.0266245 ----
    75   0   0   F    F -1.16D-01 0.00036371 0.00014658 0.01258735 0.00274411    0.0266223 ----
    76   0   0   F    T  4.71D+00 0.00032000 0.00011876 0.00233061 0.00051481    0.0266222 ----
    77   0   0   F    F -8.11D-02 0.00032000 0.00011876 0.01098040 0.00242548    0.0266202 ----
    78   0   0   F    T  4.62D+00 0.00032477 0.00011297 0.00219769 0.00048281    0.0266202 ----
    79   0   0   T    F  4.82D-01 0.00032477 0.00011297 0.01014467 0.00222868    0.0266204 ----
    80   0   0   F    T  4.62D+00 0.00018126 0.00007634 0.00104600 0.00023217    0.0266193 ---+
    81   0   0   F    T  6.34D+00 0.00018825 0.00006319 0.00074251 0.00016940    0.0266184 -+-+
    82   0   0   T    F  4.90D-01 0.00018825 0.00006319 0.00470586 0.00107364    0.0266184 -+--
    83   0   0   F    T  2.16D+00 0.00026275 0.00007377 0.00109342 0.00024357    0.0266180 -+-+
    84   0   0   F    F  5.16D-01 0.00026275 0.00007377 0.00236378 0.00052656    0.0266174 -+--
    85   0   0   F    T  6.15D+00 0.00013590 0.00005190 0.00061082 0.00012983    0.0266174 -+-+
    86   0   0   F    F -4.16D-01 0.00013590 0.00005190 0.00375535 0.00079819    0.0266172 -+--
    87   0   0   F    T  2.33D+00 0.00027733 0.00006281 0.00097083 0.00020032    0.0266171 -+-+
    88   0   0   F    F  1.85D+00 0.00027733 0.00006281 0.00225995 0.00046631    0.0266166 -+--
    89   0   0   F    T  3.31D+00 0.00022982 0.00008779 0.00194448 0.00040061    0.0266162 ----
    90   0   0   F    F  3.48D-01 0.00022982 0.00008779 0.00644497 0.00132781    0.0266151 ----
    91   0   0   F    T  4.81D+00 0.00032776 0.00008373 0.00176944 0.00037188    0.0266151 ----
    92   0   0   F    F -2.53D-01 0.00032776 0.00008373 0.00851641 0.00178990    0.0266143 ----
    93   0   0   F    T  2.34D+00 0.00038561 0.00010289 0.00265270 0.00057092    0.0266142 ----
    94   0   0   F    F  6.85D-01 0.00038561 0.00010289 0.00621019 0.00133658    0.0266131 ----
    95   0   0   F    T  6.82D+00 0.00028137 0.00007665 0.00143613 0.00033038    0.0266129 ----
    96   0   0   F    F -4.37D-01 0.00028137 0.00007665 0.00978991 0.00225219    0.0266126 ----
    97   0   0   F    T  2.61D+00 0.00030624 0.00009196 0.00204030 0.00048513    0.0266121 ----
    98   0   0   F    F  2.58D-01 0.00030624 0.00009196 0.00533389 0.00126826    0.0266112 ----
    99   0   0   F    T  4.86D+00 0.00025953 0.00007471 0.00136774 0.00032809    0.0266112 -+--
   100   0   0   F    F -2.09D-01 0.00025953 0.00007471 0.00665106 0.00159544    0.0266105 -+--
   101   0   0   F    T  2.31D+00 0.00030709 0.00009579 0.00229663 0.00054694    0.0266105 ----
   102   0   0   F    F  4.06D-01 0.00030709 0.00009579 0.00530217 0.00126272    0.0266096 ----
   103   0   0   F    T  7.49D+00 0.00017639 0.00006192 0.00103918 0.00023724    0.0266095 -+-+
   104   0   0   F    F -4.17D-01 0.00017639 0.00006192 0.00777866 0.00177586    0.0266092 -+--
   105   0   0   F    T  3.58D+00 0.00019381 0.00006730 0.00128170 0.00028888    0.0266089 -+-+
   106   0   0   F    F -3.47D-01 0.00019381 0.00006730 0.00459344 0.00103532    0.0266087 -+--
   107   0   0   F    T  4.25D+00 0.00015056 0.00004869 0.00069282 0.00015886    0.0266086 -+-+
   108   0   0   F    F -1.40D-01 0.00015056 0.00004869 0.00294682 0.00067569    0.0266083 -+--
   109   0   0   F    T  4.95D+00 0.00011091 0.00004058 0.00048067 0.00011743    0.0266083 ++-+
   110   0   0   F    F -5.88D-02 0.00011091 0.00004058 0.00237865 0.00058111    0.0266081 ++--
   111   0   0   F    T  2.57D+00 0.00018527 0.00005375 0.00082677 0.00021285    0.0266081 -+-+
   112   0   0   F    F  4.01D-01 0.00018527 0.00005375 0.00212460 0.00054697    0.0266077 -+--
   113   0   0   F    T  3.21D+00 0.00021655 0.00005610 0.00087067 0.00023869    0.0266077 -+-+
   114   0   0   F    F  2.21D-01 0.00021655 0.00005610 0.00279458 0.00076612    0.0266073 -+--
   115   0   0   F    T  3.33D+00 0.00015331 0.00006007 0.00097676 0.00028046    0.0266073 -+-+
   116   0   0   F    T  3.21D+00 0.00022561 0.00005976 0.00099440 0.00029130    0.0266069 -+-+
   117   0   0   F    F  6.71D-01 0.00022561 0.00005976 0.00319277 0.00093528    0.0266064 -+--
   118   0   0   F    T  7.68D+00 0.00013306 0.00005185 0.00071234 0.00020337    0.0266063 -+-+
   119   0   0   T    F  3.36D-01 0.00013306 0.00005185 0.00547300 0.00156250    0.0266070 -+--
   120   0   0   F    T  2.69D+00 0.00011609 0.00004972 0.00070280 0.00019502    0.0266061 -+-+
   121   0   0   F    F  1.36D+00 0.00011609 0.00004972 0.00189309 0.00052530    0.0266057 -+--
   122   0   0   F    T  4.30D+00 0.00014688 0.00005966 0.00100212 0.00028752    0.0266056 -+-+
   123   0   0   T    F  3.84D-01 0.00014688 0.00005966 0.00431267 0.00123736    0.0266059 -+--
   124   0   0   F    T  7.80D+00 0.00005986 0.00002607 0.00018750 0.00006089    0.0266054 ====
 Energy=    0.026605365753 NIter=   0.
 Dipole moment=       0.000000       0.000000       0.000000
 ***** Axes restored to original set *****
 -------------------------------------------------------------------
 Center     Atomic                   Forces (Hartrees/Bohr)
 Number     Number              X              Y              Z
 -------------------------------------------------------------------
    1          6          -0.000009642   -0.000020430   -0.000034160
    2          6          -0.000012631    0.000025755   -0.000003204
    3          6           0.000016252   -0.000009897   -0.000024473
    4          6          -0.000003452    0.000009744    0.000019953
    5          6           0.000033690    0.000042218    0.000064638
    6          6           0.000070129   -0.000023077    0.000002382
    7          1          -0.000003764   -0.000041336    0.000034865
    8          1          -0.000019149    0.000042821   -0.000017444
    9          1           0.000008445   -0.000008801   -0.000015664
   10          1          -0.000016381   -0.000010937    0.000002408
   11          1          -0.000046352   -0.000033216    0.000000978
   12          1           0.000037387   -0.000006511    0.000000931
   13          1           0.000003803    0.000041344   -0.000003824
   14          1          -0.000016230   -0.000004898    0.000000920
   15          1           0.000010483    0.000020343    0.000005198
   16          1           0.000006970    0.000048542   -0.000006324
   17          1          -0.000001957    0.000039713   -0.000000498
   18          8          -0.000044088   -0.000034941   -0.000007875
   19          6           0.000000875   -0.000025548   -0.000023127
   20          1          -0.000028362    0.000017391    0.000021931
   21          1           0.000036846   -0.000035121    0.000005725
   22          1          -0.000022870   -0.000033159   -0.000023334
 -------------------------------------------------------------------
 Cartesian Forces:  Max     0.000070129 RMS     0.000026068

 GradGradGradGradGradGradGradGradGradGradGradGradGradGradGradGradGradGrad
 Berny optimization.
 Search for a local minimum.
 Step number   1 out of a maximum of   2
 All quantities printed in internal units (Hartrees-Bohrs-Radians)
 Second derivative matrix not updated -- unit matrix used.
 RFO step:  Lambda=-4.48502014D-08.
 Linear search not attempted -- first point.
 TrRot=  0.000000  0.000000  0.000000  0.000000  0.000000  0.000000
 Variable       Old X    -DE/DX   Delta X   Delta X   Delta X     New X
                                 (Linear)    (Quad)   (Total)
    X1        0.46108  -0.00001   0.00000  -0.00001  -0.00001   0.46107
    Y1       -3.48169  -0.00002   0.00000  -0.00002  -0.00002  -3.48171
    Z1       -1.98945  -0.00003   0.00000  -0.00003  -0.00003  -1.98949
    X2        3.16468  -0.00001   0.00000  -0.00001  -0.00001   3.16467
    Y2       -2.35992   0.00003   0.00000   0.00003   0.00003  -2.35990
    Z2       -2.11099   0.00000   0.00000   0.00000   0.00000  -2.11100
    X3        3.11830   0.00002   0.00000   0.00002   0.00002   3.11831
    Y3        0.56922  -0.00001   0.00000  -0.00001  -0.00001   0.56921
    Z3       -2.08830  -0.00002   0.00000  -0.00002  -0.00002  -2.08832
    X4       -1.04404   0.00000   0.00000   0.00000   0.00000  -1.04404
    Y4       -2.42916   0.00001   0.00000   0.00001   0.00001  -2.42915
    Z4        0.29545   0.00002   0.00000   0.00002   0.00002   0.29547
    X5        1.59815   0.00003   0.00000   0.00003   0.00003   1.59818
    Y5        1.62173   0.00004   0.00000   0.00004   0.00004   1.62177
    Z5        0.18756   0.00006   0.00000   0.00006   0.00006   0.18762
    X6       -1.12517   0.00007   0.00000   0.00007   0.00007  -1.12510
    Y6        0.50844  -0.00002   0.00000  -0.00002  -0.00002   0.50842
    Z6        0.32395   0.00000   0.00000   0.00000   0.00000   0.32395
    X7        0.58305   0.00000   0.00000   0.00000   0.00000   0.58305
    Y7       -5.53821  -0.00004   0.00000  -0.00004  -0.00004  -5.53825
    Z7       -1.83843   0.00003   0.00000   0.00003   0.00003  -1.83840
    X8       -0.54622  -0.00002   0.00000  -0.00002  -0.00002  -0.54624
    Y8       -3.03538   0.00004   0.00000   0.00004   0.00004  -3.03534
    Z8       -3.73833  -0.00002   0.00000  -0.00002  -0.00002  -3.73834
    X9        4.09941   0.00001   0.00000   0.00001   0.00001   4.09942
    Y9       -3.01514  -0.00001   0.00000  -0.00001  -0.00001  -3.01515
    Z9       -3.83262  -0.00002   0.00000  -0.00002  -0.00002  -3.83263
   X10        4.26256  -0.00002   0.00000  -0.00002  -0.00002   4.26254
   Y10       -3.03993  -0.00001   0.00000  -0.00001  -0.00001  -3.03994
   Z10       -0.49689   0.00000   0.00000   0.00000   0.00000  -0.49689
   X11        2.27483  -0.00005   0.00000  -0.00005  -0.00005   2.27478
   Y11        1.25262  -0.00003   0.00000  -0.00003  -0.00003   1.25258
   Z11       -3.84747   0.00000   0.00000   0.00000   0.00000  -3.84747
   X12        5.05609   0.00004   0.00000   0.00004   0.00004   5.05613
   Y12        1.27961  -0.00001   0.00000  -0.00001  -0.00001   1.27960
   Z12       -2.00093   0.00000   0.00000   0.00000   0.00000  -2.00092
   X13       -0.17991   0.00000   0.00000   0.00000   0.00000  -0.17991
   Y13       -3.11367   0.00004   0.00000   0.00004   0.00004  -3.11362
   Z13        2.04494   0.00000   0.00000   0.00000   0.00000   2.04494
   X14       -2.97413  -0.00002   0.00000  -0.00002  -0.00002  -2.97414
   Y14       -3.16317   0.00000   0.00000   0.00000   0.00000  -3.16318
   Z14        0.21996   0.00000   0.00000   0.00000   0.00000   0.21996
   X15        1.50392   0.00001   0.00000   0.00001   0.00001   1.50393
   Y15        3.67551   0.00002   0.00000   0.00002   0.00002   3.67553
   Z15        0.00865   0.00001   0.00000   0.00001   0.00001   0.00866
   X16        2.60389   0.00001   0.00000   0.00001   0.00001   2.60390
   Y16        1.18501   0.00005   0.00000   0.00005   0.00005   1.18505
   Z16        1.93970  -0.00001   0.00000  -0.00001  -0.00001   1.93969
   X17       -2.19697   0.00000   0.00000   0.00000   0.00000  -2.19697
   Y17        1.12483   0.00004   0.00000   0.00004   0.00004   1.12487
   Z17       -1.33831   0.00000   0.00000   0.00000   0.00000  -1.33831
   X18       -2.43025  -0.00004   0.00000  -0.00004  -0.00004  -2.43029
   Y18        1.25065  -0.00003   0.00000  -0.00003  -0.00003   1.25061
   Z18        2.60585  -0.00001   0.00000  -0.00001  -0.00001   2.60584
   X19       -3.38472   0.00000   0.00000   0.00000   0.00000  -3.38472
   Y19        3.79238  -0.00003   0.00000  -0.00003  -0.00003   3.79236
   Z19        2.72269  -0.00002   0.00000  -0.00002  -0.00002   2.72267
   X20       -4.40811  -0.00003   0.00000  -0.00003  -0.00003  -4.40814
   Y20        4.01311   0.00002   0.00000   0.00002   0.00002   4.01313
   Z20        4.49640   0.00002   0.00000   0.00002   0.00002   4.49642
   X21       -1.85573   0.00004   0.00000   0.00004   0.00004  -1.85569
   Y21        5.17367  -0.00004   0.00000  -0.00004  -0.00004   5.17363
   Z21        2.68799   0.00001   0.00000   0.00001   0.00001   2.68800
   X22       -4.69131  -0.00002   0.00000  -0.00002  -0.00002  -4.69134
   Y22        4.16755  -0.00003   0.00000  -0.00003  -0.00003   4.16751
   Z22        1.17060  -0.00002   0.00000  -0.00002  -0.00002   1.17057
         Item               Value     Threshold  Converged?
 Maximum Force            0.000070     0.000450     YES
 RMS     Force            0.000026     0.000300     YES
 Maximum Displacement     0.000070     0.001800     YES
 RMS     Displacement     0.000026     0.001200     YES
 Predicted change in Energy=-2.242510D-08
 Optimization completed.
    -- Stationary point found.
 GradGradGradGradGradGradGradGradGradGradGradGradGradGradGradGradGradGrad

                          Input orientation:                          
 ---------------------------------------------------------------------
 Center     Atomic     Atomic              Coordinates (Angstroms)
 Number     Number      Type              X           Y           Z
 ---------------------------------------------------------------------
    1          6      10061003        0.243993   -1.842429   -1.052774
    2          6      10061003        1.674678   -1.248817   -1.117090
    3          6      10061003        1.650131    0.301219   -1.105080
    4          6      10061003       -0.552480   -1.285455    0.156348
    5          6      10061003        0.845705    0.858184    0.099250
    6          6      10061003       -0.595413    0.269055    0.171428
    7          1      10011000        0.308536   -2.930694   -0.972856
    8          1      10011000       -0.289045   -1.606256   -1.978237
    9          1      10011000        2.169314   -1.595544   -2.028134
   10          1      10011000        2.255650   -1.608661   -0.262943
   11          1      10011000        1.203788    0.662856   -2.035992
   12          1      10011000        2.675570    0.677140   -1.058844
   13          1      10011000       -0.095206   -1.647681    1.082136
   14          1      10011000       -1.573841   -1.673878    0.116397
   15          1      10011000        0.795838    1.944996    0.004579
   16          1      10011000        1.377920    0.627078    1.026444
   17          1      10011000       -1.162587    0.595236   -0.708204
   18          8      10081003       -1.286032    0.661815    1.378955
   19          6      10061003       -1.791115    2.006842    1.440786
   20          1      10011000       -2.332673    2.123647    2.379391
   21          1      10011000       -0.982009    2.737788    1.422424
   22          1      10011000       -2.482536    2.205371    0.619453
 ---------------------------------------------------------------------
                    Distance matrix (angstroms):
                    1          2          3          4          5
     1  C    0.000000
     2  C    1.550281   0.000000
     3  C    2.564213   1.550277   0.000000
     4  C    1.551311   2.565778   2.993365   0.000000
     5  C    2.997087   2.570239   1.551684   2.559955   0.000000
     6  C    2.581015   3.019524   2.583211   1.555176   1.558558
     7  H    1.093102   2.171602   3.501803   2.173307   3.974111
     8  H    1.093795   2.173832   2.856793   2.174572   3.417173
     9  H    2.172359   1.093109   2.172392   3.503753   3.506920
    10  H    2.173763   1.093885   2.173359   2.857597   2.864342
    11  H    2.857338   2.172697   1.093893   3.418589   2.173853
    12  H    3.501547   2.171287   1.093150   3.968473   2.173100
    13  H    2.170443   2.850995   3.410033   1.094253   2.851445
    14  H    2.167923   3.500720   3.973287   1.093456   3.502261
    15  H    3.970783   3.497276   2.159435   3.503828   1.092066
    16  H    3.421609   2.863876   2.173402   2.853296   1.093778
    17  H    2.835385   3.408488   2.855755   2.157934   2.180449
    18  O    3.811236   4.318165   3.862837   2.413446   2.494094
    19  C    5.017608   5.399422   4.607902   3.744758   3.173634
    20  H    5.843691   6.297439   5.596919   4.442182   4.111267
    21  H    5.348652   5.422189   4.387859   4.239567   2.936705
    22  H    5.158971   5.677095   4.866081   4.015650   3.628044
                    6          7          8          9         10
     6  C    0.000000
     7  H    3.516376   0.000000
     8  H    2.869096   1.766927   0.000000
     9  H    3.994811   2.521653   2.458889   0.000000
    10  H    3.441374   2.458251   3.068829   1.767351   0.000000
    11  H    2.874876   3.852965   2.716755   2.456150   3.067558
    12  H    3.518442   4.315867   3.853326   2.522084   2.456558
    13  H    2.180246   2.456037   3.066785   3.847668   2.708742
    14  H    2.176083   2.511852   2.458203   4.314668   3.848786
    15  H    2.184536   4.996518   4.209503   4.307410   3.851116
    16  H    2.180201   4.218830   4.098129   3.859638   2.726070
    17  H    1.096281   3.829677   2.687494   4.200392   4.091426
    18  O    1.445454   4.580369   4.172393   5.351947   4.516016
    19  C    2.461885   5.883321   5.196191   6.379310   5.687782
    20  H    3.366405   6.615127   6.089130   7.316184   6.478021
    21  H    2.794475   6.287651   5.560163   6.372986   5.675784
    22  H    2.740671   6.058439   5.107630   6.564783   6.146207
                   11         12         13         14         15
    11  H    0.000000
    12  H    1.766681   0.000000
    13  H    4.092517   4.203069   0.000000
    14  H    4.219992   4.996596   1.766266   0.000000
    15  H    2.444225   2.504340   3.855180   4.327139   0.000000
    16  H    3.067592   2.456589   2.710670   3.851685   1.766333
    17  H    2.714282   3.855010   3.061911   2.449077   2.483010
    18  O    4.226236   4.651600   2.615327   2.670646   2.805289
    19  C    4.781603   5.288434   4.044784   3.917769   2.959534
    20  H    5.842609   6.244704   4.572969   4.485328   3.931822
    21  H    4.587341   4.876561   4.487154   4.638833   2.408224
    22  H    4.797888   5.635443   4.556251   4.015889   3.345684
                   16         17         18         19         20
    16  H    0.000000
    17  H    3.076393   0.000000
    18  O    2.687398   2.091866   0.000000
    19  C    3.481122   2.646854   1.438065   0.000000
    20  H    4.223586   3.638459   2.057494   1.089912   0.000000
    21  H    3.190793   3.026997   2.098568   1.090538   1.765573
    22  H    4.190437   2.469306   2.095478   1.091816   1.768196
                   21         22
    21  H    0.000000
    22  H    1.783202   0.000000
 Stoichiometry    C7H14O
 Framework group  C1[X(C7H14O)]
 Deg. of freedom    60
 Full point group                 C1
 Largest Abelian subgroup         C1      NOp   1
 Largest concise Abelian subgroup C1      NOp   1
                         Standard orientation:                         
 ---------------------------------------------------------------------
 Center     Atomic     Atomic              Coordinates (Angstroms)
 Number     Number      Type              X           Y           Z
 ---------------------------------------------------------------------
    1          6      10061003       -1.790071   -1.134024    0.290292
    2          6      10061003       -2.347532    0.227117   -0.199508
    3          6      10061003       -1.418647    1.401605    0.201875
    4          6      10061003       -0.331625   -1.360080   -0.187620
    5          6      10061003        0.042066    1.171171   -0.268167
    6          6      10061003        0.612712   -0.194070    0.221305
    7          1      10011000       -2.423691   -1.940297   -0.088286
    8          1      10011000       -1.823201   -1.167910    1.383060
    9          1      10011000       -3.339543    0.387400    0.230735
   10          1      10011000       -2.454178    0.205129   -1.287960
   11          1      10011000       -1.433993    1.519187    1.289322
   12          1      10011000       -1.797753    2.327276   -0.239021
   13          1      10011000       -0.326020   -1.470607   -1.276262
   14          1      10011000        0.041047   -2.293612    0.242824
   15          1      10011000        0.658003    1.987417    0.115204
   16          1      10011000        0.079591    1.208215   -1.360674
   17          1      10011000        0.677601   -0.186041    1.315635
   18          8      10081003        1.909748   -0.479803   -0.349124
   19          6      10061003        3.037694    0.229564    0.191770
   20          1      10011000        3.938406   -0.140384   -0.297887
   21          1      10011000        2.963480    1.300824    0.001593
   22          1      10011000        3.134678    0.054134    1.265027
 ---------------------------------------------------------------------
 Rotational constants (GHZ):      3.9043721      1.2971075      1.0489249
 1|1|UNPC-UNK|FOpt|Dreiding|ZDO|C7H14O1|PCUSER|13-Dec-2007|0||# opt dre
 iding||methoxycyclohexane-eq||0,1|C,0.2439926976,-1.8424290355,-1.0527
 741924|C,1.6746777563,-1.2488166981,-1.1170895137|C,1.6501313642,0.301
 2189973,-1.1050799015|C,-0.5524802328,-1.2854547765,0.1563479501|C,0.8
 457048406,0.8581839562,0.099250372|C,-0.5954132339,0.2690549243,0.1714
 277944|H,0.3085362876,-2.9306938043,-0.9728556598|H,-0.2890451463,-1.6
 062558504,-1.9782366333|H,2.1693141481,-1.5955436945,-2.0281342634|H,2
 .2556501481,-1.6086611943,-0.2629425091|H,1.2037884115,0.6628563014,-2
 .0359924385|H,2.6755695679,0.6771398581,-1.0588443482|H,-0.0952061821,
 -1.6476809368,1.0821358229|H,-1.5738406111,-1.6738784691,0.1163972726|
 H,0.7958384691,1.9449956783,0.004579261|H,1.3779199872,0.6270783935,1.
 026444004|H,-1.1625866833,0.5952363569,-0.7082041761|O,-1.2860318376,0
 .6618146249,1.3789548624|C,-1.7911154135,2.0068419663,1.4407855941|H,-
 2.3326725252,2.1236471197,2.3793908015|H,-0.9820087968,2.7377882733,1.
 4224240072|H,-2.4825355154,2.2053705094,0.6194533941||Version=IA32W-G0
 3RevD.01|HF=0.0266054|RMSD=0.000e+000|RMSF=2.607e-005|Thermal=0.|Dipol
 e=0.,0.,0.|PG=C01 [X(C7H14O1)]||@


 Until you make peace with who you are,
 you'll never be content with what you have.
                           -- Doris Mortman
 Job cpu time:  0 days  0 hours  0 minutes  3.0 seconds.
 File lengths (MBytes):  RWF=     11 Int=      0 D2E=      0 Chk=      4 Scr=      1
 Normal termination of Gaussian 03 at Thu Dec 13 16:06:22 2007.
