 Entering Link 1 = C:\G03W\l1.exe PID=      3016.
  
 Copyright (c) 1988,1990,1992,1993,1995,1998,2003,2004, Gaussian, Inc.
                  All Rights Reserved.
  
 This is the Gaussian(R) 03 program.  It is based on the
 the Gaussian(R) 98 system (copyright 1998, Gaussian, Inc.),
 the Gaussian(R) 94 system (copyright 1995, Gaussian, Inc.),
 the Gaussian 92(TM) system (copyright 1992, Gaussian, Inc.),
 the Gaussian 90(TM) system (copyright 1990, Gaussian, Inc.),
 the Gaussian 88(TM) system (copyright 1988, Gaussian, Inc.),
 the Gaussian 86(TM) system (copyright 1986, Carnegie Mellon
 University), and the Gaussian 82(TM) system (copyright 1983,
 Carnegie Mellon University). Gaussian is a federally registered
 trademark of Gaussian, Inc.
  
 This software contains proprietary and confidential information,
 including trade secrets, belonging to Gaussian, Inc.
  
 This software is provided under written license and may be
 used, copied, transmitted, or stored only in accord with that
 written license.
  
 The following legend is applicable only to US Government
 contracts under FAR:
  
                    RESTRICTED RIGHTS LEGEND
  
 Use, reproduction and disclosure by the US Government is
 subject to restrictions as set forth in subparagraphs (a)
 and (c) of the Commercial Computer Software - Restricted
 Rights clause in FAR 52.227-19.
  
 Gaussian, Inc.
 340 Quinnipiac St., Bldg. 40, Wallingford CT 06492
  
  
 ---------------------------------------------------------------
 Warning -- This program may not be used in any manner that
 competes with the business of Gaussian, Inc. or will provide
 assistance to any competitor of Gaussian, Inc.  The licensee
 of this program is prohibited from giving any competitor of
 Gaussian, Inc. access to this program.  By using this program,
 the user acknowledges that Gaussian, Inc. is engaged in the
 business of creating and licensing software in the field of
 computational chemistry and represents and warrants to the
 licensee that it is not a competitor of Gaussian, Inc. and that
 it will not use this program in any manner prohibited above.
 ---------------------------------------------------------------
  

 Cite this work as:
 Gaussian 03, Revision D.01,
 M. J. Frisch, G. W. Trucks, H. B. Schlegel, G. E. Scuseria, 
 M. A. Robb, J. R. Cheeseman, J. A. Montgomery, Jr., T. Vreven, 
 K. N. Kudin, J. C. Burant, J. M. Millam, S. S. Iyengar, J. Tomasi, 
 V. Barone, B. Mennucci, M. Cossi, G. Scalmani, N. Rega, 
 G. A. Petersson, H. Nakatsuji, M. Hada, M. Ehara, K. Toyota, 
 R. Fukuda, J. Hasegawa, M. Ishida, T. Nakajima, Y. Honda, O. Kitao, 
 H. Nakai, M. Klene, X. Li, J. E. Knox, H. P. Hratchian, J. B. Cross, 
 V. Bakken, C. Adamo, J. Jaramillo, R. Gomperts, R. E. Stratmann, 
 O. Yazyev, A. J. Austin, R. Cammi, C. Pomelli, J. W. Ochterski, 
 P. Y. Ayala, K. Morokuma, G. A. Voth, P. Salvador, J. J. Dannenberg, 
 V. G. Zakrzewski, S. Dapprich, A. D. Daniels, M. C. Strain, 
 O. Farkas, D. K. Malick, A. D. Rabuck, K. Raghavachari, 
 J. B. Foresman, J. V. Ortiz, Q. Cui, A. G. Baboul, S. Clifford, 
 J. Cioslowski, B. B. Stefanov, G. Liu, A. Liashenko, P. Piskorz, 
 I. Komaromi, R. L. Martin, D. J. Fox, T. Keith, M. A. Al-Laham, 
 C. Y. Peng, A. Nanayakkara, M. Challacombe, P. M. W. Gill, 
 B. Johnson, W. Chen, M. W. Wong, C. Gonzalez, and J. A. Pople, 
 Gaussian, Inc., Wallingford CT, 2004.
 
 ******************************************
 Gaussian 03:  IA32W-G03RevD.01 13-Oct-2005
                13-Dec-2007 
 ******************************************
 --------------
 # opt dreiding
 --------------
 1/6=10,10=10,14=-1,18=4000020,38=1,56=1,64=1/1,3;
 2/9=110,17=6,18=5,40=1/2;
 3/5=30,11=9,16=1,25=1,30=1/1;
 4/20=9,22=1001,24=3/2;
 7/44=-1/16;
 1/6=10,10=10,14=-1,18=4000020,64=1/3(2);
 2/9=110/2;
 99//99;
 2/9=110/2;
 3/5=30,11=9,16=1,25=1,30=1/1;
 4/16=2,20=9,22=1001,24=3/2;
 7/44=-1/16;
 1/6=10,10=10,14=-1,18=4000020,64=1/3(-4);
 2/9=110/2;
 99//99;
 --------------------
 methylcyclohexane-eq
 --------------------
 Symbolic Z-matrix:
 Charge =  0 Multiplicity = 1
 C                    -0.03732  -1.52021  -0.86396 
 C                     1.40368  -0.99321  -0.84796 
 C                     1.42068   0.54179  -0.86396 
 C                    -0.84132  -0.95021   0.31404 
 C                     0.61568   1.11079   0.31404 
 C                    -0.83132   0.58779   0.30404 
 H                    -0.03432  -2.63621  -0.81796 
 H                    -0.52832  -1.23421  -1.82396 
 H                     1.96468  -1.38921  -1.72796 
 H                     1.92568  -1.36221   0.06704 
 H                     0.98668   0.90979  -1.82396 
 H                     2.47368   0.91079  -0.81796 
 H                    -0.40532  -1.32021   1.27204 
 H                    -1.89232  -1.32521   0.26504 
 H                     0.61868   2.22579   0.26504 
 H                     1.10968   0.82279   1.27204 
 H                    -1.32432   0.93679  -0.63696 
 C                    -1.62732   1.15079   1.49304 
 H                    -1.18032   0.83479   2.46404 
 H                    -1.64632   2.26479   1.47404 
 H                    -2.68432   0.79679   1.47404 
 
 Include all MM classes
 MMInit generated parameter data with length LenPar=  2460.

 GradGradGradGradGradGradGradGradGradGradGradGradGradGradGradGradGradGrad
 Berny optimization.
 Initialization pass.
 No Z-matrix variables, so optimization will use Cartesian coordinates.
 Trust Radius=1.00D-01 FncErr=1.00D-07 GrdErr=1.00D-07
 Number of steps in this run=   2 maximum allowed number of steps=   2.
 GradGradGradGradGradGradGradGradGradGradGradGradGradGradGradGradGradGrad

                          Input orientation:                          
 ---------------------------------------------------------------------
 Center     Atomic     Atomic              Coordinates (Angstroms)
 Number     Number      Type              X           Y           Z
 ---------------------------------------------------------------------
    1          6      10061003       -0.037321   -1.520214   -0.863964
    2          6      10061003        1.403679   -0.993214   -0.847964
    3          6      10061003        1.420679    0.541786   -0.863964
    4          6      10061003       -0.841321   -0.950214    0.314036
    5          6      10061003        0.615679    1.110786    0.314036
    6          6      10061003       -0.831321    0.587786    0.304036
    7          1      10011000       -0.034321   -2.636214   -0.817964
    8          1      10011000       -0.528321   -1.234214   -1.823964
    9          1      10011000        1.964679   -1.389214   -1.727964
   10          1      10011000        1.925679   -1.362214    0.067036
   11          1      10011000        0.986679    0.909786   -1.823964
   12          1      10011000        2.473679    0.910786   -0.817964
   13          1      10011000       -0.405321   -1.320214    1.272036
   14          1      10011000       -1.892321   -1.325214    0.265036
   15          1      10011000        0.618679    2.225786    0.265036
   16          1      10011000        1.109679    0.822786    1.272036
   17          1      10011000       -1.324321    0.936786   -0.636964
   18          6      10061003       -1.627321    1.150786    1.493036
   19          1      10011000       -1.180321    0.834786    2.464036
   20          1      10011000       -1.646321    2.264786    1.474036
   21          1      10011000       -2.684321    0.796786    1.474036
 ---------------------------------------------------------------------
                    Distance matrix (angstroms):
                    1          2          3          4          5
     1  C    0.000000
     2  C    1.534427   0.000000
     3  C    2.525393   1.535178   0.000000
     4  C    1.535904   2.528264   2.954724   0.000000
     5  C    2.955715   2.529428   1.536057   2.523999   0.000000
     6  C    2.537385   2.970167   2.537291   1.538065   1.538648
     7  H    1.116952   2.183619   3.495544   2.185239   3.967863
     8  H    1.115561   2.177907   2.806132   2.179374   3.373248
     9  H    2.184413   1.116215   2.184306   3.498017   3.498509
    10  H    2.178324   1.116185   2.178762   2.808388   2.809420
    11  H    2.806257   2.178962   1.115966   3.372273   2.179240
    12  H    3.495282   2.184266   1.116730   3.966607   2.184854
    13  H    2.176676   2.806031   3.371026   1.115688   2.805346
    14  H    2.180296   3.494654   3.966900   1.116972   3.496650
    15  H    3.967051   3.495276   2.180298   3.495851   1.116080
    16  H    3.371610   2.806901   2.176736   2.804941   1.115681
    17  H    2.782939   3.348344   2.782549   2.167593   2.167551
    18  C    3.900999   4.389075   3.900850   2.534174   2.534303
    19  H    4.234154   4.581264   4.233986   2.814897   2.815012
    20  H    4.730893   5.030780   4.223915   3.511389   2.791766
    21  H    4.223901   5.030659   4.730993   2.791820   3.512007
                    6          7          8          9         10
     6  C    0.000000
     7  H    3.505463   0.000000
     8  H    2.817779   1.794903   0.000000
     9  H    3.981855   2.525690   2.499658   0.000000
    10  H    3.385221   2.499580   3.100707   1.795627   0.000000
    11  H    2.817302   3.824734   2.625254   2.500220   3.101546
    12  H    3.505173   4.344108   3.824273   2.525308   2.500012
    13  H    2.181505   2.497518   3.099636   3.823828   2.624376
    14  H    2.187878   2.518685   2.496537   4.341957   3.823310
    15  H    2.187936   5.023778   4.201325   4.341888   3.823767
    16  H    2.181681   4.200181   4.061959   3.824130   2.625282
    17  H    1.118182   3.803050   2.599197   4.173497   4.042712
    18  C    1.537630   4.713782   4.230664   5.452422   4.579569
    19  H    2.201911   4.912503   4.805498   5.692984   4.496627
    20  H    2.201239   5.645495   4.936571   6.053416   5.281473
    21  H    2.201406   4.905227   4.432843   6.053478   5.281385
                   11         12         13         14         15
    11  H    0.000000
    12  H    1.795329   0.000000
    13  H    4.061500   4.199298   0.000000
    14  H    4.200927   5.023399   1.795896   0.000000
    15  H    2.496237   2.518559   3.825799   4.349106   0.000000
    16  H    3.099664   2.497267   2.624438   3.826220   1.795422
    17  H    2.598157   3.802399   3.095624   2.500574   2.500075
    18  C    4.230079   4.713441   2.765496   2.776470   2.776351
    19  H    4.805045   4.912129   2.581766   3.163565   3.163366
    20  H    4.432326   4.905199   3.799093   3.796090   2.567767
    21  H    4.936174   5.645460   3.117103   2.567456   3.796516
                   16         17         18         19         20
    16  H    0.000000
    17  H    3.095421   0.000000
    18  C    2.765428   2.162060   0.000000
    19  H    2.581687   3.106017   1.114678   0.000000
    20  H    3.117002   2.514675   1.114324   1.800599   0.000000
    21  H    3.799463   2.515059   1.114866   1.800989   1.797907
                   21
    21  H    0.000000
 Stoichiometry    C7H14
 Framework group  C1[X(C7H14)]
 Deg. of freedom    57
 Full point group                 C1
 Largest Abelian subgroup         C1      NOp   1
 Largest concise Abelian subgroup C1      NOp   1
                         Standard orientation:                         
 ---------------------------------------------------------------------
 Center     Atomic     Atomic              Coordinates (Angstroms)
 Number     Number      Type              X           Y           Z
 ---------------------------------------------------------------------
    1          6      10061003        1.190310   -1.262530   -0.219225
    2          6      10061003        1.894290   -0.000139    0.295797
    3          6      10061003        1.189723    1.262863   -0.219160
    4          6      10061003       -0.293548   -1.261654    0.177216
    5          6      10061003       -0.294330    1.262344    0.177143
    6          6      10061003       -1.007659   -0.000246   -0.337119
    7          1      10011000        1.693038   -2.171913    0.190492
    8          1      10011000        1.279715   -1.312431   -1.330078
    9          1      10011000        2.962247    0.000666   -0.028866
   10          1      10011000        1.890683   -0.000090    1.411976
   11          1      10011000        1.278450    1.312823   -1.330471
   12          1      10011000        1.692018    2.172195    0.190597
   13          1      10011000       -0.378844   -1.312092    1.288495
   14          1      10011000       -0.789947   -2.174729   -0.232062
   15          1      10011000       -0.790854    2.174376   -0.231877
   16          1      10011000       -0.379637    1.312346    1.288434
   17          1      10011000       -0.960281    0.000127   -1.454296
   18          6      10061003       -2.489197   -0.000468    0.074403
   19          1      10011000       -2.600138   -0.000469    1.183546
   20          1      10011000       -3.017198    0.898039   -0.320084
   21          1      10011000       -3.016784   -0.899868   -0.320133
 ---------------------------------------------------------------------
 Rotational constants (GHZ):      4.1649277      2.1779508      1.5847233
 Standard basis: Dummy (5D, 7F)
 There are    21 symmetry adapted basis functions of A   symmetry.
 Integral buffers will be    262144 words long.
 Raffenetti 1 integral format.
 Two-electron integral symmetry is turned on.
    21 basis functions,    21 primitive gaussians,    21 cartesian basis functions
    14 alpha electrons       14 beta electrons
       nuclear repulsion energy        78.9989727423 Hartrees.
 NAtoms=   21 NActive=   21 NUniq=   21 SFac= 7.50D-01 NAtFMM=   80 NAOKFM=F Big=F
 Dreiding calculation of energy and first derivatives.
 MO and density RWFs will be updated without deorthogonalization.
 NRF= 0 NRA=   0 NVA=  21 HaveQM=F
 Convergence limit is  0.750E-04 MaxStp=  5000 StMxLn= 1.00D-04 StpMin= 1.00D-06.
 Convergence criteria           0.00011250 0.00007500 0.00045000 0.00030000
  Step  NS  ND Rises OKQ   Scale  Max. Force  RMS Force Max. Disp.  RMS Disp.     Energy   Flag
     1   0   0   F    T  1.00D+00 0.02878085 0.01159007 0.02878085 0.01159007    0.0281927 ----
     2   0   0   F    F  1.56D-01 0.02878085 0.01159007 0.02878085 0.01159007    0.0233962 ----
     3   0   0   F    T  5.12D+00 0.00855708 0.00255396 0.00882801 0.00261523    0.0233073 ----
     4   0   0   T    F  4.22D-01 0.00855708 0.00255396 0.04523172 0.01339954    0.0236956 ----
     5   0   0   F    T  2.73D+00 0.00389915 0.00171026 0.00468234 0.00207528    0.0228625 ----
     6   0   0   F    F -3.78D-02 0.00389915 0.00171026 0.01276973 0.00565973    0.0226212 ----
     7   0   0   F    T  3.26D+00 0.00356261 0.00124789 0.00483427 0.00166944    0.0226209 ----
     8   0   0   F    F -1.34D-01 0.00356261 0.00124789 0.01577003 0.00544594    0.0224856 ----
     9   0   0   F    T  2.86D+00 0.00413829 0.00107820 0.00530468 0.00165114    0.0224822 ----
    10   0   0   F    F  3.61D-01 0.00413829 0.00107820 0.01514856 0.00471515    0.0223500 ----
    11   0   0   F    T  2.26D+00 0.00431374 0.00132794 0.00793319 0.00284091    0.0223400 ----
    12   0   0   F    F  5.34D-01 0.00431374 0.00132794 0.01792496 0.00641900    0.0221707 ----
    13   0   0   F    T  5.89D+00 0.00221663 0.00092547 0.00389426 0.00167089    0.0221474 ----
    14   0   0   T    F  4.57D-01 0.00221663 0.00092547 0.02295381 0.00984867    0.0221774 ----
    15   0   0   F    T  5.16D+00 0.00123307 0.00057864 0.00258815 0.00087301    0.0220747 ----
    16   0   0   F    F -2.27D-01 0.00123307 0.00057864 0.01334454 0.00450127    0.0220362 ----
    17   0   0   F    T  2.60D+00 0.00180282 0.00066725 0.00390804 0.00133843    0.0220326 ----
    18   0   0   F    F  8.16D-01 0.00180282 0.00066725 0.01016563 0.00348154    0.0219798 ----
    19   0   0   F    T  6.20D+00 0.00145428 0.00053735 0.00228505 0.00102006    0.0219665 ----
    20   0   0   T    F  4.82D-01 0.00145428 0.00053735 0.01416252 0.00632224    0.0219707 ----
    21   0   0   F    T  3.50D+00 0.00142523 0.00045685 0.00220282 0.00086936    0.0219393 ----
    22   0   0   F    F -3.60D-01 0.00142523 0.00045685 0.00772058 0.00304700    0.0219292 ----
    23   0   0   F    T  4.13D+00 0.00101971 0.00029690 0.00130323 0.00047294    0.0219246 ----
    24   0   0   F    F -2.53D-02 0.00101971 0.00029690 0.00537782 0.00195160    0.0219134 ----
    25   0   0   F    T  2.20D+00 0.00125237 0.00038062 0.00233636 0.00086571    0.0219134 ----
    26   0   0   F    F  4.09D-01 0.00125237 0.00038062 0.00513376 0.00190225    0.0219005 ----
    27   0   0   F    T  5.42D+00 0.00101437 0.00026425 0.00134223 0.00049424    0.0218993 ----
    28   0   0   F    F -3.59D-01 0.00101437 0.00026425 0.00727893 0.00268026    0.0218940 ----
    29   0   0   F    T  2.48D+00 0.00113269 0.00029732 0.00197883 0.00069219    0.0218916 ----
    30   0   0   F    F  8.50D-01 0.00113269 0.00029732 0.00491208 0.00171825    0.0218816 ----
    31   0   0   F    T  5.33D+00 0.00069654 0.00026157 0.00160366 0.00059585    0.0218789 ----
    32   0   0   T    F  3.83D-01 0.00069654 0.00026157 0.00855495 0.00317862    0.0218859 ----
    33   0   0   F    T  6.02D+00 0.00036192 0.00013241 0.00063720 0.00020240    0.0218745 ---+
    34   0   0   F    F -1.13D-01 0.00036192 0.00013241 0.00383443 0.00121794    0.0218716 ----
    35   0   0   F    T  3.50D+00 0.00060951 0.00015231 0.00103489 0.00030811    0.0218715 ----
    36   0   0   T    F  4.92D-01 0.00060951 0.00015231 0.00362710 0.00107988    0.0218716 ----
    37   0   0   F    T  6.84D+00 0.00018515 0.00006053 0.00020796 0.00007766    0.0218702 -+++
    38   0   0   F    F  1.29D-01 0.00018515 0.00006053 0.00142206 0.00053108    0.0218694 -+--
    39   0   0   F    T  1.92D+00 0.00030956 0.00011675 0.00085071 0.00031169    0.0218694 ----
    40   0   0   F    F  1.85D-01 0.00030956 0.00011675 0.00163681 0.00059971    0.0218684 ----
    41   0   0   F    T  7.98D+00 0.00016318 0.00005526 0.00022747 0.00008902    0.0218684 -+++
    42   0   0   T    F  3.95D-01 0.00016318 0.00005526 0.00181543 0.00071047    0.0218688 -+--
    43   0   0   F    T  5.11D+00 0.00010620 0.00003723 0.00012102 0.00005494    0.0218681 ====
 Energy=    0.021868072864 NIter=   0.
 Dipole moment=       0.000000       0.000000       0.000000
 ***** Axes restored to original set *****
 -------------------------------------------------------------------
 Center     Atomic                   Forces (Hartrees/Bohr)
 Number     Number              X              Y              Z
 -------------------------------------------------------------------
    1          6          -0.000009329   -0.000000836    0.000005114
    2          6           0.000062848    0.000011368   -0.000025195
    3          6           0.000044240   -0.000045608   -0.000057941
    4          6           0.000005639   -0.000016374   -0.000017672
    5          6           0.000008330   -0.000035716   -0.000057708
    6          6          -0.000069513    0.000042987    0.000049318
    7          1           0.000017848   -0.000045433   -0.000004626
    8          1           0.000014184   -0.000053318   -0.000039776
    9          1           0.000029318   -0.000021760   -0.000002428
   10          1          -0.000093206    0.000060767   -0.000051629
   11          1           0.000050798    0.000003447   -0.000009391
   12          1           0.000020401   -0.000004745    0.000006885
   13          1          -0.000006181    0.000012503    0.000021925
   14          1           0.000033059    0.000066386    0.000060081
   15          1          -0.000053904   -0.000012957    0.000069471
   16          1          -0.000000482    0.000003091    0.000054171
   17          1          -0.000042618    0.000030606   -0.000027180
   18          6           0.000007487   -0.000016099    0.000064126
   19          1           0.000017249   -0.000011130   -0.000024755
   20          1          -0.000043182   -0.000015104   -0.000004907
   21          1           0.000007014    0.000047923   -0.000007883
 -------------------------------------------------------------------
 Cartesian Forces:  Max     0.000093206 RMS     0.000037227

 GradGradGradGradGradGradGradGradGradGradGradGradGradGradGradGradGradGrad
 Berny optimization.
 Search for a local minimum.
 Step number   1 out of a maximum of   2
 All quantities printed in internal units (Hartrees-Bohrs-Radians)
 Second derivative matrix not updated -- unit matrix used.
 RFO step:  Lambda=-8.73103207D-08.
 Linear search not attempted -- first point.
 TrRot=  0.000000  0.000000  0.000000  0.000000  0.000000  0.000000
 Variable       Old X    -DE/DX   Delta X   Delta X   Delta X     New X
                                 (Linear)    (Quad)   (Total)
    X1       -0.06411  -0.00001   0.00000  -0.00001  -0.00001  -0.06412
    Y1       -2.92405   0.00000   0.00000   0.00000   0.00000  -2.92405
    Z1       -1.63081   0.00001   0.00000   0.00001   0.00001  -1.63080
    X2        2.67926   0.00006   0.00000   0.00006   0.00006   2.67932
    Y2       -1.89470   0.00001   0.00000   0.00001   0.00001  -1.89468
    Z2       -1.64773  -0.00003   0.00000  -0.00003  -0.00003  -1.64775
    X3        2.73521   0.00004   0.00000   0.00004   0.00004   2.73526
    Y3        1.03506  -0.00005   0.00000  -0.00005  -0.00005   1.03501
    Z3       -1.63081  -0.00006   0.00000  -0.00006  -0.00006  -1.63087
    X4       -1.62775   0.00001   0.00000   0.00001   0.00001  -1.62774
    Y4       -1.82091  -0.00002   0.00000  -0.00002  -0.00002  -1.82093
    Z4        0.59081  -0.00002   0.00000  -0.00002  -0.00002   0.59079
    X5        1.17407   0.00001   0.00000   0.00001   0.00001   1.17408
    Y5        2.14165  -0.00004   0.00000  -0.00004  -0.00004   2.14162
    Z5        0.59077  -0.00006   0.00000  -0.00006  -0.00006   0.59071
    X6       -1.59322  -0.00007   0.00000  -0.00007  -0.00007  -1.59329
    Y6        1.12653   0.00004   0.00000   0.00004   0.00004   1.12657
    Z6        0.61251   0.00005   0.00000   0.00005   0.00005   0.61256
    X7       -0.01772   0.00002   0.00000   0.00002   0.00002  -0.01770
    Y7       -4.98345  -0.00005   0.00000  -0.00005  -0.00005  -4.98350
    Z7       -1.47626   0.00000   0.00000   0.00000   0.00000  -1.47627
    X8       -0.98506   0.00001   0.00000   0.00001   0.00001  -0.98504
    Y8       -2.44558  -0.00005   0.00000  -0.00005  -0.00005  -2.44563
    Z8       -3.41849  -0.00004   0.00000  -0.00004  -0.00004  -3.41853
    X9        3.65615   0.00003   0.00000   0.00003   0.00003   3.65618
    Y9       -2.58544  -0.00002   0.00000  -0.00002  -0.00002  -2.58546
    Z9       -3.33164   0.00000   0.00000   0.00000   0.00000  -3.33164
   X10        3.69045  -0.00009   0.00000  -0.00009  -0.00009   3.69036
   Y10       -2.60960   0.00006   0.00000   0.00006   0.00006  -2.60954
   Z10        0.00778  -0.00005   0.00000  -0.00005  -0.00005   0.00773
   X11        1.97721   0.00005   0.00000   0.00005   0.00005   1.97726
   Y11        1.74368   0.00000   0.00000   0.00000   0.00000   1.74368
   Z11       -3.41869  -0.00001   0.00000  -0.00001  -0.00001  -3.41870
   X12        4.69243   0.00002   0.00000   0.00002   0.00002   4.69245
   Y12        1.67772   0.00000   0.00000   0.00000   0.00000   1.67772
   Z12       -1.47651   0.00001   0.00000   0.00001   0.00001  -1.47651
   X13       -0.86284  -0.00001   0.00000  -0.00001  -0.00001  -0.86285
   Y13       -2.54204   0.00001   0.00000   0.00001   0.00001  -2.54203
   Z13        2.37139   0.00002   0.00000   0.00002   0.00002   2.37141
   X14       -3.57554   0.00003   0.00000   0.00003   0.00003  -3.57551
   Y14       -2.49153   0.00007   0.00000   0.00007   0.00007  -2.49146
   Z14        0.42269   0.00006   0.00000   0.00006   0.00006   0.42275
   X15        1.15707  -0.00005   0.00000  -0.00005  -0.00005   1.15702
   Y15        4.20144  -0.00001   0.00000  -0.00001  -0.00001   4.20143
   Z15        0.42239   0.00007   0.00000   0.00007   0.00007   0.42246
   X16        2.10897   0.00000   0.00000   0.00000   0.00000   2.10897
   Y16        1.66090   0.00000   0.00000   0.00000   0.00000   1.66090
   Z16        2.37121   0.00005   0.00000   0.00005   0.00005   2.37126
   X17       -2.52815  -0.00004   0.00000  -0.00004  -0.00004  -2.52819
   Y17        1.78755   0.00003   0.00000   0.00003   0.00003   1.78758
   Z17       -1.11226  -0.00003   0.00000  -0.00003  -0.00003  -1.11229
   X18       -3.11272   0.00001   0.00000   0.00001   0.00001  -3.11271
   Y18        2.20105  -0.00002   0.00000  -0.00002  -0.00002   2.20103
   Z18        2.88017   0.00006   0.00000   0.00006   0.00006   2.88023
   X19       -2.27465   0.00002   0.00000   0.00002   0.00002  -2.27463
   Y19        1.60862  -0.00001   0.00000  -0.00001  -0.00001   1.60861
   Z19        4.67073  -0.00002   0.00000  -0.00002  -0.00002   4.67071
   X20       -3.13522  -0.00004   0.00000  -0.00004  -0.00004  -3.13527
   Y20        4.26350  -0.00002   0.00000  -0.00002  -0.00002   4.26348
   Z20        2.81346   0.00000   0.00000   0.00000   0.00000   2.81345
   X21       -5.06469   0.00001   0.00000   0.00001   0.00001  -5.06468
   Y21        1.53462   0.00005   0.00000   0.00005   0.00005   1.53467
   Z21        2.81370  -0.00001   0.00000  -0.00001  -0.00001   2.81369
         Item               Value     Threshold  Converged?
 Maximum Force            0.000093     0.000450     YES
 RMS     Force            0.000037     0.000300     YES
 Maximum Displacement     0.000093     0.001800     YES
 RMS     Displacement     0.000037     0.001200     YES
 Predicted change in Energy=-4.365515D-08
 Optimization completed.
    -- Stationary point found.
 GradGradGradGradGradGradGradGradGradGradGradGradGradGradGradGradGradGrad

                          Input orientation:                          
 ---------------------------------------------------------------------
 Center     Atomic     Atomic              Coordinates (Angstroms)
 Number     Number      Type              X           Y           Z
 ---------------------------------------------------------------------
    1          6      10061003       -0.033925   -1.547341   -0.862987
    2          6      10061003        1.417803   -1.002630   -0.871940
    3          6      10061003        1.447412    0.547729   -0.862990
    4          6      10061003       -0.861368   -0.963585    0.312641
    5          6      10061003        0.621290    1.133314    0.312620
    6          6      10061003       -0.843098    0.596132    0.324125
    7          1      10011000       -0.009375   -2.637128   -0.781204
    8          1      10011000       -0.521270   -1.294146   -1.808989
    9          1      10011000        1.934754   -1.368154   -1.763029
   10          1      10011000        1.952902   -1.380941    0.004118
   11          1      10011000        1.046295    0.922715   -1.809094
   12          1      10011000        2.483127    0.887812   -0.781337
   13          1      10011000       -0.456597   -1.345189    1.254885
   14          1      10011000       -1.892097   -1.318458    0.223676
   15          1      10011000        0.612296    2.223308    0.223518
   16          1      10011000        1.116020    0.878909    1.254789
   17          1      10011000       -1.337840    0.945931   -0.588582
   18          6      10061003       -1.647179    1.164744    1.524120
   19          1      10011000       -1.203692    0.851245    2.471646
   20          1      10011000       -1.659088    2.256145    1.488816
   21          1      10011000       -2.680119    0.812087    1.488946
 ---------------------------------------------------------------------
                    Distance matrix (angstroms):
                    1          2          3          4          5
     1  C    0.000000
     2  C    1.550582   0.000000
     3  C    2.565868   1.550667   0.000000
     4  C    1.551624   2.568926   2.999441   0.000000
     5  C    2.999545   2.569022   1.551595   2.568124   0.000000
     6  C    2.580402   3.016336   2.580314   1.559867   1.559849
     7  H    1.093128   2.171786   3.503175   2.173278   3.976233
     8  H    1.093860   2.173256   2.857118   2.173994   3.420414
     9  H    2.172068   1.093108   2.172137   3.505764   3.505831
    10  H    2.174176   1.094042   2.174205   2.861729   2.861791
    11  H    2.857126   2.173300   1.093903   3.420390   2.174087
    12  H    3.503168   2.171841   1.093174   3.976192   2.173349
    13  H    2.169078   2.855539   3.419617   1.094205   2.862286
    14  H    2.164723   3.500794   3.976910   1.093733   3.512295
    15  H    3.976919   3.500792   2.164597   3.512252   1.093666
    16  H    3.419654   2.855562   2.168983   2.862253   1.094148
    17  H    2.826995   3.386850   2.826923   2.164597   2.164595
    18  C    3.956801   4.453395   3.956702   2.571957   2.571900
    19  H    4.270990   4.635586   4.270863   2.841144   2.841041
    20  H    4.758008   5.065574   4.254412   3.519433   2.800770
    21  H    4.254507   5.065564   4.757940   2.800813   3.519408
                    6          7          8          9         10
     6  C    0.000000
     7  H    3.517218   0.000000
     8  H    2.868257   1.766912   0.000000
     9  H    3.991377   2.520697   2.457568   0.000000
    10  H    3.439308   2.458713   3.068618   1.767286   0.000000
    11  H    2.868290   3.852725   2.715093   2.457552   3.068633
    12  H    3.517228   4.317149   3.852714   2.520678   2.458723
    13  H    2.187333   2.452504   3.064981   3.850570   2.715028
    14  H    2.185440   2.508648   2.451832   4.312105   3.851769
    15  H    2.185405   5.001978   4.217646   4.312060   3.851749
    16  H    2.187290   4.215958   4.097513   3.850563   2.715045
    17  H    1.095520   3.826256   2.678456   4.176624   4.073649
    18  C    1.552370   4.738265   4.292251   5.481894   4.663850
    19  H    2.192477   4.916928   4.836552   5.719095   4.586441
    20  H    2.185861   5.640804   4.977421   6.051920   5.336591
    21  H    2.185884   4.917676   4.469141   6.051928   5.336569
                   11         12         13         14         15
    11  H    0.000000
    12  H    1.766915   0.000000
    13  H    4.097565   4.215977   0.000000
    14  H    4.217720   5.002025   1.767701   0.000000
    15  H    2.451817   2.508642   3.865283   4.337752   0.000000
    16  H    3.064989   2.452522   2.723919   3.865279   1.767672
    17  H    2.678486   3.826267   3.069884   2.468688   2.468650
    18  C    4.292283   4.738274   2.791010   2.813794   2.813778
    19  H    4.836557   4.916896   2.619729   3.199201   3.199132
    20  H    4.469155   4.917710   3.803987   3.799035   2.600240
    21  H    4.977496   5.640835   3.106875   2.600214   3.799059
                   16         17         18         19         20
    16  H    0.000000
    17  H    3.069843   0.000000
    18  C    2.790969   2.146410   0.000000
    19  H    2.619651   3.064630   1.092139   0.000000
    20  H    3.106891   2.476983   1.092037   1.774002   0.000000
    21  H    3.803940   2.477044   1.092049   1.773998   1.768561
                   21
    21  H    0.000000
 Stoichiometry    C7H14
 Framework group  C1[X(C7H14)]
 Deg. of freedom    57
 Full point group                 C1
 Largest Abelian subgroup         C1      NOp   1
 Largest concise Abelian subgroup C1      NOp   1
                         Standard orientation:                         
 ---------------------------------------------------------------------
 Center     Atomic     Atomic              Coordinates (Angstroms)
 Number     Number      Type              X           Y           Z
 ---------------------------------------------------------------------
    1          6      10061003        1.206201   -1.282905   -0.209014
    2          6      10061003        1.923316    0.000019    0.285108
    3          6      10061003        1.206041    1.282962   -0.208999
    4          6      10061003       -0.298636   -1.284060    0.169139
    5          6      10061003       -0.298767    1.284065    0.169151
    6          6      10061003       -1.029357   -0.000022   -0.331338
    7          1      10011000        1.689963   -2.158532    0.231645
    8          1      10011000        1.306030   -1.357510   -1.295751
    9          1      10011000        2.954030    0.000078   -0.078916
   10          1      10011000        1.954702    0.000042    1.378700
   11          1      10011000        1.305996    1.357583   -1.295767
   12          1      10011000        1.689877    2.158616    0.231639
   13          1      10011000       -0.390804   -1.361973    1.256668
   14          1      10011000       -0.767950   -2.168910   -0.270218
   15          1      10011000       -0.768028    2.168842   -0.270246
   16          1      10011000       -0.390887    1.361946    1.256629
   17          1      10011000       -0.999241   -0.000024   -1.426444
   18          6      10061003       -2.525479   -0.000053    0.082753
   19          1      10011000       -2.626995   -0.000008    1.170164
   20          1      10011000       -3.028327    0.884187   -0.314496
   21          1      10011000       -3.028288   -0.884374   -0.314400
 ---------------------------------------------------------------------
 Rotational constants (GHZ):      4.0934683      2.1328460      1.5434040
 1|1|UNPC-UNK|FOpt|Dreiding|ZDO|C7H14|PCUSER|13-Dec-2007|0||# opt dreid
 ing||methylcyclohexane-eq||0,1|C,-0.0339250959,-1.5473409134,-0.862987
 4286|C,1.4178028894,-1.0026298434,-0.8719399787|C,1.4474119902,0.54772
 89569,-0.8629896795|C,-0.8613684113,-0.9635849565,0.3126412891|C,0.621
 2901272,1.1333142569,0.3126201953|C,-0.8430980002,0.5961324094,0.32412
 51254|H,-0.009375285,-2.6371284855,-0.7812037652|H,-0.5212695735,-1.29
 41459898,-1.8089885002|H,1.934753699,-1.3681539794,-1.763028671|H,1.95
 29018727,-1.380941444,0.004118271|H,1.0462946811,0.9227154184,-1.80909
 42663|H,2.4831265485,0.887812086,-0.7813365203|H,-0.4565966396,-1.3451
 885339,1.2548850722|H,-1.892096793,-1.3184584131,0.22367559|H,0.612296
 4436,2.2233075817,0.2235184857|H,1.1160197435,0.8789090128,1.254788539
 1|H,-1.3378402506,0.9459310845,-0.5885819237|C,-1.6471785617,1.1647442
 238,1.5241197551|H,-1.2036921514,0.85124544,2.4716461325|H,-1.65908838
 08,2.2561450908,1.4888164371|H,-2.6801188821,0.8120869078,1.4889457507
 ||Version=IA32W-G03RevD.01|HF=0.0218681|RMSD=0.000e+000|RMSF=3.723e-00
 5|Thermal=0.|Dipole=0.,0.,0.|PG=C01 [X(C7H14)]||@


 Until you make peace with who you are,
 you'll never be content with what you have.
                           -- Doris Mortman
 Job cpu time:  0 days  0 hours  0 minutes  2.0 seconds.
 File lengths (MBytes):  RWF=     11 Int=      0 D2E=      0 Chk=      4 Scr=      1
 Normal termination of Gaussian 03 at Thu Dec 13 16:06:28 2007.
