 Entering Link 1 = C:\G03W\l1.exe PID=      3836.
  
 Copyright (c) 1988,1990,1992,1993,1995,1998,2003,2004, Gaussian, Inc.
                  All Rights Reserved.
  
 This is the Gaussian(R) 03 program.  It is based on the
 the Gaussian(R) 98 system (copyright 1998, Gaussian, Inc.),
 the Gaussian(R) 94 system (copyright 1995, Gaussian, Inc.),
 the Gaussian 92(TM) system (copyright 1992, Gaussian, Inc.),
 the Gaussian 90(TM) system (copyright 1990, Gaussian, Inc.),
 the Gaussian 88(TM) system (copyright 1988, Gaussian, Inc.),
 the Gaussian 86(TM) system (copyright 1986, Carnegie Mellon
 University), and the Gaussian 82(TM) system (copyright 1983,
 Carnegie Mellon University). Gaussian is a federally registered
 trademark of Gaussian, Inc.
  
 This software contains proprietary and confidential information,
 including trade secrets, belonging to Gaussian, Inc.
  
 This software is provided under written license and may be
 used, copied, transmitted, or stored only in accord with that
 written license.
  
 The following legend is applicable only to US Government
 contracts under FAR:
  
                    RESTRICTED RIGHTS LEGEND
  
 Use, reproduction and disclosure by the US Government is
 subject to restrictions as set forth in subparagraphs (a)
 and (c) of the Commercial Computer Software - Restricted
 Rights clause in FAR 52.227-19.
  
 Gaussian, Inc.
 340 Quinnipiac St., Bldg. 40, Wallingford CT 06492
  
  
 ---------------------------------------------------------------
 Warning -- This program may not be used in any manner that
 competes with the business of Gaussian, Inc. or will provide
 assistance to any competitor of Gaussian, Inc.  The licensee
 of this program is prohibited from giving any competitor of
 Gaussian, Inc. access to this program.  By using this program,
 the user acknowledges that Gaussian, Inc. is engaged in the
 business of creating and licensing software in the field of
 computational chemistry and represents and warrants to the
 licensee that it is not a competitor of Gaussian, Inc. and that
 it will not use this program in any manner prohibited above.
 ---------------------------------------------------------------
  

 Cite this work as:
 Gaussian 03, Revision D.01,
 M. J. Frisch, G. W. Trucks, H. B. Schlegel, G. E. Scuseria, 
 M. A. Robb, J. R. Cheeseman, J. A. Montgomery, Jr., T. Vreven, 
 K. N. Kudin, J. C. Burant, J. M. Millam, S. S. Iyengar, J. Tomasi, 
 V. Barone, B. Mennucci, M. Cossi, G. Scalmani, N. Rega, 
 G. A. Petersson, H. Nakatsuji, M. Hada, M. Ehara, K. Toyota, 
 R. Fukuda, J. Hasegawa, M. Ishida, T. Nakajima, Y. Honda, O. Kitao, 
 H. Nakai, M. Klene, X. Li, J. E. Knox, H. P. Hratchian, J. B. Cross, 
 V. Bakken, C. Adamo, J. Jaramillo, R. Gomperts, R. E. Stratmann, 
 O. Yazyev, A. J. Austin, R. Cammi, C. Pomelli, J. W. Ochterski, 
 P. Y. Ayala, K. Morokuma, G. A. Voth, P. Salvador, J. J. Dannenberg, 
 V. G. Zakrzewski, S. Dapprich, A. D. Daniels, M. C. Strain, 
 O. Farkas, D. K. Malick, A. D. Rabuck, K. Raghavachari, 
 J. B. Foresman, J. V. Ortiz, Q. Cui, A. G. Baboul, S. Clifford, 
 J. Cioslowski, B. B. Stefanov, G. Liu, A. Liashenko, P. Piskorz, 
 I. Komaromi, R. L. Martin, D. J. Fox, T. Keith, M. A. Al-Laham, 
 C. Y. Peng, A. Nanayakkara, M. Challacombe, P. M. W. Gill, 
 B. Johnson, W. Chen, M. W. Wong, C. Gonzalez, and J. A. Pople, 
 Gaussian, Inc., Wallingford CT, 2004.
 
 ******************************************
 Gaussian 03:  IA32W-G03RevD.01 13-Oct-2005
                02-Apr-2008 
 ******************************************
 ---------
 # opt uff
 ---------
 1/6=10,10=10,14=-1,18=4000020,38=1,56=1,64=2/1,3;
 2/9=110,17=6,18=5,40=1/2;
 3/5=30,11=9,16=1,25=1,30=1/1;
 4/20=10,22=1001,24=3/2;
 7/44=-1/16;
 1/6=10,10=10,14=-1,18=4000020,64=2/3(2);
 2/9=110/2;
 99//99;
 2/9=110/2;
 3/5=30,11=9,16=1,25=1,30=1/1;
 4/16=2,20=10,22=1001,24=3/2;
 7/44=-1/16;
 1/6=10,10=10,14=-1,18=4000020,64=2/3(-4);
 2/9=110/2;
 99//99;
 -------------------------
 1-4-diCl-cyclohexane-dieq
 -------------------------
 Symbolic Z-matrix:
 Charge =  0 Multiplicity = 1
 C                    -1.1135   -0.7626   -0.60869 
 C                    -1.0925    0.7724   -0.62469 
 C                     0.3485    1.3034   -0.60869 
 C                    -0.3485   -1.3036    0.60931 
 C                     1.0925   -0.7726    0.62431 
 C                     1.1135    0.7634    0.60931 
 H                    -0.6415   -1.1576   -1.54069 
 H                    -2.1655   -1.1366   -0.58469 
 H                    -1.6485    1.1654    0.26031 
 H                     0.3505    2.4204   -0.58469 
 H                     0.8785    0.9904   -1.54069 
 H                    -0.3505   -2.4206    0.58531 
 H                    -0.8785   -0.9906    1.54031 
 H                     1.6485   -1.1656   -0.25969 
 H                     2.1655    1.1374    0.58531 
 H                     0.6415    1.1584    1.54031 
 Cl                   -1.9765    1.3974   -2.06969 
 Cl                    1.9765   -1.3976    2.06931 
 
 Include all MM classes
 MMInit generated parameter data with length LenPar=  2201.

 GradGradGradGradGradGradGradGradGradGradGradGradGradGradGradGradGradGrad
 Berny optimization.
 Initialization pass.
 No Z-matrix variables, so optimization will use Cartesian coordinates.
 Trust Radius=1.00D-01 FncErr=1.00D-07 GrdErr=1.00D-07
 Number of steps in this run=   2 maximum allowed number of steps=   2.
 GradGradGradGradGradGradGradGradGradGradGradGradGradGradGradGradGradGrad

                          Input orientation:                          
 ---------------------------------------------------------------------
 Center     Atomic     Atomic              Coordinates (Angstroms)
 Number     Number      Type              X           Y           Z
 ---------------------------------------------------------------------
    1          6      10061003       -1.113500   -0.762600   -0.608688
    2          6      10061003       -1.092500    0.772400   -0.624688
    3          6      10061003        0.348500    1.303400   -0.608688
    4          6      10061003       -0.348500   -1.303600    0.609313
    5          6      10061003        1.092500   -0.772600    0.624313
    6          6      10061003        1.113500    0.763400    0.609313
    7          1      10011000       -0.641500   -1.157600   -1.540688
    8          1      10011000       -2.165500   -1.136600   -0.584688
    9          1      10011000       -1.648500    1.165400    0.260313
   10          1      10011000        0.350500    2.420400   -0.584688
   11          1      10011000        0.878500    0.990400   -1.540688
   12          1      10011000       -0.350500   -2.420600    0.585313
   13          1      10011000       -0.878500   -0.990600    1.540313
   14          1      10011000        1.648500   -1.165600   -0.259688
   15          1      10011000        2.165500    1.137400    0.585313
   16          1      10011000        0.641500    1.158400    1.540313
   17         17      10171000       -1.976500    1.397400   -2.069688
   18         17      10171000        1.976500   -1.397600    2.069313
 ---------------------------------------------------------------------
                    Distance matrix (angstroms):
                    1          2          3          4          5
     1  C    0.000000
     2  C    1.535227   0.000000
     3  C    2.530968   1.535805   0.000000
     4  C    1.536695   2.527067   2.960706   0.000000
     5  C    2.527217   2.953176   2.526579   1.535795   0.000000
     6  C    2.961710   2.527701   1.536343   2.531785   1.536217
     7  H    1.116885   2.183428   2.811627   2.174779   2.800394
     8  H    1.116761   2.190253   3.503480   2.180599   3.494101
     9  H    2.181415   1.116606   2.182250   2.812074   3.376599
    10  H    3.503621   2.190834   1.117260   3.972709   3.493922
    11  H    2.812418   2.184358   1.116912   3.374976   2.800212
    12  H    2.181002   3.494269   3.972709   1.117260   2.190816
    13  H    2.173801   2.800212   3.374339   1.116078   2.184358
    14  H    2.812980   3.376707   2.812074   2.182250   1.115814
    15  H    3.973346   3.494551   2.180523   3.504177   2.191107
    16  H    3.374680   2.800532   2.173724   2.812171   2.184312
    17  Cl   2.746796   1.805576   2.747541   4.137974   4.624424
    18  Cl   4.137996   4.624424   4.137326   2.747009   1.805576
                    6          7          8          9         10
     6  C    0.000000
     7  H    3.375317   0.000000
     8  H    3.973346   1.799153   0.000000
     9  H    2.812836   3.107085   2.506096   0.000000
    10  H    2.180242   3.834069   4.356892   2.507000   0.000000
    11  H    2.174685   2.631407   3.834580   3.108047   1.799339
    12  H    3.504530   2.489925   2.512326   3.827509   5.029471
    13  H    2.812711   3.094611   2.488636   2.622906   4.202498
    14  H    2.182299   2.623952   3.827932   4.071139   3.827509
    15  H    1.116761   4.203112   5.029666   3.827924   2.511815
    16  H    1.116051   4.062328   4.202606   2.623461   2.488564
    17  Cl   4.138490   2.930886   2.943145   2.364383   2.943923
    18  Cl   2.747051   4.465828   4.926256   4.793962   4.925923
                   11         12         13         14         15
    11  H    0.000000
    12  H    4.203003   0.000000
    13  H    4.062508   1.798808   0.000000
    14  H    2.623394   2.507000   3.107467   0.000000
    15  H    2.489549   4.357708   3.834885   2.507015   0.000000
    16  H    3.094665   3.834753   2.632224   3.107254   1.798622
    17  Cl   2.931981   4.926462   4.465450   4.794340   4.926742
    18  Cl   4.465450   2.943419   2.931981   2.363398   2.943502
                   16         17         18
    16  H    0.000000
    17  Cl   4.465775   0.000000
    18  Cl   2.931757   6.369423   0.000000
 Stoichiometry    C6H10Cl2
 Framework group  C1[X(C6H10Cl2)]
 Deg. of freedom    48
 Full point group                 C1
 Largest Abelian subgroup         C1      NOp   1
 Largest concise Abelian subgroup C1      NOp   1
                         Standard orientation:                         
 ---------------------------------------------------------------------
 Center     Atomic     Atomic              Coordinates (Angstroms)
 Number     Number      Type              X           Y           Z
 ---------------------------------------------------------------------
    1          6      10061003       -0.749944   -1.265464   -0.167709
    2          6      10061003       -1.427808   -0.000058    0.376507
    3          6      10061003       -0.749076    1.265504   -0.167895
    4          6      10061003        0.749565   -1.265667    0.168302
    5          6      10061003        1.427657   -0.000105   -0.376869
    6          6      10061003        0.749989    1.266117    0.168485
    7          1      10011000       -0.875232   -1.315288   -1.276426
    8          1      10011000       -1.228668   -2.178242    0.262192
    9          1      10011000       -1.384415   -0.000360    1.492269
   10          1      10011000       -1.227866    2.178649    0.262448
   11          1      10011000       -0.874347    1.316119   -1.276606
   12          1      10011000        1.228355   -2.178813   -0.262041
   13          1      10011000        0.874195   -1.316282    1.276244
   14          1      10011000        1.384903    0.000197   -1.491863
   15          1      10011000        1.228713    2.178895   -0.261416
   16          1      10011000        0.874637    1.315942    1.276434
   17         17      10171000       -3.184530    0.000056   -0.040666
   18         17      10171000        3.184379   -0.000219    0.040304
 ---------------------------------------------------------------------
 Rotational constants (GHZ):      4.2391712      0.6205865      0.5608094
 Standard basis: Dummy (5D, 7F)
 There are    18 symmetry adapted basis functions of A   symmetry.
 Integral buffers will be    262144 words long.
 Raffenetti 1 integral format.
 Two-electron integral symmetry is turned on.
    18 basis functions,    18 primitive gaussians,    18 cartesian basis functions
    12 alpha electrons       12 beta electrons
       nuclear repulsion energy        59.7714632740 Hartrees.
 NAtoms=   18 NActive=   18 NUniq=   18 SFac= 7.50D-01 NAtFMM=   80 NAOKFM=F Big=F
 UFF calculation of energy and first derivatives.
 MO and density RWFs will be updated without deorthogonalization.
 NRF= 0 NRA=   0 NVA=  18 HaveQM=F
 Convergence limit is  0.750E-04 MaxStp=  5000 StMxLn= 1.00D-04 StpMin= 1.00D-06.
 Convergence criteria           0.00011250 0.00007500 0.00045000 0.00030000
  Step  NS  ND Rises OKQ   Scale  Max. Force  RMS Force Max. Disp.  RMS Disp.     Energy   Flag
     1   0   0   F    T  1.00D+00 0.01480312 0.00411243 0.01480312 0.00411243    0.0118052 ----
     2   0   0   F    F  2.53D-01 0.01480312 0.00411243 0.01480312 0.00411243    0.0112567 ----
     3   0   0   F    T  3.21D+00 0.00357960 0.00150734 0.00498467 0.00160540    0.0112335 ----
     4   0   0   F    F -2.63D-01 0.00357960 0.00150734 0.01599703 0.00515212    0.0111070 ----
     5   0   0   F    T  1.85D+00 0.00412030 0.00143969 0.00559091 0.00205419    0.0110885 ----
     6   0   0   F    F  1.09D+00 0.00412030 0.00143969 0.01033102 0.00379579    0.0109309 ----
     7   0   0   F    T  4.11D+00 0.00312604 0.00122674 0.00499322 0.00193129    0.0108718 ----
     8   0   0   F    F -4.27D-01 0.00312604 0.00122674 0.02054103 0.00794490    0.0108293 ----
     9   0   0   F    T  4.71D+00 0.00169652 0.00071470 0.00259326 0.00096740    0.0107760 ----
    10   0   0   T    F  4.39D-01 0.00169652 0.00071470 0.01220206 0.00455190    0.0107942 ----
    11   0   0   F    T  2.62D+00 0.00103657 0.00053482 0.00227368 0.00076202    0.0107476 ----
    12   0   0   F    F  4.35D-01 0.00103657 0.00053482 0.00595766 0.00199669    0.0107212 ----
    13   0   0   F    T  6.64D+00 0.00081844 0.00032581 0.00117116 0.00043143    0.0107185 ----
    14   0   0   T    F  4.21D-01 0.00081844 0.00032581 0.00778068 0.00286622    0.0107257 ----
    15   0   0   F    T  2.72D+00 0.00076242 0.00028822 0.00102373 0.00044383    0.0107105 ----
    16   0   0   F    F  4.28D+00 0.00076242 0.00028822 0.00278125 0.00120579    0.0106995 ----
    17   0   0   F    T  8.91D+00 0.00068095 0.00034230 0.00150720 0.00071417    0.0106784 ----
    18   0   0   T    F  2.83D-01 0.00068095 0.00034230 0.01343054 0.00636387    0.0107218 ----
    19   0   0   F    T  2.06D+00 0.00117149 0.00036119 0.00217631 0.00087489    0.0106704 ----
    20   0   0   F    F  1.70D+00 0.00117149 0.00036119 0.00447370 0.00179846    0.0106587 ----
    21   0   0   F    T  1.40D+01 0.00067252 0.00020421 0.00068843 0.00034769    0.0106509 ----
    22   0   0   T    F  8.63D-02 0.00067252 0.00020421 0.00961500 0.00485598    0.0108017 ----
    23   0   0   F    T  4.16D+00 0.00032298 0.00008287 0.00035257 0.00010079    0.0106496 --++
    24   0   0   F    F -4.67D-01 0.00032298 0.00008287 0.00146574 0.00041902    0.0106495 ----
    25   0   0   F    T  3.67D+00 0.00016059 0.00004929 0.00017465 0.00006083    0.0106491 -+++
    26   0   0   F    T  3.41D+00 0.00012299 0.00004442 0.00015956 0.00006551    0.0106489 -+++
    27   0   0   F    T  3.19D+00 0.00010275 0.00003763 0.00017468 0.00007013    0.0106487 ====
 Energy=    0.010648729258 NIter=   0.
 Dipole moment=       0.000000       0.000000       0.000000
 ***** Axes restored to original set *****
 -------------------------------------------------------------------
 Center     Atomic                   Forces (Hartrees/Bohr)
 Number     Number              X              Y              Z
 -------------------------------------------------------------------
    1          6           0.000047404    0.000066977   -0.000074082
    2          6          -0.000078092   -0.000033571    0.000096776
    3          6           0.000064576   -0.000053312   -0.000023951
    4          6           0.000037502    0.000016386    0.000082760
    5          6          -0.000023782   -0.000030153    0.000036297
    6          6          -0.000012965    0.000004476    0.000078120
    7          1          -0.000008493   -0.000008535   -0.000005942
    8          1          -0.000066923   -0.000001288   -0.000001750
    9          1           0.000041792   -0.000021815   -0.000066675
   10          1          -0.000029276    0.000069507   -0.000009338
   11          1          -0.000006206    0.000009346   -0.000013559
   12          1           0.000016319   -0.000018194    0.000000995
   13          1           0.000010105   -0.000009922   -0.000020089
   14          1          -0.000001247    0.000008104    0.000000937
   15          1           0.000013071   -0.000010159   -0.000002477
   16          1           0.000020666   -0.000010693   -0.000028188
   17         17          -0.000008544    0.000006353   -0.000012980
   18         17          -0.000015907    0.000016492   -0.000036854
 -------------------------------------------------------------------
 Cartesian Forces:  Max     0.000096776 RMS     0.000037632

 GradGradGradGradGradGradGradGradGradGradGradGradGradGradGradGradGradGrad
 Berny optimization.
 Search for a local minimum.
 Step number   1 out of a maximum of   2
 All quantities printed in internal units (Hartrees-Bohrs-Radians)
 Second derivative matrix not updated -- unit matrix used.
 RFO step:  Lambda=-7.64738737D-08.
 Linear search not attempted -- first point.
 TrRot=  0.000000  0.000000  0.000000  0.000000  0.000000  0.000000
 Variable       Old X    -DE/DX   Delta X   Delta X   Delta X     New X
                                 (Linear)    (Quad)   (Total)
    X1       -2.10574   0.00005   0.00000   0.00005   0.00005  -2.10569
    Y1       -1.43809   0.00007   0.00000   0.00007   0.00007  -1.43802
    Z1       -1.14460  -0.00007   0.00000  -0.00007  -0.00007  -1.14467
    X2       -2.06957  -0.00008   0.00000  -0.00008  -0.00008  -2.06965
    Y2        1.46382  -0.00003   0.00000  -0.00003  -0.00003   1.46378
    Z2       -1.18189   0.00010   0.00000   0.00010   0.00010  -1.18179
    X3        0.65424   0.00006   0.00000   0.00006   0.00006   0.65431
    Y3        2.46469  -0.00005   0.00000  -0.00005  -0.00005   2.46464
    Z3       -1.14483  -0.00002   0.00000  -0.00002  -0.00002  -1.14486
    X4       -0.65436   0.00004   0.00000   0.00004   0.00004  -0.65432
    Y4       -2.46441   0.00002   0.00000   0.00002   0.00002  -2.46439
    Z4        1.14506   0.00008   0.00000   0.00008   0.00008   1.14514
    X5        2.06966  -0.00002   0.00000  -0.00002  -0.00002   2.06964
    Y5       -1.46346  -0.00003   0.00000  -0.00003  -0.00003  -1.46349
    Z5        1.18202   0.00004   0.00000   0.00004   0.00004   1.18205
    X6        2.10565  -0.00001   0.00000  -0.00001  -0.00001   2.10563
    Y6        1.43832   0.00000   0.00000   0.00000   0.00000   1.43833
    Z6        1.14490   0.00008   0.00000   0.00008   0.00008   1.14498
    X7       -1.24419  -0.00001   0.00000  -0.00001  -0.00001  -1.24419
    Y7       -2.18680  -0.00001   0.00000  -0.00001  -0.00001  -2.18681
    Z7       -2.91028  -0.00001   0.00000  -0.00001  -0.00001  -2.91029
    X8       -4.09294  -0.00007   0.00000  -0.00007  -0.00007  -4.09301
    Y8       -2.11186   0.00000   0.00000   0.00000   0.00000  -2.11186
    Z8       -1.05494   0.00000   0.00000   0.00000   0.00000  -1.05494
    X9       -3.10095   0.00004   0.00000   0.00004   0.00004  -3.10091
    Y9        2.19321  -0.00002   0.00000  -0.00002  -0.00002   2.19319
    Z9        0.49863  -0.00007   0.00000  -0.00007  -0.00007   0.49856
   X10        0.62752  -0.00003   0.00000  -0.00003  -0.00003   0.62749
   Y10        4.56283   0.00007   0.00000   0.00007   0.00007   4.56289
   Z10       -1.05516  -0.00001   0.00000  -0.00001  -0.00001  -1.05517
   X11        1.64732  -0.00001   0.00000  -0.00001  -0.00001   1.64732
   Y11        1.90177   0.00001   0.00000   0.00001   0.00001   1.90178
   Z11       -2.91044  -0.00001   0.00000  -0.00001  -0.00001  -2.91046
   X12       -0.62743   0.00002   0.00000   0.00002   0.00002  -0.62742
   Y12       -4.56272  -0.00002   0.00000  -0.00002  -0.00002  -4.56273
   Z12        1.05551   0.00000   0.00000   0.00000   0.00000   1.05551
   X13       -1.64730   0.00001   0.00000   0.00001   0.00001  -1.64729
   Y13       -1.90156  -0.00001   0.00000  -0.00001  -0.00001  -1.90157
   Z13        2.91089  -0.00002   0.00000  -0.00002  -0.00002   2.91087
   X14        3.10087   0.00000   0.00000   0.00000   0.00000   3.10087
   Y14       -2.19288   0.00001   0.00000   0.00001   0.00001  -2.19287
   Z14       -0.49826   0.00000   0.00000   0.00000   0.00000  -0.49826
   X15        4.09303   0.00001   0.00000   0.00001   0.00001   4.09304
   Y15        2.11216  -0.00001   0.00000  -0.00001  -0.00001   2.11215
   Z15        1.05539   0.00000   0.00000   0.00000   0.00000   1.05539
   X16        1.24403   0.00002   0.00000   0.00002   0.00002   1.24405
   Y16        2.18702  -0.00001   0.00000  -0.00001  -0.00001   2.18701
   Z16        2.91073  -0.00003   0.00000  -0.00003  -0.00003   2.91070
   X17       -3.65904  -0.00001   0.00000  -0.00001  -0.00001  -3.65905
   Y17        2.58776   0.00001   0.00000   0.00001   0.00001   2.58777
   Z17       -3.93575  -0.00001   0.00000  -0.00001  -0.00001  -3.93577
   X18        3.65919  -0.00002   0.00000  -0.00002  -0.00002   3.65917
   Y18       -2.58755   0.00002   0.00000   0.00002   0.00002  -2.58753
   Z18        3.93610  -0.00004   0.00000  -0.00004  -0.00004   3.93607
         Item               Value     Threshold  Converged?
 Maximum Force            0.000097     0.000450     YES
 RMS     Force            0.000038     0.000300     YES
 Maximum Displacement     0.000097     0.001800     YES
 RMS     Displacement     0.000038     0.001200     YES
 Predicted change in Energy=-3.823693D-08
 Optimization completed.
    -- Stationary point found.
 GradGradGradGradGradGradGradGradGradGradGradGradGradGradGradGradGradGrad

                          Input orientation:                          
 ---------------------------------------------------------------------
 Center     Atomic     Atomic              Coordinates (Angstroms)
 Number     Number      Type              X           Y           Z
 ---------------------------------------------------------------------
    1          6      10061003       -1.114307   -0.761002   -0.605694
    2          6      10061003       -1.095169    0.774618   -0.625427
    3          6      10061003        0.346210    1.304260   -0.605820
    4          6      10061003       -0.346272   -1.304109    0.605939
    5          6      10061003        1.095218   -0.774429    0.625497
    6          6      10061003        1.114260    0.761127    0.605857
    7          1      10011000       -0.658395   -1.157203   -1.540056
    8          1      10011000       -2.165890   -1.117547   -0.558251
    9          1      10011000       -1.640952    1.160598    0.263862
   10          1      10011000        0.332068    2.414543   -0.558368
   11          1      10011000        0.871725    1.006373   -1.540141
   12          1      10011000       -0.332022   -2.414485    0.558553
   13          1      10011000       -0.871711   -1.006262    1.540379
   14          1      10011000        1.640910   -1.160421   -0.263670
   15          1      10011000        2.165938    1.117706    0.558489
   16          1      10011000        0.658314    1.157322    1.540292
   17         17      10171000       -1.936282    1.369384   -2.082711
   18         17      10171000        1.936358   -1.369272    2.082896
 ---------------------------------------------------------------------
                    Distance matrix (angstroms):
                    1          2          3          4          5
     1  C    0.000000
     2  C    1.535866   0.000000
     3  C    2.529509   1.535734   0.000000
     4  C    1.533915   2.529469   2.958290   0.000000
     5  C    2.529429   2.960093   2.529447   1.535851   0.000000
     6  C    2.958250   2.529391   1.533967   2.529497   1.535800
     7  H    1.112594   2.181570   2.817948   2.173545   2.812702
     8  H    1.111397   2.175143   3.489708   2.168214   3.486232
     9  H    2.173943   1.112517   2.173890   2.804995   3.370718
    10  H    3.489746   2.175054   1.111387   3.955266   3.486184
    11  H    2.818001   2.181532   1.112591   3.380459   2.812684
    12  H    2.168282   3.486342   3.955355   1.111478   2.175150
    13  H    2.173622   2.812859   3.380534   1.112644   2.181643
    14  H    2.804949   3.370663   2.804990   2.173881   1.112379
    15  H    3.955360   3.486285   2.168369   3.489791   2.175111
    16  H    3.380445   2.812740   2.173660   2.817952   2.181605
    17  Cl   2.719516   1.784628   2.719416   4.111513   4.595685
    18  Cl   4.111577   4.595805   4.111634   2.719568   1.784760
                    6          7          8          9         10
     6  C    0.000000
     7  H    3.380420   0.000000
     8  H    3.955243   1.799460   0.000000
     9  H    2.804948   3.097054   2.478180   0.000000
    10  H    2.168186   3.834332   4.326137   2.478154   0.000000
    11  H    2.173540   2.649967   3.834351   3.097056   1.799459
    12  H    3.489768   2.468084   2.508460   3.818555   5.000805
    13  H    2.817991   3.091499   2.468103   2.629926   4.189956
    14  H    2.173888   2.629824   3.818422   4.054139   3.818414
    15  H    1.111494   4.189983   5.000820   3.818515   2.508433
    16  H    1.112666   4.071768   4.189874   2.629812   2.468080
    17  Cl   4.111470   2.882900   2.926008   2.374282   2.925986
    18  Cl   2.719575   4.461334   4.885434   4.744078   4.885415
                   11         12         13         14         15
    11  H    0.000000
    12  H    4.189963   0.000000
    13  H    4.071838   1.799539   0.000000
    14  H    2.629833   2.478142   3.097035   0.000000
    15  H    2.468122   4.326220   3.834405   2.478198   0.000000
    16  H    3.091504   3.834369   2.649919   3.097048   1.799566
    17  Cl   2.882892   4.885447   4.461366   4.743957   4.885436
    18  Cl   4.461337   2.926028   2.882942   2.374296   2.926019
                   16         17         18
    16  H    0.000000
    17  Cl   4.461284   0.000000
    18  Cl   2.882965   6.312675   0.000000
 Stoichiometry    C6H10Cl2
 Framework group  C1[X(C6H10Cl2)]
 Deg. of freedom    48
 Full point group                 C1
 Largest Abelian subgroup         C1      NOp   1
 Largest concise Abelian subgroup C1      NOp   1
                         Standard orientation:                         
 ---------------------------------------------------------------------
 Center     Atomic     Atomic              Coordinates (Angstroms)
 Number     Number      Type              X           Y           Z
 ---------------------------------------------------------------------
    1          6      10061003        0.750946    1.264782   -0.155875
    2          6      10061003        1.426599   -0.000032    0.394234
    3          6      10061003        0.751034   -1.264727   -0.155890
    4          6      10061003       -0.750948    1.264761    0.155911
    5          6      10061003       -1.426534   -0.000029   -0.394295
    6          6      10061003       -0.750909   -1.264736    0.155913
    7          1      10011000        0.899761    1.324993   -1.256826
    8          1      10011000        1.216880    2.163081    0.303654
    9          1      10011000        1.358375   -0.000006    1.504658
   10          1      10011000        1.216889   -2.163056    0.303638
   11          1      10011000        0.899775   -1.324974   -1.256846
   12          1      10011000       -1.216953    2.163103   -0.303658
   13          1      10011000       -0.899831    1.324997    1.256903
   14          1      10011000       -1.358337    0.000008   -1.504582
   15          1      10011000       -1.216935   -2.163117   -0.303598
   16          1      10011000       -0.899754   -1.324922    1.256935
   17         17      10171000        3.155966    0.000003   -0.046433
   18         17      10171000       -3.156025   -0.000017    0.046417
 ---------------------------------------------------------------------
 Rotational constants (GHZ):      4.2444191      0.6302925      0.5690003
 1|1|UNPC-UNK|FOpt|UFF|ZDO|C6H10Cl2|PCUSER|02-Apr-2008|0||# opt uff||1-
 4-diCl-cyclohexane-dieq||0,1|C,-1.1143070803,-0.761001977,-0.605693613
 4|C,-1.0951686855,0.7746175638,-0.6254267635|C,0.346210222,1.304260046
 ,-0.6058197742|C,-0.3462721398,-1.3041092665,0.6059387751|C,1.09521788
 1,-0.7744293203,0.6254965408|C,1.1142597863,0.7611271,0.605857397|H,-0
 .6583947514,-1.157202926,-1.5400562551|H,-2.1658901764,-1.1175473294,-
 0.5582510949|H,-1.6409522786,1.1605983704,0.2638616003|H,0.3320680863,
 2.4145432364,-0.5583683366|H,0.8717250193,1.0063726824,-1.5401410194|H
 ,-0.3320223899,-2.4144852296,0.5585531661|H,-0.8717113056,-1.006261590
 6,1.5403786111|H,1.6409102639,-1.1604213744,-0.2636699281|H,2.16593782
 54,1.117706216,0.5584886674|H,0.6583141866,1.1573219071,1.5402924149|C
 l,-1.9362822399,1.3693837226,-2.0827114458|Cl,1.9363577766,-1.36927183
 08,2.0828960582||Version=IA32W-G03RevD.01|HF=0.0106487|RMSD=0.000e+000
 |RMSF=3.763e-005|Thermal=0.|Dipole=0.,0.,0.|PG=C01 [X(C6H10Cl2)]||@


 ERROR IS A HARDY PLANT... IT FLOURISHETH IN EVERY SOIL.
            MARTIN FARQUHAR TUPPER
 Job cpu time:  0 days  0 hours  0 minutes  3.0 seconds.
 File lengths (MBytes):  RWF=     11 Int=      0 D2E=      0 Chk=      4 Scr=      1
 Normal termination of Gaussian 03 at Wed Apr 02 19:14:41 2008.
