 Entering Link 1 = C:\G03W\l1.exe PID=       220.
  
 Copyright (c) 1988,1990,1992,1993,1995,1998,2003,2004, Gaussian, Inc.
                  All Rights Reserved.
  
 This is the Gaussian(R) 03 program.  It is based on the
 the Gaussian(R) 98 system (copyright 1998, Gaussian, Inc.),
 the Gaussian(R) 94 system (copyright 1995, Gaussian, Inc.),
 the Gaussian 92(TM) system (copyright 1992, Gaussian, Inc.),
 the Gaussian 90(TM) system (copyright 1990, Gaussian, Inc.),
 the Gaussian 88(TM) system (copyright 1988, Gaussian, Inc.),
 the Gaussian 86(TM) system (copyright 1986, Carnegie Mellon
 University), and the Gaussian 82(TM) system (copyright 1983,
 Carnegie Mellon University). Gaussian is a federally registered
 trademark of Gaussian, Inc.
  
 This software contains proprietary and confidential information,
 including trade secrets, belonging to Gaussian, Inc.
  
 This software is provided under written license and may be
 used, copied, transmitted, or stored only in accord with that
 written license.
  
 The following legend is applicable only to US Government
 contracts under FAR:
  
                    RESTRICTED RIGHTS LEGEND
  
 Use, reproduction and disclosure by the US Government is
 subject to restrictions as set forth in subparagraphs (a)
 and (c) of the Commercial Computer Software - Restricted
 Rights clause in FAR 52.227-19.
  
 Gaussian, Inc.
 340 Quinnipiac St., Bldg. 40, Wallingford CT 06492
  
  
 ---------------------------------------------------------------
 Warning -- This program may not be used in any manner that
 competes with the business of Gaussian, Inc. or will provide
 assistance to any competitor of Gaussian, Inc.  The licensee
 of this program is prohibited from giving any competitor of
 Gaussian, Inc. access to this program.  By using this program,
 the user acknowledges that Gaussian, Inc. is engaged in the
 business of creating and licensing software in the field of
 computational chemistry and represents and warrants to the
 licensee that it is not a competitor of Gaussian, Inc. and that
 it will not use this program in any manner prohibited above.
 ---------------------------------------------------------------
  

 Cite this work as:
 Gaussian 03, Revision D.01,
 M. J. Frisch, G. W. Trucks, H. B. Schlegel, G. E. Scuseria, 
 M. A. Robb, J. R. Cheeseman, J. A. Montgomery, Jr., T. Vreven, 
 K. N. Kudin, J. C. Burant, J. M. Millam, S. S. Iyengar, J. Tomasi, 
 V. Barone, B. Mennucci, M. Cossi, G. Scalmani, N. Rega, 
 G. A. Petersson, H. Nakatsuji, M. Hada, M. Ehara, K. Toyota, 
 R. Fukuda, J. Hasegawa, M. Ishida, T. Nakajima, Y. Honda, O. Kitao, 
 H. Nakai, M. Klene, X. Li, J. E. Knox, H. P. Hratchian, J. B. Cross, 
 V. Bakken, C. Adamo, J. Jaramillo, R. Gomperts, R. E. Stratmann, 
 O. Yazyev, A. J. Austin, R. Cammi, C. Pomelli, J. W. Ochterski, 
 P. Y. Ayala, K. Morokuma, G. A. Voth, P. Salvador, J. J. Dannenberg, 
 V. G. Zakrzewski, S. Dapprich, A. D. Daniels, M. C. Strain, 
 O. Farkas, D. K. Malick, A. D. Rabuck, K. Raghavachari, 
 J. B. Foresman, J. V. Ortiz, Q. Cui, A. G. Baboul, S. Clifford, 
 J. Cioslowski, B. B. Stefanov, G. Liu, A. Liashenko, P. Piskorz, 
 I. Komaromi, R. L. Martin, D. J. Fox, T. Keith, M. A. Al-Laham, 
 C. Y. Peng, A. Nanayakkara, M. Challacombe, P. M. W. Gill, 
 B. Johnson, W. Chen, M. W. Wong, C. Gonzalez, and J. A. Pople, 
 Gaussian, Inc., Wallingford CT, 2004.
 
 ******************************************
 Gaussian 03:  IA32W-G03RevD.01 13-Oct-2005
                13-Dec-2007 
 ******************************************
 ---------
 # opt uff
 ---------
 1/6=10,10=10,14=-1,18=4000020,38=1,56=1,64=2/1,3;
 2/9=110,17=6,18=5,40=1/2;
 3/5=30,11=9,16=1,25=1,30=1/1;
 4/20=10,22=1001,24=3/2;
 7/44=-1/16;
 1/6=10,10=10,14=-1,18=4000020,64=2/3(2);
 2/9=110/2;
 99//99;
 2/9=110/2;
 3/5=30,11=9,16=1,25=1,30=1/1;
 4/16=2,20=10,22=1001,24=3/2;
 7/44=-1/16;
 1/6=10,10=10,14=-1,18=4000020,64=2/3(-4);
 2/9=110/2;
 99//99;
 -------------------------
 cyclohexylmethylketone-ax
 -------------------------
 Symbolic Z-matrix:
 Charge =  0 Multiplicity = 1
 C                     0.04216  -1.37979  -0.87281 
 C                     0.63416  -1.79479   0.48319 
 C                     1.90216  -0.99079   0.80419 
 C                    -0.23584   0.13421  -0.94681 
 C                     1.62316   0.51721   0.73919 
 C                     1.06216   0.90321  -0.63581 
 H                    -0.88884  -1.95979  -1.08181 
 H                     0.76716  -1.65579  -1.67581 
 H                     0.87016  -2.88679   0.47519 
 H                    -0.11584  -1.63579   1.29319 
 H                     2.70216  -1.25279   0.07119 
 H                     2.28316  -1.26579   1.81719 
 H                    -0.54884   0.37721  -1.99181 
 C                    -1.41984   0.57621  -0.08881 
 H                     2.56516   1.08421   0.93819 
 H                     0.89716   0.80021   1.53719 
 H                     1.82416   0.66721  -1.41681 
 H                     0.90016   2.00521  -0.69281 
 C                    -1.72884   2.06021  -0.00381 
 O                    -2.13684  -0.21979   0.47419 
 H                    -2.75484   2.23121   0.39419 
 H                    -1.00984   2.56521   0.68019 
 H                    -1.67184   2.53021  -1.01181 
 
 Include all MM classes
 MMInit generated parameter data with length LenPar=  2728.

 GradGradGradGradGradGradGradGradGradGradGradGradGradGradGradGradGradGrad
 Berny optimization.
 Initialization pass.
 No Z-matrix variables, so optimization will use Cartesian coordinates.
 Trust Radius=1.00D-01 FncErr=1.00D-07 GrdErr=1.00D-07
 Number of steps in this run=   2 maximum allowed number of steps=   2.
 GradGradGradGradGradGradGradGradGradGradGradGradGradGradGradGradGradGrad

                          Input orientation:                          
 ---------------------------------------------------------------------
 Center     Atomic     Atomic              Coordinates (Angstroms)
 Number     Number      Type              X           Y           Z
 ---------------------------------------------------------------------
    1          6      10061003        0.042157   -1.379786   -0.872814
    2          6      10061003        0.634157   -1.794786    0.483186
    3          6      10061003        1.902157   -0.990786    0.804186
    4          6      10061003       -0.235843    0.134214   -0.946814
    5          6      10061003        1.623157    0.517214    0.739186
    6          6      10061003        1.062157    0.903214   -0.635814
    7          1      10011000       -0.888843   -1.959786   -1.081814
    8          1      10011000        0.767157   -1.655786   -1.675814
    9          1      10011000        0.870157   -2.886786    0.475186
   10          1      10011000       -0.115843   -1.635786    1.293186
   11          1      10011000        2.702157   -1.252786    0.071186
   12          1      10011000        2.283157   -1.265786    1.817186
   13          1      10011000       -0.548843    0.377214   -1.991814
   14          6      10061002       -1.419843    0.576214   -0.088814
   15          1      10011000        2.565157    1.084214    0.938186
   16          1      10011000        0.897157    0.800214    1.537186
   17          1      10011000        1.824157    0.667214   -1.416814
   18          1      10011000        0.900157    2.005214   -0.692814
   19          6      10061003       -1.728843    2.060214   -0.003814
   20          8      10081002       -2.136843   -0.219786    0.474186
   21          1      10011000       -2.754843    2.231214    0.394186
   22          1      10011000       -1.009843    2.565214    0.680186
   23          1      10011000       -1.671843    2.530214   -1.011814
 ---------------------------------------------------------------------
                    Distance matrix (angstroms):
                    1          2          3          4          5
     1  C    0.000000
     2  C    1.536693   0.000000
     3  C    2.534413   1.535344   0.000000
     4  C    1.541089   2.553985   2.983734   0.000000
     5  C    2.949019   2.527647   1.534969   2.538733   0.000000
     6  C    2.511704   2.952041   2.523180   1.540417   1.534387
     7  H    1.116621   2.189972   3.505087   2.197606   3.970103
     8  H    1.116517   2.167554   2.807285   2.177510   3.359597
     9  H    2.184888   1.117239   2.183594   3.517351   3.496272
    10  H    2.186791   1.115294   2.174275   2.857429   2.822489
    11  H    2.825396   2.177184   1.116214   3.404693   2.177927
    12  H    3.503024   2.186000   1.116671   3.993126   2.185583
    13  H    2.165292   3.498957   3.961873   1.117606   3.492212
    14  C    2.564768   3.188690   3.780029   1.527542   3.154190
    15  H    3.964410   3.496345   2.182464   3.507325   1.117342
    16  H    3.360286   2.813203   2.180595   2.810249   1.115334
    17  H    2.767972   3.329796   2.772704   2.179126   2.170538
    18  H    3.496683   3.986694   3.495859   2.203555   2.188035
    19  C    3.965501   4.547743   4.810990   2.613001   3.764147
    20  O    2.812126   3.187342   4.125150   2.399658   3.840702
    21  H    4.740023   5.263261   5.677767   3.541335   4.714202
    22  H    4.368242   4.663812   4.597853   3.025883   3.336237
    23  H    4.271442   5.124284   5.335614   2.794125   4.239716
                    6          7          8          9         10
     6  C    0.000000
     7  H    3.493148   0.000000
     8  H    2.777968   1.785382   0.000000
     9  H    3.954148   2.525403   2.480478   0.000000
    10  H    3.399301   2.518557   3.097588   1.790620   0.000000
    11  H    2.799604   3.837257   2.637924   2.487850   3.095335
    12  H    3.494655   4.352864   3.827715   2.534793   2.483279
    13  H    2.170422   2.530863   2.442294   4.330513   3.876968
    14  C    2.562511   2.774762   3.504763   4.189817   2.916039
    15  H    2.183860   5.027569   4.192064   4.342377   3.835647
    16  H    2.181688   4.203160   4.046258   3.836996   2.649491
    17  H    1.116379   3.791269   2.565280   4.137716   4.051112
    18  H    1.115301   4.367272   3.793007   5.029591   4.270051
    19  C    3.086706   4.245949   4.778520   5.608659   4.236082
    20  O    3.567468   2.646930   3.888163   4.019321   2.600050
    21  H    4.170608   4.819234   5.638985   6.272249   4.767202
    22  H    2.964335   4.857459   5.150272   5.770678   4.338595
    23  H    3.203632   4.558299   4.890012   6.165778   5.008964
                   11         12         13         14         15
    11  H    0.000000
    12  H    1.795619   0.000000
    13  H    4.181133   5.022764   0.000000
    14  C    4.512397   4.553900   2.102297   0.000000
    15  H    2.496403   2.524810   4.333791   4.146446   0.000000
    16  H    3.101933   2.503548   3.837146   2.839461   1.794904
    17  H    2.582911   3.795514   2.458832   3.506480   2.503796
    18  H    3.800719   4.348819   2.537200   2.790924   2.506118
    19  C    5.533114   5.520368   2.859551   1.518210   4.503152
    20  O    4.964415   4.736472   2.993210   1.210237   4.901481
    21  H    6.482394   6.295664   3.741223   2.180491   5.469364
    22  H    5.359753   5.178144   3.484171   2.171539   3.878215
    23  H    5.883524   6.168864   2.618576   2.175672   4.883194
                   16         17         18         19         20
    16  H    0.000000
    17  H    3.098892   0.000000
    18  H    2.534745   1.779943   0.000000
    19  C    3.295172   4.069500   2.718343   0.000000
    20  O    3.372762   4.477965   3.941558   2.365026   0.000000
    21  H    4.085500   5.166532   3.819904   1.113697   2.528977
    22  H    2.736115   4.003919   2.418022   1.113482   3.011443
    23  H    4.011242   3.982061   2.644347   1.113649   3.160209
                   21         22         23
    21  H    0.000000
    22  H    1.799549   0.000000
    23  H    1.799757   1.817232   0.000000
 Stoichiometry    C8H14O
 Framework group  C1[X(C8H14O)]
 Deg. of freedom    63
 Full point group                 C1
 Largest Abelian subgroup         C1      NOp   1
 Largest concise Abelian subgroup C1      NOp   1
                         Standard orientation:                         
 ---------------------------------------------------------------------
 Center     Atomic     Atomic              Coordinates (Angstroms)
 Number     Number      Type              X           Y           Z
 ---------------------------------------------------------------------
    1          6      10061003       -0.709425   -1.148984    0.918664
    2          6      10061003       -1.578387   -1.115464   -0.348304
    3          6      10061003       -2.206045    0.270568   -0.553835
    4          6      10061003        0.373914   -0.052968    0.909657
    5          6      10061003       -1.126239    1.361362   -0.571687
    6          6      10061003       -0.296854    1.320512    0.718582
    7          1      10011000       -0.245773   -2.157191    1.042712
    8          1      10011000       -1.370245   -0.999448    1.806112
    9          1      10011000       -2.382105   -1.888227   -0.276910
   10          1      10011000       -0.963240   -1.375652   -1.241488
   11          1      10011000       -2.928420    0.476029    0.271933
   12          1      10011000       -2.785293    0.290363   -1.508316
   13          1      10011000        0.882955   -0.062326    1.904560
   14          6      10061002        1.498545   -0.319847   -0.089025
   15          1      10011000       -1.605088    2.364612   -0.684138
   16          1      10011000       -0.460127    1.216894   -1.454519
   17          1      10011000       -0.968142    1.524622    1.586921
   18          1      10011000        0.458881    2.140732    0.719620
   19          6      10061003        2.572923    0.739396   -0.258374
   20          8      10081002        1.579892   -1.360995   -0.700636
   21          1      10011000        3.467253    0.320760   -0.773385
   22          1      10011000        2.188758    1.583085   -0.875179
   23          1      10011000        2.900851    1.126251    0.733100
 ---------------------------------------------------------------------
 Rotational constants (GHZ):      2.4669110      1.3379539      1.1096498
 Standard basis: Dummy (5D, 7F)
 There are    23 symmetry adapted basis functions of A   symmetry.
 Integral buffers will be    262144 words long.
 Raffenetti 1 integral format.
 Two-electron integral symmetry is turned on.
    23 basis functions,    23 primitive gaussians,    23 cartesian basis functions
    16 alpha electrons       16 beta electrons
       nuclear repulsion energy        97.8262631282 Hartrees.
 NAtoms=   23 NActive=   23 NUniq=   23 SFac= 7.50D-01 NAtFMM=   80 NAOKFM=F Big=F
 UFF calculation of energy and first derivatives.
 MO and density RWFs will be updated without deorthogonalization.
 NRF= 0 NRA=   0 NVA=  23 HaveQM=F
 Convergence limit is  0.750E-04 MaxStp=  5000 StMxLn= 1.00D-04 StpMin= 1.00D-06.
 Convergence criteria           0.00011250 0.00007500 0.00045000 0.00030000
  Step  NS  ND Rises OKQ   Scale  Max. Force  RMS Force Max. Disp.  RMS Disp.     Energy   Flag
     1   0   0   F    T  1.00D+00 0.03613332 0.00587384 0.03613332 0.00587384    0.0217639 ----
     2   0   0   F    F -3.22D-01 0.03613332 0.00587384 0.03613332 0.00587384    0.0211401 ----
     3   0   0   F    T  1.83D+00 0.00853261 0.00204874 0.00676286 0.00216978    0.0209573 ----
     4   0   0   F    F -8.73D-03 0.00853261 0.00204874 0.01240414 0.00397971    0.0206942 ----
     5   0   0   F    T  2.15D+00 0.00379459 0.00146408 0.00601927 0.00183617    0.0206942 ----
     6   0   0   F    F  9.55D-01 0.00379459 0.00146408 0.01293232 0.00394498    0.0204577 ----
     7   0   0   F    T  4.28D+00 0.00358180 0.00123608 0.00649563 0.00180382    0.0203835 ----
     8   0   0   F    F -4.07D-01 0.00358180 0.00123608 0.02777132 0.00771203    0.0203128 ----
     9   0   0   F    T  2.72D+00 0.00249478 0.00105461 0.00604453 0.00168218    0.0202498 ----
    10   0   0   F    F -1.38D-01 0.00249478 0.00105461 0.01643703 0.00457439    0.0201621 ----
    11   0   0   F    T  2.51D+00 0.00383512 0.00091931 0.00445042 0.00157431    0.0201599 ----
    12   0   0   F    F  1.16D-01 0.00383512 0.00091931 0.01115073 0.00394449    0.0200792 ----
    13   0   0   F    T  2.54D+00 0.00301317 0.00089309 0.00492483 0.00173389    0.0200783 ----
    14   0   0   F    F -2.38D-01 0.00301317 0.00089309 0.01249909 0.00440057    0.0200303 ----
    15   0   0   F    T  3.44D+00 0.00151241 0.00059660 0.00345512 0.00097364    0.0200251 ----
    16   0   0   F    F -3.41D-01 0.00151241 0.00059660 0.01190041 0.00335349    0.0200047 ----
    17   0   0   F    T  1.39D+00 0.00364574 0.00071973 0.00607421 0.00158995    0.0199972 ----
    18   0   0   F    F  3.18D-01 0.00364574 0.00071973 0.00844065 0.00220938    0.0199664 ----
    19   0   0   F    T  2.10D+00 0.00184821 0.00063427 0.00524503 0.00138797    0.0199645 ----
    20   0   0   F    F  1.59D-01 0.00184821 0.00063427 0.01100674 0.00291267    0.0199314 ----
    21   0   0   F    T  3.34D+00 0.00161555 0.00050418 0.00336647 0.00101223    0.0199307 ----
    22   0   0   F    F -3.48D-01 0.00161555 0.00050418 0.01123114 0.00337699    0.0199171 ----
    23   0   0   F    T  3.21D+00 0.00098457 0.00037859 0.00195732 0.00068610    0.0199116 ----
    24   0   0   F    F  1.59D-01 0.00098457 0.00037859 0.00628258 0.00220224    0.0198936 ----
    25   0   0   F    T  2.96D+00 0.00127115 0.00039953 0.00232480 0.00086211    0.0198932 ----
    26   0   0   F    F -1.92D-01 0.00127115 0.00039953 0.00688140 0.00255184    0.0198808 ----
    27   0   0   F    T  4.85D+00 0.00073655 0.00025220 0.00154115 0.00042455    0.0198801 ----
    28   0   0   F    F -2.68D-02 0.00073655 0.00025220 0.00748197 0.00206110    0.0198697 ----
    29   0   0   F    T  2.60D+00 0.00111675 0.00032368 0.00318455 0.00077016    0.0198697 ----
    30   0   0   F    F  3.99D-01 0.00111675 0.00032368 0.00829448 0.00200596    0.0198576 ----
    31   0   0   F    T  3.05D+00 0.00128347 0.00034109 0.00388487 0.00092153    0.0198565 ----
    32   0   0   F    F  1.55D-01 0.00128347 0.00034109 0.01183416 0.00280717    0.0198427 ----
    33   0   0   F    T  2.12D+00 0.00158643 0.00042985 0.00646109 0.00152783    0.0198424 ----
    34   0   0   F    F -2.05D-01 0.00158643 0.00042985 0.01370985 0.00324191    0.0198324 ----
    35   0   0   F    T  1.60D+00 0.00154809 0.00043237 0.00683833 0.00160649    0.0198317 ----
    36   0   0   F    F  5.47D-01 0.00154809 0.00043237 0.01097112 0.00257739    0.0198177 ----
    37   0   0   F    T  2.35D+00 0.00128578 0.00043650 0.00712077 0.00169815    0.0198157 ----
    38   0   0   F    F  3.79D-01 0.00128578 0.00043650 0.01671505 0.00398618    0.0197960 ----
    39   0   0   F    T  2.57D+00 0.00127103 0.00048319 0.00863548 0.00213980    0.0197944 ----
    40   0   0   F    F  1.42D-01 0.00127103 0.00048319 0.02218363 0.00549692    0.0197711 ----
    41   0   0   F    T  5.03D+00 0.00084613 0.00036410 0.00473724 0.00124866    0.0197707 ----
    42   0   0   F    F -4.85D-01 0.00084613 0.00036410 0.02381222 0.00627653    0.0197694 ----
    43   0   0   F    T  1.96D+00 0.00122661 0.00041268 0.00670641 0.00164929    0.0197589 ----
    44   0   0   F    F  1.24D+00 0.00122661 0.00041268 0.01313302 0.00322976    0.0197410 ----
    45   0   0   F    T  2.35D+00 0.00212622 0.00055862 0.01255978 0.00307913    0.0197332 ----
    46   0   0   F    F -1.78D-02 0.00212622 0.00055862 0.02950696 0.00723387    0.0197084 ----
    47   0   0   F    T  4.26D+00 0.00103161 0.00040057 0.00687629 0.00166879    0.0197084 ----
    48   0   0   F    F -3.70D-01 0.00103161 0.00040057 0.02927555 0.00710482    0.0196987 ----
    49   0   0   F    T  1.53D+00 0.00201064 0.00052563 0.01204894 0.00292566    0.0196935 ----
    50   0   0   F    F  5.15D-01 0.00201064 0.00052563 0.01843516 0.00447633    0.0196740 ----
    51   0   0   F    T  1.67D+00 0.00242334 0.00061535 0.01645300 0.00405947    0.0196715 ----
    52   0   0   F    F  1.71D-01 0.00242334 0.00061535 0.02747754 0.00677957    0.0196464 ----
    53   0   0   F    T  3.42D+00 0.00147119 0.00046318 0.00905039 0.00231898    0.0196458 ----
    54   0   0   F    F  3.02D-01 0.00147119 0.00046318 0.03097659 0.00793714    0.0196145 ----
    55   0   0   F    T  5.96D+00 0.00114057 0.00040483 0.00679517 0.00173484    0.0196127 ----
    56   0   0   T    F  4.43D-01 0.00114057 0.00040483 0.04048058 0.01033487    0.0196213 ----
    57   0   0   F    T  3.31D+00 0.00090455 0.00035657 0.00532233 0.00138547    0.0195978 ----
    58   0   0   F    F  4.03D-01 0.00090455 0.00035657 0.01760703 0.00458333    0.0195792 ----
    59   0   0   F    T  2.84D+00 0.00174854 0.00044959 0.00875719 0.00226446    0.0195775 ----
    60   0   0   T    F  4.89D-01 0.00174854 0.00044959 0.02486061 0.00642854    0.0195783 ----
    61   0   0   F    T  2.78D+00 0.00105632 0.00030777 0.00429646 0.00113315    0.0195679 ----
    62   0   0   F    F -2.34D-01 0.00105632 0.00030777 0.01192888 0.00314613    0.0195616 ----
    63   0   0   F    T  1.37D+00 0.00130916 0.00037902 0.00659781 0.00176118    0.0195609 ----
    64   0   0   F    F  1.23D+00 0.00130916 0.00037902 0.00902494 0.00240906    0.0195504 ----
    65   0   0   F    T  2.75D+00 0.00112213 0.00039745 0.00732020 0.00195541    0.0195457 ----
    66   0   0   F    F -2.16D-01 0.00112213 0.00039745 0.02015591 0.00538417    0.0195348 ----
    67   0   0   F    T  3.13D+00 0.00083322 0.00032827 0.00507596 0.00135016    0.0195339 ----
    68   0   0   F    F  9.84D-02 0.00083322 0.00032827 0.01587703 0.00422315    0.0195213 ----
    69   0   0   F    T  2.76D+00 0.00100958 0.00036197 0.00611604 0.00167837    0.0195212 ----
    70   0   0   F    F -6.58D-02 0.00100958 0.00036197 0.01690429 0.00463889    0.0195096 ----
    71   0   0   F    T  2.10D+00 0.00113474 0.00039551 0.00759311 0.00205992    0.0195095 ----
    72   0   0   F    F -3.68D-02 0.00113474 0.00039551 0.01597435 0.00433364    0.0194986 ----
    73   0   0   F    T  1.76D+00 0.00173489 0.00042065 0.00874841 0.00237558    0.0194986 ----
    74   0   0   F    F -4.23D-02 0.00173489 0.00042065 0.01537124 0.00417397    0.0194883 ----
    75   0   0   F    T  2.95D+00 0.00095507 0.00031247 0.00480431 0.00135510    0.0194883 ----
    76   0   0   F    F  6.75D-02 0.00095507 0.00031247 0.01417171 0.00399724    0.0194778 ----
    77   0   0   F    T  2.72D+00 0.00102447 0.00033187 0.00533580 0.00157159    0.0194777 ----
    78   0   0   F    F  6.44D-01 0.00102447 0.00033187 0.01448729 0.00426703    0.0194633 ----
    79   0   0   F    T  3.56D+00 0.00125281 0.00037129 0.00649675 0.00197097    0.0194607 ----
    80   0   0   T    F  4.61D-01 0.00125281 0.00037129 0.02312947 0.00701697    0.0194635 ----
    81   0   0   F    T  1.58D+00 0.00176046 0.00037583 0.00652190 0.00205041    0.0194529 ----
    82   0   0   F    F  3.25D-01 0.00176046 0.00037583 0.01028399 0.00323317    0.0194433 ----
    83   0   0   F    T  2.42D+00 0.00150812 0.00034491 0.00536796 0.00177217    0.0194427 ----
    84   0   0   F    F  6.49D-02 0.00150812 0.00034491 0.01297800 0.00428453    0.0194322 ----
    85   0   0   F    T  2.68D+00 0.00131140 0.00033471 0.00497324 0.00169998    0.0194321 ----
    86   0   0   F    F -9.81D-02 0.00131140 0.00033471 0.01334767 0.00456258    0.0194229 ----
    87   0   0   F    T  2.96D+00 0.00108162 0.00029759 0.00400047 0.00139025    0.0194228 ----
    88   0   0   F    F -1.22D-01 0.00108162 0.00029759 0.01184059 0.00411485    0.0194150 ----
    89   0   0   F    T  2.43D+00 0.00114294 0.00030458 0.00409584 0.00148869    0.0194148 ----
    90   0   0   F    F  2.49D-01 0.00114294 0.00030458 0.00993931 0.00361259    0.0194055 ----
    91   0   0   F    T  1.69D+00 0.00172842 0.00040531 0.00716003 0.00267065    0.0194051 ----
    92   0   0   F    F -1.60D-01 0.00172842 0.00040531 0.01209355 0.00451082    0.0193974 ----
    93   0   0   F    T  3.06D+00 0.00090694 0.00027341 0.00334962 0.00124029    0.0193971 ----
    94   0   0   F    F -3.54D-01 0.00090694 0.00027341 0.01023446 0.00378960    0.0193935 ----
    95   0   0   F    T  3.38D+00 0.00055771 0.00020516 0.00215696 0.00072384    0.0193920 ----
    96   0   0   F    F -1.64D-01 0.00055771 0.00020516 0.00729524 0.00244818    0.0193880 ----
    97   0   0   F    T  2.69D+00 0.00065484 0.00020673 0.00238078 0.00076177    0.0193879 ----
    98   0   0   F    F  3.58D-01 0.00065484 0.00020673 0.00639751 0.00204700    0.0193829 ----
    99   0   0   F    T  2.82D+00 0.00083727 0.00023223 0.00299769 0.00098739    0.0193825 ----
   100   0   0   F    F -4.14D-01 0.00083727 0.00023223 0.00843874 0.00277959    0.0193810 ----
   101   0   0   F    T  2.10D+00 0.00106185 0.00020194 0.00224359 0.00077442    0.0193794 ----
   102   0   0   F    F -3.40D-01 0.00106185 0.00020194 0.00471915 0.00162890    0.0193780 ----
   103   0   0   F    T  2.67D+00 0.00036122 0.00014094 0.00114178 0.00040252    0.0193775 ----
   104   0   0   F    F  6.25D-01 0.00036122 0.00014094 0.00304941 0.00107503    0.0193750 ----
   105   0   0   F    T  3.00D+00 0.00046742 0.00016594 0.00153588 0.00058232    0.0193745 ----
   106   0   0   F    F -2.38D-01 0.00046742 0.00016594 0.00460860 0.00174732    0.0193725 ----
   107   0   0   F    T  3.01D+00 0.00046528 0.00014090 0.00121184 0.00044320    0.0193723 ----
   108   0   0   F    F -7.96D-02 0.00046528 0.00014090 0.00364238 0.00133212    0.0193705 ----
   109   0   0   F    T  1.85D+00 0.00061302 0.00016930 0.00187980 0.00066214    0.0193704 ----
   110   0   0   F    F  2.07D-01 0.00061302 0.00016930 0.00348065 0.00122603    0.0193683 ----
   111   0   0   F    T  1.66D+00 0.00061348 0.00019413 0.00253932 0.00089218    0.0193682 ----
   112   0   0   F    F  2.59D-01 0.00061348 0.00019413 0.00421128 0.00147963    0.0193656 ----
   113   0   0   F    T  2.38D+00 0.00051495 0.00017950 0.00220103 0.00078401    0.0193655 ----
   114   0   0   F    F -2.33D-01 0.00051495 0.00017950 0.00522937 0.00186272    0.0193637 ----
   115   0   0   F    T  3.06D+00 0.00040460 0.00013562 0.00129280 0.00046669    0.0193635 ----
   116   0   0   F    F  3.41D-01 0.00040460 0.00013562 0.00395684 0.00142837    0.0193611 ----
   117   0   0   F    T  5.11D+00 0.00028425 0.00011825 0.00104120 0.00037454    0.0193609 ----
   118   0   0   T    F  4.84D-01 0.00028425 0.00011825 0.00532533 0.00191562    0.0193611 ----
   119   0   0   F    T  1.81D+00 0.00046957 0.00013559 0.00140153 0.00051099    0.0193597 ----
   120   0   0   F    T  1.61D+00 0.00045037 0.00014331 0.00152845 0.00057419    0.0193585 ----
   121   0   0   F    F  4.95D-01 0.00045037 0.00014331 0.00246724 0.00092687    0.0193569 ----
   122   0   0   F    T  3.48D+00 0.00030415 0.00011018 0.00098572 0.00039853    0.0193567 ----
   123   0   0   F    F  3.13D-01 0.00030415 0.00011018 0.00342733 0.00138569    0.0193549 ----
   124   0   0   F    T  2.27D+00 0.00045555 0.00015645 0.00190161 0.00080055    0.0193548 ----
   125   0   0   F    F  2.42D-02 0.00045555 0.00015645 0.00432115 0.00181913    0.0193529 ----
   126   0   0   F    T  3.60D+00 0.00031827 0.00012411 0.00139503 0.00051690    0.0193529 ----
   127   0   0   F    F -1.78D-01 0.00031827 0.00012411 0.00502830 0.00186312    0.0193514 ----
   128   0   0   F    T  2.52D+00 0.00051426 0.00013293 0.00179671 0.00060738    0.0193513 ----
   129   0   0   F    F  9.22D-02 0.00051426 0.00013293 0.00453027 0.00153145    0.0193496 ----
   130   0   0   F    T  1.45D+00 0.00058782 0.00018236 0.00353339 0.00115690    0.0193496 ----
   131   0   0   F    F  7.86D-01 0.00058782 0.00018236 0.00510878 0.00167272    0.0193472 ----
   132   0   0   F    T  2.18D+00 0.00064961 0.00019718 0.00420963 0.00137245    0.0193467 ----
   133   0   0   F    F -3.75D-01 0.00064961 0.00019718 0.00916345 0.00298752    0.0193455 ----
   134   0   0   F    T  4.86D+00 0.00021991 0.00010184 0.00116488 0.00038411    0.0193448 ----
   135   0   0   F    F -4.40D-01 0.00021991 0.00010184 0.00566408 0.00186768    0.0193445 ----
   136   0   0   F    T  2.48D+00 0.00023815 0.00010509 0.00121450 0.00042263    0.0193439 ----
   137   0   0   F    F  3.14D-01 0.00023815 0.00010509 0.00300626 0.00104613    0.0193427 ----
   138   0   0   F    T  3.62D+00 0.00033369 0.00009790 0.00105350 0.00037968    0.0193426 ----
   139   0   0   F    F -2.29D-01 0.00033369 0.00009790 0.00381278 0.00137413    0.0193418 ----
   140   0   0   F    T  3.75D+00 0.00028638 0.00008259 0.00078780 0.00028238    0.0193417 ---+
   141   0   0   F    F -4.37D-01 0.00028638 0.00008259 0.00295559 0.00105941    0.0193415 ----
   142   0   0   F    T  2.15D+00 0.00033557 0.00008004 0.00075805 0.00027694    0.0193412 ---+
   143   0   0   F    F -4.62D-01 0.00033557 0.00008004 0.00163348 0.00059676    0.0193411 ----
   144   0   0   F    T  3.11D+00 0.00012956 0.00004624 0.00024316 0.00010335    0.0193409 -+++
   145   0   0   F    F  1.35D-01 0.00012956 0.00004624 0.00075502 0.00032091    0.0193407 -+--
   146   0   0   F    T  3.42D+00 0.00013212 0.00004468 0.00022145 0.00010638    0.0193407 -+++
   147   0   0   T    F  4.71D-01 0.00013212 0.00004468 0.00075809 0.00036416    0.0193407 -+--
   148   0   0   F    T  3.49D+00 0.00008035 0.00002764 0.00011820 0.00004920    0.0193406 ====
 Energy=    0.019340570119 NIter=   0.
 Dipole moment=       0.000000       0.000000       0.000000
 ***** Axes restored to original set *****
 -------------------------------------------------------------------
 Center     Atomic                   Forces (Hartrees/Bohr)
 Number     Number              X              Y              Z
 -------------------------------------------------------------------
    1          6          -0.000022439    0.000030402   -0.000031290
    2          6           0.000019981   -0.000027141   -0.000029826
    3          6           0.000057862    0.000015474   -0.000009291
    4          6           0.000023475   -0.000089396   -0.000029378
    5          6           0.000001162    0.000013818    0.000009438
    6          6           0.000006668    0.000029062   -0.000011966
    7          1           0.000003547    0.000017166    0.000020995
    8          1           0.000007120   -0.000029100    0.000019060
    9          1          -0.000004853    0.000016909   -0.000016868
   10          1           0.000019510   -0.000017470   -0.000011444
   11          1          -0.000000472   -0.000012852    0.000013716
   12          1           0.000038327   -0.000028085    0.000015042
   13          1           0.000017081   -0.000025533    0.000003122
   14          6          -0.000042430    0.000089340    0.000040321
   15          1          -0.000023510   -0.000008395    0.000018566
   16          1          -0.000042351   -0.000020459   -0.000011279
   17          1          -0.000001887   -0.000002128    0.000030096
   18          1          -0.000021253   -0.000003810    0.000002817
   19          6           0.000030914    0.000002855   -0.000011199
   20          8          -0.000014646   -0.000003172    0.000020045
   21          1          -0.000023201    0.000022082    0.000045824
   22          1           0.000012451    0.000005994   -0.000025377
   23          1          -0.000041054    0.000024438   -0.000051124
 -------------------------------------------------------------------
 Cartesian Forces:  Max     0.000089396 RMS     0.000027639

 GradGradGradGradGradGradGradGradGradGradGradGradGradGradGradGradGradGrad
 Berny optimization.
 Search for a local minimum.
 Step number   1 out of a maximum of   2
 All quantities printed in internal units (Hartrees-Bohrs-Radians)
 Second derivative matrix not updated -- unit matrix used.
 RFO step:  Lambda=-5.27118757D-08.
 Linear search not attempted -- first point.
 TrRot=  0.000000  0.000000  0.000000  0.000000  0.000000  0.000000
 Variable       Old X    -DE/DX   Delta X   Delta X   Delta X     New X
                                 (Linear)    (Quad)   (Total)
    X1        0.03330  -0.00002   0.00000  -0.00002  -0.00002   0.03328
    Y1       -2.54308   0.00003   0.00000   0.00003   0.00003  -2.54305
    Z1       -1.62888  -0.00003   0.00000  -0.00003  -0.00003  -1.62891
    X2        1.20730   0.00002   0.00000   0.00002   0.00002   1.20732
    Y2       -3.43543  -0.00003   0.00000  -0.00003  -0.00003  -3.43546
    Z2        0.87699  -0.00003   0.00000  -0.00003  -0.00003   0.87696
    X3        3.63874   0.00006   0.00000   0.00006   0.00006   3.63880
    Y3       -1.98434   0.00002   0.00000   0.00002   0.00002  -1.98432
    Z3        1.48278  -0.00001   0.00000  -0.00001  -0.00001   1.48277
    X4       -0.38419   0.00002   0.00000   0.00002   0.00002  -0.38416
    Y4        0.35214  -0.00009   0.00000  -0.00009  -0.00009   0.35205
    Z4       -1.71267  -0.00003   0.00000  -0.00003  -0.00003  -1.71270
    X5        3.17044   0.00000   0.00000   0.00000   0.00000   3.17045
    Y5        0.87274   0.00001   0.00000   0.00001   0.00001   0.87276
    Z5        1.49486   0.00001   0.00000   0.00001   0.00001   1.49487
    X6        2.09174   0.00001   0.00000   0.00001   0.00001   2.09174
    Y6        1.74513   0.00003   0.00000   0.00003   0.00003   1.74516
    Z6       -1.04930  -0.00001   0.00000  -0.00001  -0.00001  -1.04931
    X7       -1.78403   0.00000   0.00000   0.00000   0.00000  -1.78403
    Y7       -3.54666   0.00002   0.00000   0.00002   0.00002  -3.54664
    Z7       -1.95159   0.00002   0.00000   0.00002   0.00002  -1.95157
    X8        1.31875   0.00001   0.00000   0.00001   0.00001   1.31876
    Y8       -3.08711  -0.00003   0.00000  -0.00003  -0.00003  -3.08714
    Z8       -3.20110   0.00002   0.00000   0.00002   0.00002  -3.20108
    X9        1.64899   0.00000   0.00000   0.00000   0.00000   1.64899
    Y9       -5.48364   0.00002   0.00000   0.00002   0.00002  -5.48362
    Z9        0.73549  -0.00002   0.00000  -0.00002  -0.00002   0.73547
   X10       -0.15903   0.00002   0.00000   0.00002   0.00002  -0.15901
   Y10       -3.19773  -0.00002   0.00000  -0.00002  -0.00002  -3.19775
   Z10        2.45169  -0.00001   0.00000  -0.00001  -0.00001   2.45168
   X11        5.11314   0.00000   0.00000   0.00000   0.00000   5.11314
   Y11       -2.45305  -0.00001   0.00000  -0.00001  -0.00001  -2.45307
   Z11        0.05975   0.00001   0.00000   0.00001   0.00001   0.05976
   X12        4.34821   0.00004   0.00000   0.00004   0.00004   4.34825
   Y12       -2.57793  -0.00003   0.00000  -0.00003  -0.00003  -2.57796
   Z12        3.36791   0.00002   0.00000   0.00002   0.00002   3.36792
   X13       -0.86703   0.00002   0.00000   0.00002   0.00002  -0.86701
   Y13        0.84053  -0.00003   0.00000  -0.00003  -0.00003   0.84050
   Z13       -3.69938   0.00000   0.00000   0.00000   0.00000  -3.69937
   X14       -2.59299  -0.00004   0.00000  -0.00004  -0.00004  -2.59304
   Y14        1.23614   0.00009   0.00000   0.00009   0.00009   1.23623
   Z14       -0.09402   0.00004   0.00000   0.00004   0.00004  -0.09398
   X15        4.98541  -0.00002   0.00000  -0.00002  -0.00002   4.98538
   Y15        1.86685  -0.00001   0.00000  -0.00001  -0.00001   1.86685
   Z15        1.85230   0.00002   0.00000   0.00002   0.00002   1.85232
   X16        1.84431  -0.00004   0.00000  -0.00004  -0.00004   1.84426
   Y16        1.37359  -0.00002   0.00000  -0.00002  -0.00002   1.37357
   Z16        3.04610  -0.00001   0.00000  -0.00001  -0.00001   3.04609
   X17        3.51146   0.00000   0.00000   0.00000   0.00000   3.51145
   Y17        1.36832   0.00000   0.00000   0.00000   0.00000   1.36832
   Z17       -2.55382   0.00003   0.00000   0.00003   0.00003  -2.55379
   X18        1.79573  -0.00002   0.00000  -0.00002  -0.00002   1.79571
   Y18        3.82158   0.00000   0.00000   0.00000   0.00000   3.82157
   Z18       -1.01460   0.00000   0.00000   0.00000   0.00000  -1.01460
   X19       -3.49539   0.00003   0.00000   0.00003   0.00003  -3.49536
   Y19        3.92206   0.00000   0.00000   0.00000   0.00000   3.92206
   Z19       -0.24269  -0.00001   0.00000  -0.00001  -0.00001  -0.24270
   X20       -3.72677  -0.00001   0.00000  -0.00001  -0.00001  -3.72678
   Y20       -0.24299   0.00000   0.00000   0.00000   0.00000  -0.24300
   Z20        1.27080   0.00002   0.00000   0.00002   0.00002   1.27082
   X21       -5.29653  -0.00002   0.00000  -0.00002  -0.00002  -5.29656
   Y21        4.15469   0.00002   0.00000   0.00002   0.00002   4.15471
   Z21        0.81060   0.00005   0.00000   0.00005   0.00005   0.81064
   X22       -2.07191   0.00001   0.00000   0.00001   0.00001  -2.07190
   Y22        5.20923   0.00001   0.00000   0.00001   0.00001   5.20924
   Z22        0.59940  -0.00003   0.00000  -0.00003  -0.00003   0.59937
   X23       -3.81972  -0.00004   0.00000  -0.00004  -0.00004  -3.81976
   Y23        4.45334   0.00002   0.00000   0.00002   0.00002   4.45336
   Z23       -2.24558  -0.00005   0.00000  -0.00005  -0.00005  -2.24563
         Item               Value     Threshold  Converged?
 Maximum Force            0.000089     0.000450     YES
 RMS     Force            0.000028     0.000300     YES
 Maximum Displacement     0.000089     0.001800     YES
 RMS     Displacement     0.000028     0.001200     YES
 Predicted change in Energy=-2.635594D-08
 Optimization completed.
    -- Stationary point found.
 GradGradGradGradGradGradGradGradGradGradGradGradGradGradGradGradGradGrad

                          Input orientation:                          
 ---------------------------------------------------------------------
 Center     Atomic     Atomic              Coordinates (Angstroms)
 Number     Number      Type              X           Y           Z
 ---------------------------------------------------------------------
    1          6      10061003        0.017623   -1.345742   -0.861964
    2          6      10061003        0.638875   -1.817952    0.464085
    3          6      10061003        1.925537   -1.050067    0.784652
    4          6      10061003       -0.203302    0.186343   -0.906304
    5          6      10061003        1.677727    0.461836    0.791045
    6          6      10061003        1.106900    0.923482   -0.555267
    7          1      10011000       -0.944069   -1.876811   -1.032736
    8          1      10011000        0.697853   -1.633627   -1.693950
    9          1      10011000        0.872610   -2.901816    0.389203
   10          1      10011000       -0.084156   -1.692168    1.297377
   11          1      10011000        2.705757   -1.298100    0.031618
   12          1      10011000        2.300976   -1.364181    1.782221
   13          1      10011000       -0.458813    0.444788   -1.957626
   14          6      10061002       -1.372153    0.654138   -0.049754
   15          1      10011000        2.638164    0.987897    0.980197
   16          1      10011000        0.975965    0.726875    1.611928
   17          1      10011000        1.858183    0.724085   -1.351424
   18          1      10011000        0.950260    2.022290   -0.536905
   19          6      10061003       -1.849682    2.075465   -0.128427
   20          8      10081002       -1.972120   -0.128586    0.672477
   21          1      10011000       -2.802804    2.198568    0.428950
   22          1      10011000       -1.096407    2.756607    0.317187
   23          1      10011000       -2.021310    2.356606   -1.188310
 ---------------------------------------------------------------------
                    Distance matrix (angstroms):
                    1          2          3          4          5
     1  C    0.000000
     2  C    1.538618   0.000000
     3  C    2.537499   1.532289   0.000000
     4  C    1.548566   2.569909   2.986636   0.000000
     5  C    2.959007   2.526569   1.532090   2.548560   0.000000
     6  C    2.535737   2.962024   2.521991   1.543771   1.533465
     7  H    1.111778   2.179370   3.495861   2.195752   3.958442
     8  H    1.112560   2.166695   2.826874   2.178246   3.395043
     9  H    2.172047   1.111305   2.166567   3.517478   3.481932
    10  H    2.189320   1.110392   2.171185   2.898139   2.828487
    11  H    2.833165   2.174690   1.112351   3.397925   2.175075
    12  H    3.493673   2.169324   1.111200   3.987944   2.169149
    13  H    2.152548   3.491361   3.929351   1.112366   3.481420
    14  C    2.567232   3.227925   3.804643   1.522735   3.169494
    15  H    3.963163   3.483722   2.167803   3.503613   1.111286
    16  H    3.366645   2.811995   2.177979   2.832726   1.112009
    17  H    2.812723   3.353317   2.777583   2.176469   2.165990
    18  H    3.509860   3.980755   3.483827   2.199515   2.174321
    19  C    3.966051   4.658615   4.985473   2.623822   3.986457
    20  O    2.791963   3.116839   4.006674   2.391745   3.699194
    21  H    4.709926   5.289502   5.747813   3.548149   4.818974
    22  H    4.411431   4.894832   4.882769   2.983425   3.631300
    23  H    4.239237   5.218614   5.574549   2.845122   4.603355
                    6          7          8          9         10
     6  C    0.000000
     7  H    3.503725   0.000000
     8  H    2.828909   1.786687   0.000000
     9  H    3.947128   2.524454   2.445070   0.000000
    10  H    3.419434   2.490576   3.092410   1.789812   0.000000
    11  H    2.799322   3.845646   2.668679   2.461748   3.088859
    12  H    3.481819   4.326325   3.837495   2.518938   2.455912
    13  H    2.155740   2.545726   2.393160   4.298843   3.911776
    14  C    2.544365   2.748674   3.496022   4.228055   2.996473
    15  H    2.169463   5.009077   4.217613   4.312345   3.833325
    16  H    2.180030   4.178511   4.071626   3.830553   2.659806
    17  H    1.112678   3.836514   2.649999   4.141050   4.077635
    18  H    1.110069   4.363179   3.842941   5.011041   4.269872
    19  C    3.201661   4.154322   4.764258   5.696678   4.398302
    20  O    3.477724   2.649704   3.872193   3.982906   2.529763
    21  H    4.228512   4.711702   5.607764   6.286825   4.825250
    22  H    2.996012   4.828464   5.151524   5.991658   4.666587
    23  H    3.498612   4.371095   4.855047   6.205991   5.130671
                   11         12         13         14         15
    11  H    0.000000
    12  H    1.798005   0.000000
    13  H    4.124228   4.987510   0.000000
    14  C    4.521859   4.574016   2.125556   0.000000
    15  H    2.475914   2.507829   4.303143   4.153895   0.000000
    16  H    3.096786   2.481364   3.857444   2.877523   1.797254
    17  H    2.592377   3.791655   2.411215   3.483433   2.472737
    18  H    3.798681   4.320991   2.548029   2.739117   2.494111
    19  C    5.670854   5.719240   2.817727   1.501464   4.748960
    20  O    4.864257   4.584493   3.088089   1.222389   4.753519
    21  H    6.536728   6.369701   3.777007   2.158978   5.601227
    22  H    5.565847   5.537999   3.305420   2.151990   4.185086
    23  H    6.098382   6.430433   2.586172   2.148514   5.318504
                   16         17         18         19         20
    16  H    0.000000
    17  H    3.091888   0.000000
    18  H    2.509232   1.781321   0.000000
    19  C    3.582152   4.131612   2.830081   0.000000
    20  O    3.210231   4.415251   3.824811   2.348250   0.000000
    21  H    4.224265   5.202753   3.879361   1.110975   2.482939
    22  H    3.176617   3.955378   2.336138   1.109031   3.036024
    23  H    4.413730   4.212149   3.060445   1.109887   3.105017
                   21         22         23
    21  H    0.000000
    22  H    1.798802   0.000000
    23  H    1.803120   1.811620   0.000000
 Stoichiometry    C8H14O
 Framework group  C1[X(C8H14O)]
 Deg. of freedom    63
 Full point group                 C1
 Largest Abelian subgroup         C1      NOp   1
 Largest concise Abelian subgroup C1      NOp   1
                         Standard orientation:                         
 ---------------------------------------------------------------------
 Center     Atomic     Atomic              Coordinates (Angstroms)
 Number     Number      Type              X           Y           Z
 ---------------------------------------------------------------------
    1          6      10061003       -0.677410   -1.107085    0.973756
    2          6      10061003       -1.610278   -1.128942   -0.249610
    3          6      10061003       -2.243057    0.244646   -0.496099
    4          6      10061003        0.392041    0.009742    0.889927
    5          6      10061003       -1.169637    1.329420   -0.631510
    6          6      10061003       -0.281156    1.372048    0.617609
    7          1      10011000       -0.187884   -2.098884    1.086676
    8          1      10011000       -1.293483   -0.945136    1.885905
    9          1      10011000       -2.416665   -1.873954   -0.077288
   10          1      10011000       -1.053542   -1.447595   -1.155963
   11          1      10011000       -2.926224    0.497237    0.344618
   12          1      10011000       -2.846874    0.208105   -1.428213
   13          1      10011000        0.873299    0.070858    1.890934
   14          6      10061002        1.503571   -0.290496   -0.106607
   15          1      10011000       -1.663242    2.316418   -0.762453
   16          1      10011000       -0.548069    1.136355   -1.533144
   17          1      10011000       -0.907693    1.647318    1.494952
   18          1      10011000        0.478401    2.174097    0.507860
   19          6      10061003        2.720191    0.586853   -0.173607
   20          8      10081002        1.448955   -1.276064   -0.827653
   21          1      10011000        3.494047    0.131978   -0.828206
   22          1      10011000        2.452816    1.579329   -0.590083
   23          1      10011000        3.147890    0.715268    0.842480
 ---------------------------------------------------------------------
 Rotational constants (GHZ):      2.5481360      1.2987954      1.1018661
 1|1|UNPC-UNK|FOpt|UFF|ZDO|C8H14O1|PCUSER|13-Dec-2007|0||# opt uff||cyc
 lohexylmethylketone-ax||0,1|C,0.0176233326,-1.3457417576,-0.8619641346
 |C,0.6388754973,-1.8179524954,0.4640852573|C,1.9255369045,-1.050066610
 7,0.784651682|C,-0.2033020167,0.1863430531,-0.9063040268|C,1.677727122
 4,0.4618363763,0.7910447416|C,1.1068998818,0.9234815245,-0.5552669467|
 H,-0.9440693947,-1.8768112563,-1.0327358905|H,0.6978525345,-1.63362728
 82,-1.6939496678|H,0.8726101442,-2.9018160318,0.3892029028|H,-0.084155
 7142,-1.692168339,1.2973766968|H,2.705757352,-1.2980998875,0.031618323
 3|H,2.3009761228,-1.3641806863,1.7822208098|H,-0.4588134333,0.44478848
 17,-1.9576255777|C,-1.3721531798,0.6541376436,-0.049754463|H,2.6381644
 066,0.9878965468,0.9801969396|H,0.9759649775,0.7268745232,1.6119279053
 |H,1.8581828723,0.7240845396,-1.3514243933|H,0.9502604645,2.0222904024
 ,-0.5369045405|C,-1.8496823443,2.0754648532,-0.128427314|O,-1.97211985
 52,-0.1285858513,0.6724769098|H,-2.802804378,2.1985676563,0.4289500549
 |H,-1.0964073267,2.7566071787,0.3171865076|H,-2.02130975,2.356606095,-
 1.1883104457||Version=IA32W-G03RevD.01|HF=0.0193406|RMSD=0.000e+000|RM
 SF=2.764e-005|Thermal=0.|Dipole=0.,0.,0.|PG=C01 [X(C8H14O1)]||@


 Everywhere is walking distance if you have the time.
                                    -- Steven Wright
 Job cpu time:  0 days  0 hours  0 minutes  3.0 seconds.
 File lengths (MBytes):  RWF=     11 Int=      0 D2E=      0 Chk=      4 Scr=      1
 Normal termination of Gaussian 03 at Thu Dec 13 15:27:08 2007.
