 Entering Link 1 = C:\G03W\l1.exe PID=      3544.
  
 Copyright (c) 1988,1990,1992,1993,1995,1998,2003,2004, Gaussian, Inc.
                  All Rights Reserved.
  
 This is the Gaussian(R) 03 program.  It is based on the
 the Gaussian(R) 98 system (copyright 1998, Gaussian, Inc.),
 the Gaussian(R) 94 system (copyright 1995, Gaussian, Inc.),
 the Gaussian 92(TM) system (copyright 1992, Gaussian, Inc.),
 the Gaussian 90(TM) system (copyright 1990, Gaussian, Inc.),
 the Gaussian 88(TM) system (copyright 1988, Gaussian, Inc.),
 the Gaussian 86(TM) system (copyright 1986, Carnegie Mellon
 University), and the Gaussian 82(TM) system (copyright 1983,
 Carnegie Mellon University). Gaussian is a federally registered
 trademark of Gaussian, Inc.
  
 This software contains proprietary and confidential information,
 including trade secrets, belonging to Gaussian, Inc.
  
 This software is provided under written license and may be
 used, copied, transmitted, or stored only in accord with that
 written license.
  
 The following legend is applicable only to US Government
 contracts under FAR:
  
                    RESTRICTED RIGHTS LEGEND
  
 Use, reproduction and disclosure by the US Government is
 subject to restrictions as set forth in subparagraphs (a)
 and (c) of the Commercial Computer Software - Restricted
 Rights clause in FAR 52.227-19.
  
 Gaussian, Inc.
 340 Quinnipiac St., Bldg. 40, Wallingford CT 06492
  
  
 ---------------------------------------------------------------
 Warning -- This program may not be used in any manner that
 competes with the business of Gaussian, Inc. or will provide
 assistance to any competitor of Gaussian, Inc.  The licensee
 of this program is prohibited from giving any competitor of
 Gaussian, Inc. access to this program.  By using this program,
 the user acknowledges that Gaussian, Inc. is engaged in the
 business of creating and licensing software in the field of
 computational chemistry and represents and warrants to the
 licensee that it is not a competitor of Gaussian, Inc. and that
 it will not use this program in any manner prohibited above.
 ---------------------------------------------------------------
  

 Cite this work as:
 Gaussian 03, Revision D.01,
 M. J. Frisch, G. W. Trucks, H. B. Schlegel, G. E. Scuseria, 
 M. A. Robb, J. R. Cheeseman, J. A. Montgomery, Jr., T. Vreven, 
 K. N. Kudin, J. C. Burant, J. M. Millam, S. S. Iyengar, J. Tomasi, 
 V. Barone, B. Mennucci, M. Cossi, G. Scalmani, N. Rega, 
 G. A. Petersson, H. Nakatsuji, M. Hada, M. Ehara, K. Toyota, 
 R. Fukuda, J. Hasegawa, M. Ishida, T. Nakajima, Y. Honda, O. Kitao, 
 H. Nakai, M. Klene, X. Li, J. E. Knox, H. P. Hratchian, J. B. Cross, 
 V. Bakken, C. Adamo, J. Jaramillo, R. Gomperts, R. E. Stratmann, 
 O. Yazyev, A. J. Austin, R. Cammi, C. Pomelli, J. W. Ochterski, 
 P. Y. Ayala, K. Morokuma, G. A. Voth, P. Salvador, J. J. Dannenberg, 
 V. G. Zakrzewski, S. Dapprich, A. D. Daniels, M. C. Strain, 
 O. Farkas, D. K. Malick, A. D. Rabuck, K. Raghavachari, 
 J. B. Foresman, J. V. Ortiz, Q. Cui, A. G. Baboul, S. Clifford, 
 J. Cioslowski, B. B. Stefanov, G. Liu, A. Liashenko, P. Piskorz, 
 I. Komaromi, R. L. Martin, D. J. Fox, T. Keith, M. A. Al-Laham, 
 C. Y. Peng, A. Nanayakkara, M. Challacombe, P. M. W. Gill, 
 B. Johnson, W. Chen, M. W. Wong, C. Gonzalez, and J. A. Pople, 
 Gaussian, Inc., Wallingford CT, 2004.
 
 ******************************************
 Gaussian 03:  IA32W-G03RevD.01 13-Oct-2005
                13-Dec-2007 
 ******************************************
 ---------
 # opt uff
 ---------
 1/6=10,10=10,14=-1,18=4000020,38=1,56=1,64=2/1,3;
 2/9=110,17=6,18=5,40=1/2;
 3/5=30,11=9,16=1,25=1,30=1/1;
 4/20=10,22=1001,24=3/2;
 7/44=-1/16;
 1/6=10,10=10,14=-1,18=4000020,64=2/3(2);
 2/9=110/2;
 99//99;
 2/9=110/2;
 3/5=30,11=9,16=1,25=1,30=1/1;
 4/16=2,20=10,22=1001,24=3/2;
 7/44=-1/16;
 1/6=10,10=10,14=-1,18=4000020,64=2/3(-4);
 2/9=110/2;
 99//99;
 --------------------
 fluorocyclohexane-eq
 --------------------
 Symbolic Z-matrix:
 Charge =  0 Multiplicity = 1
 C                    -0.85957  -0.94154  -0.35507 
 C                    -0.11457  -1.46954   0.88093 
 C                     1.32543  -0.93754   0.91993 
 C                    -0.83757   0.59246  -0.38107 
 C                     1.34743   0.59846   0.88093 
 C                     0.60143   1.12346  -0.35507 
 H                    -1.91357  -1.30654  -0.35107 
 H                    -0.37457  -1.33854  -1.27807 
 H                    -0.10857  -2.58554   0.87293 
 H                     1.89343  -1.33854   0.04793 
 H                     1.83943  -1.30054   1.84193 
 H                    -1.40357   0.99246   0.49393 
 H                     2.40243   0.96446   0.87293 
 H                     0.86743   1.00146   1.80393 
 H                     1.13743   0.79846  -1.27807 
 H                     0.59443   2.24046  -0.35107 
 H                    -0.65457  -1.15154   1.80393 
 F                    -1.45057   1.02546  -1.55807 
 
 Include all MM classes
 MMInit generated parameter data with length LenPar=  2201.

 GradGradGradGradGradGradGradGradGradGradGradGradGradGradGradGradGradGrad
 Berny optimization.
 Initialization pass.
 No Z-matrix variables, so optimization will use Cartesian coordinates.
 Trust Radius=1.00D-01 FncErr=1.00D-07 GrdErr=1.00D-07
 Number of steps in this run=   2 maximum allowed number of steps=   2.
 GradGradGradGradGradGradGradGradGradGradGradGradGradGradGradGradGradGrad

                          Input orientation:                          
 ---------------------------------------------------------------------
 Center     Atomic     Atomic              Coordinates (Angstroms)
 Number     Number      Type              X           Y           Z
 ---------------------------------------------------------------------
    1          6      10061003       -0.859571   -0.941536   -0.355071
    2          6      10061003       -0.114571   -1.469536    0.880929
    3          6      10061003        1.325429   -0.937536    0.919929
    4          6      10061003       -0.837571    0.592464   -0.381071
    5          6      10061003        1.347429    0.598464    0.880929
    6          6      10061003        0.601429    1.123464   -0.355071
    7          1      10011000       -1.913571   -1.306536   -0.351071
    8          1      10011000       -0.374571   -1.338536   -1.278071
    9          1      10011000       -0.108571   -2.585536    0.872929
   10          1      10011000        1.893429   -1.338536    0.047929
   11          1      10011000        1.839429   -1.300536    1.841929
   12          1      10011000       -1.403571    0.992464    0.493929
   13          1      10011000        2.402429    0.964464    0.872929
   14          1      10011000        0.867429    1.001464    1.803929
   15          1      10011000        1.137429    0.798464   -1.278071
   16          1      10011000        0.594429    2.240464   -0.351071
   17          1      10011000       -0.654571   -1.151536    1.803929
   18          9      10091000       -1.450571    1.025464   -1.558071
 ---------------------------------------------------------------------
                    Distance matrix (angstroms):
                    1          2          3          4          5
     1  C    0.000000
     2  C    1.536719   0.000000
     3  C    2.529796   1.535625   0.000000
     4  C    1.534378   2.523335   2.951622   0.000000
     5  C    2.961443   2.532601   1.536653   2.523273   0.000000
     6  C    2.529574   2.960406   2.529332   1.534066   1.536176
     7  H    1.115418   2.186503   3.498960   2.182860   3.972527
     8  H    1.115689   2.178541   2.807491   2.178931   3.373208
     9  H    2.185113   1.116045   2.185056   3.493371   3.501122
    10  H    2.810521   2.177869   1.115262   3.372116   2.178067
    11  H    3.498613   2.184078   1.116266   3.961251   2.184442
    12  H    2.181076   2.805839   3.369543   1.116235   2.805888
    13  H    3.972589   3.501387   2.186262   3.494066   1.116712
    14  H    3.379210   2.814621   2.179665   2.801523   1.115678
    15  H    2.804913   3.372330   2.807177   2.178915   2.178390
    16  H    3.498465   3.972984   3.499927   2.183444   2.186549
    17  H    2.178854   1.115640   2.178911   2.801651   2.814682
    18  F    2.380248   3.736127   4.207140   1.395918   3.736289
                    6          7          8          9         10
     6  C    0.000000
     7  H    3.497162   0.000000
     8  H    2.804630   1.796907   0.000000
     9  H    3.970990   2.528249   2.500513   0.000000
    10  H    2.809469   3.827986   2.627185   2.498727   0.000000
    11  H    3.497889   4.346757   3.825917   2.526834   1.795215
    12  H    2.181281   2.501904   3.103609   3.823970   4.062350
    13  H    2.185604   5.028267   4.200278   4.348289   2.498703
    14  H    2.178743   4.207713   4.064097   3.832219   3.100292
    15  H    1.115728   3.820858   2.617807   4.198901   2.626134
    16  H    1.117029   4.344108   3.821980   5.028187   3.828295
    17  H    3.378527   2.500626   3.100338   1.794779   3.100130
    18  F    2.380655   2.666354   2.612407   4.555222   4.398871
                   11         12         13         14         15
    11  H    0.000000
    12  H    4.194282   0.000000
    13  H    2.527084   3.824926   0.000000
    14  H    2.499086   2.621759   1.795649   0.000000
    15  H    3.825311   3.103917   2.500916   3.100457   0.000000
    16  H    4.347178   2.502705   2.528876   2.500735   1.798205
    17  H    2.498736   2.621800   3.832684   2.636644   4.063556
    18  F    5.272037   2.052803   4.556215   4.083717   2.612982
                   16         17         18
    16  H    0.000000
    17  H    4.208288   0.000000
    18  F    2.667414   4.083624   0.000000
 Stoichiometry    C6H11F
 Framework group  C1[X(C6H11F)]
 Deg. of freedom    48
 Full point group                 C1
 Largest Abelian subgroup         C1      NOp   1
 Largest concise Abelian subgroup C1      NOp   1
                         Standard orientation:                         
 ---------------------------------------------------------------------
 Center     Atomic     Atomic              Coordinates (Angstroms)
 Number     Number      Type              X           Y           Z
 ---------------------------------------------------------------------
    1          6      10061003       -0.345448   -1.264963   -0.178783
    2          6      10061003        1.139284   -1.266256    0.217542
    3          6      10061003        1.842729   -0.000642   -0.293860
    4          6      10061003       -1.039542    0.000389    0.342209
    5          6      10061003        1.139622    1.266345    0.217692
    6          6      10061003       -0.344395    1.264611   -0.179204
    7          1      10011000       -0.851029   -2.171406    0.229757
    8          1      10011000       -0.432647   -1.309079   -1.290185
    9          1      10011000        1.641498   -2.174107   -0.193729
   10          1      10011000        1.842124   -0.000122   -1.409122
   11          1      10011000        2.909712   -0.000494    0.034156
   12          1      10011000       -1.035339    0.000207    1.458436
   13          1      10011000        1.642895    2.174183   -0.194124
   14          1      10011000        1.227306    1.318247    1.328708
   15          1      10011000       -0.431520    1.308727   -1.290650
   16          1      10011000       -0.850194    2.172702    0.229811
   17          1      10011000        1.227013   -1.318397    1.328505
   18          9      10091000       -2.360369    0.000292   -0.109460
 ---------------------------------------------------------------------
 Rotational constants (GHZ):      4.2582292      2.1792476      1.5844416
 Standard basis: Dummy (5D, 7F)
 There are    18 symmetry adapted basis functions of A   symmetry.
 Integral buffers will be    262144 words long.
 Raffenetti 1 integral format.
 Two-electron integral symmetry is turned on.
    18 basis functions,    18 primitive gaussians,    18 cartesian basis functions
    12 alpha electrons       12 beta electrons
       nuclear repulsion energy        61.3079662953 Hartrees.
 NAtoms=   18 NActive=   18 NUniq=   18 SFac= 7.50D-01 NAtFMM=   80 NAOKFM=F Big=F
 UFF calculation of energy and first derivatives.
 MO and density RWFs will be updated without deorthogonalization.
 NRF= 0 NRA=   0 NVA=  18 HaveQM=F
 Convergence limit is  0.750E-04 MaxStp=  5000 StMxLn= 1.00D-04 StpMin= 1.00D-06.
 Convergence criteria           0.00011250 0.00007500 0.00045000 0.00030000
  Step  NS  ND Rises OKQ   Scale  Max. Force  RMS Force Max. Disp.  RMS Disp.     Energy   Flag
     1   0   0   F    T  1.00D+00 0.01292783 0.00288156 0.01292783 0.00288156    0.0112800 ----
     2   0   0   F    F  1.32D-01 0.01292783 0.00288156 0.01292783 0.00288156    0.0110296 ----
     3   0   0   F    T  2.53D+00 0.00347023 0.00119300 0.00376146 0.00129120    0.0110262 ----
     4   0   0   F    F  4.03D-01 0.00347023 0.00119300 0.00950003 0.00326109    0.0109013 ----
     5   0   0   F    T  2.07D+00 0.00440504 0.00137741 0.00647013 0.00220664    0.0108901 ----
     6   0   0   F    F -4.30D-02 0.00440504 0.00137741 0.01341423 0.00457493    0.0107887 ----
     7   0   0   F    T  6.33D+00 0.00130237 0.00057462 0.00178731 0.00069176    0.0107884 ----
     8   0   0   F    F -4.24D-01 0.00130237 0.00057462 0.01131226 0.00437833    0.0107735 ----
     9   0   0   F    T  2.15D+00 0.00307996 0.00067677 0.00293537 0.00117385    0.0107559 ----
    10   0   0   F    F  3.00D-01 0.00307996 0.00067677 0.00630965 0.00252323    0.0107232 ----
    11   0   0   F    T  9.94D+00 0.00056727 0.00027175 0.00083556 0.00033003    0.0107214 ----
    12   0   0   T    F  3.83D-01 0.00056727 0.00027175 0.00830376 0.00327988    0.0107334 ----
    13   0   0   F    T  2.21D+00 0.00091918 0.00032331 0.00140682 0.00056809    0.0107138 ----
    14   0   0   F    F  6.14D-01 0.00091918 0.00032331 0.00311322 0.00125716    0.0107052 ----
    15   0   0   F    T  2.65D+00 0.00094652 0.00035360 0.00192700 0.00076631    0.0107037 ----
    16   0   0   F    F  2.50D-01 0.00094652 0.00035360 0.00510165 0.00202877    0.0106930 ----
    17   0   0   F    T  3.05D+00 0.00112256 0.00035021 0.00202210 0.00083099    0.0106925 ----
    18   0   0   F    F -2.60D-01 0.00112256 0.00035021 0.00617213 0.00253645    0.0106860 ----
    19   0   0   F    T  4.22D+00 0.00062633 0.00023548 0.00109757 0.00044470    0.0106851 ----
    20   0   0   F    F -4.21D-02 0.00062633 0.00023548 0.00463070 0.00187620    0.0106790 ----
    21   0   0   F    T  2.96D+00 0.00101126 0.00026109 0.00149958 0.00060616    0.0106790 ----
    22   0   0   F    F -1.03D-01 0.00101126 0.00026109 0.00444595 0.00179713    0.0106742 ----
    23   0   0   F    T  6.40D+00 0.00045238 0.00015067 0.00061374 0.00025208    0.0106741 ---+
    24   0   0   T    F  3.50D-01 0.00045238 0.00015067 0.00392518 0.00161217    0.0106775 ----
    25   0   0   F    T  2.75D+00 0.00033810 0.00012199 0.00052596 0.00020539    0.0106727 ---+
    26   0   0   F    T  2.81D+00 0.00032443 0.00011213 0.00046463 0.00020069    0.0106716 ---+
    27   0   0   F    F -1.35D-01 0.00032443 0.00011213 0.00130557 0.00056392    0.0106707 ----
    28   0   0   F    T  4.75D+00 0.00022063 0.00006324 0.00023041 0.00010271    0.0106707 -+++
    29   0   0   T    F  3.56D-01 0.00022063 0.00006324 0.00109401 0.00048770    0.0106711 -+--
    30   0   0   F    T  3.84D+00 0.00009735 0.00003466 0.00011330 0.00004521    0.0106705 ====
 Energy=    0.010670532263 NIter=   0.
 Dipole moment=       0.000000       0.000000       0.000000
 ***** Axes restored to original set *****
 -------------------------------------------------------------------
 Center     Atomic                   Forces (Hartrees/Bohr)
 Number     Number              X              Y              Z
 -------------------------------------------------------------------
    1          6          -0.000003315    0.000029640    0.000036030
    2          6           0.000012537    0.000042397    0.000042640
    3          6           0.000016739   -0.000014000    0.000044929
    4          6          -0.000025202    0.000065175   -0.000014481
    5          6          -0.000017009   -0.000052294    0.000067668
    6          6          -0.000028084   -0.000011261    0.000046854
    7          1          -0.000043797   -0.000009146   -0.000025664
    8          1           0.000041317    0.000038894    0.000024397
    9          1           0.000027986   -0.000059115   -0.000078016
   10          1           0.000000777    0.000002936   -0.000006387
   11          1          -0.000001255    0.000005475   -0.000018693
   12          1          -0.000007151   -0.000003900   -0.000044194
   13          1           0.000057541   -0.000001623   -0.000086307
   14          1           0.000001378    0.000019294    0.000007211
   15          1          -0.000029737   -0.000054404    0.000028291
   16          1          -0.000016803    0.000041307   -0.000030552
   17          1          -0.000015001   -0.000005531    0.000015043
   18          9           0.000029080   -0.000033843   -0.000008770
 -------------------------------------------------------------------
 Cartesian Forces:  Max     0.000086307 RMS     0.000034656

 GradGradGradGradGradGradGradGradGradGradGradGradGradGradGradGradGradGrad
 Berny optimization.
 Search for a local minimum.
 Step number   1 out of a maximum of   2
 All quantities printed in internal units (Hartrees-Bohrs-Radians)
 Second derivative matrix not updated -- unit matrix used.
 RFO step:  Lambda=-6.48568444D-08.
 Linear search not attempted -- first point.
 TrRot=  0.000000  0.000000  0.000000  0.000000  0.000000  0.000000
 Variable       Old X    -DE/DX   Delta X   Delta X   Delta X     New X
                                 (Linear)    (Quad)   (Total)
    X1       -1.62009   0.00000   0.00000   0.00000   0.00000  -1.62010
    Y1       -1.78085   0.00003   0.00000   0.00003   0.00003  -1.78082
    Z1       -0.66966   0.00004   0.00000   0.00004   0.00004  -0.66963
    X2       -0.21290   0.00001   0.00000   0.00001   0.00001  -0.21289
    Y2       -2.77507   0.00004   0.00000   0.00004   0.00004  -2.77503
    Z2        1.66162   0.00004   0.00000   0.00004   0.00004   1.66167
    X3        2.50509   0.00002   0.00000   0.00002   0.00002   2.50510
    Y3       -1.77114  -0.00001   0.00000  -0.00001  -0.00001  -1.77116
    Z3        1.74233   0.00004   0.00000   0.00004   0.00004   1.74238
    X4       -1.58100  -0.00003   0.00000  -0.00003  -0.00003  -1.58102
    Y4        1.11813   0.00007   0.00000   0.00007   0.00007   1.11820
    Z4       -0.75023  -0.00001   0.00000  -0.00001  -0.00001  -0.75024
    X5        2.54567  -0.00002   0.00000  -0.00002  -0.00002   2.54565
    Y5        1.12606  -0.00005   0.00000  -0.00005  -0.00005   1.12601
    Z5        1.66135   0.00007   0.00000   0.00007   0.00007   1.66142
    X6        1.13928  -0.00003   0.00000  -0.00003  -0.00003   1.13925
    Y6        2.12116  -0.00001   0.00000  -0.00001  -0.00001   2.12115
    Z6       -0.67001   0.00005   0.00000   0.00005   0.00005  -0.66996
    X7       -3.61058  -0.00004   0.00000  -0.00004  -0.00004  -3.61062
    Y7       -2.44738  -0.00001   0.00000  -0.00001  -0.00001  -2.44739
    Z7       -0.61056  -0.00003   0.00000  -0.00003  -0.00003  -0.61059
    X8       -0.72997   0.00004   0.00000   0.00004   0.00004  -0.72993
    Y8       -2.55157   0.00004   0.00000   0.00004   0.00004  -2.55153
    Z8       -2.41121   0.00002   0.00000   0.00002   0.00002  -2.41118
    X9       -0.17619   0.00003   0.00000   0.00003   0.00003  -0.17616
    Y9       -4.87378  -0.00006   0.00000  -0.00006  -0.00006  -4.87384
    Z9        1.60797  -0.00008   0.00000  -0.00008  -0.00008   1.60789
   X10        3.59001   0.00000   0.00000   0.00000   0.00000   3.59001
   Y10       -2.53848   0.00000   0.00000   0.00000   0.00000  -2.53847
   Z10        0.11372  -0.00001   0.00000  -0.00001  -0.00001   0.11372
   X11        3.43484   0.00000   0.00000   0.00000   0.00000   3.43484
   Y11       -2.42855   0.00001   0.00000   0.00001   0.00001  -2.42854
   Z11        3.50679  -0.00002   0.00000  -0.00002  -0.00002   3.50677
   X12       -2.65253  -0.00001   0.00000  -0.00001  -0.00001  -2.65254
   Y12        1.87615   0.00000   0.00000   0.00000   0.00000   1.87615
   Z12        0.89185  -0.00004   0.00000  -0.00004  -0.00004   0.89181
   X13        4.53665   0.00006   0.00000   0.00006   0.00006   4.53671
   Y13        1.79088   0.00000   0.00000   0.00000   0.00000   1.79088
   Z13        1.60778  -0.00009   0.00000  -0.00009  -0.00009   1.60769
   X14        1.65461   0.00000   0.00000   0.00000   0.00000   1.65461
   Y14        1.89292   0.00002   0.00000   0.00002   0.00002   1.89294
   Z14        3.40382   0.00001   0.00000   0.00001   0.00001   3.40382
   X15        2.16257  -0.00003   0.00000  -0.00003  -0.00003   2.16254
   Y15        1.53859  -0.00005   0.00000  -0.00005  -0.00005   1.53853
   Z15       -2.41152   0.00003   0.00000   0.00003   0.00003  -2.41150
   X16        1.10451  -0.00002   0.00000  -0.00002  -0.00002   1.10449
   Y16        4.22000   0.00004   0.00000   0.00004   0.00004   4.22004
   Z16       -0.61109  -0.00003   0.00000  -0.00003  -0.00003  -0.61112
   X17       -1.23283  -0.00002   0.00000  -0.00002  -0.00002  -1.23285
   Y17       -2.19056  -0.00001   0.00000  -0.00001  -0.00001  -2.19057
   Z17        3.40410   0.00002   0.00000   0.00002   0.00002   3.40412
   X18       -2.74697   0.00003   0.00000   0.00003   0.00003  -2.74694
   Y18        1.94263  -0.00003   0.00000  -0.00003  -0.00003   1.94260
   Z18       -2.94115  -0.00001   0.00000  -0.00001  -0.00001  -2.94116
         Item               Value     Threshold  Converged?
 Maximum Force            0.000086     0.000450     YES
 RMS     Force            0.000035     0.000300     YES
 Maximum Displacement     0.000086     0.001800     YES
 RMS     Displacement     0.000035     0.001200     YES
 Predicted change in Energy=-3.242842D-08
 Optimization completed.
    -- Stationary point found.
 GradGradGradGradGradGradGradGradGradGradGradGradGradGradGradGradGradGrad

                          Input orientation:                          
 ---------------------------------------------------------------------
 Center     Atomic     Atomic              Coordinates (Angstroms)
 Number     Number      Type              X           Y           Z
 ---------------------------------------------------------------------
    1          6      10061003       -0.857316   -0.942383   -0.354370
    2          6      10061003       -0.112662   -1.468506    0.879293
    3          6      10061003        1.325635   -0.937249    0.922003
    4          6      10061003       -0.836627    0.591690   -0.397003
    5          6      10061003        1.347109    0.595886    0.879150
    6          6      10061003        0.602880    1.122468   -0.354554
    7          1      10011000       -1.910634   -1.295100   -0.323096
    8          1      10011000       -0.386283   -1.350234   -1.275955
    9          1      10011000       -0.093234   -2.579093    0.850901
   10          1      10011000        1.899749   -1.343305    0.060179
   11          1      10011000        1.817640   -1.285131    1.855711
   12          1      10011000       -1.403660    0.992816    0.471947
   13          1      10011000        2.400691    0.947694    0.850801
   14          1      10011000        0.875582    1.001691    1.801222
   15          1      10011000        1.144384    0.814185   -1.276124
   16          1      10011000        0.584480    2.233128   -0.323375
   17          1      10011000       -0.652386   -1.159195    1.801374
   18          9      10091000       -1.453633    1.027995   -1.556391
 ---------------------------------------------------------------------
                    Distance matrix (angstroms):
                    1          2          3          4          5
     1  C    0.000000
     2  C    1.534028   0.000000
     3  C    2.528721   1.533869   0.000000
     4  C    1.534805   2.529322   2.958515   0.000000
     5  C    2.957589   2.528368   1.533884   2.529286   0.000000
     6  C    2.528989   2.957622   2.528716   1.534832   1.534011
     7  H    1.111245   2.169911   3.485938   2.172310   3.954000
     8  H    1.112445   2.175765   2.816423   2.178632   3.381791
     9  H    2.171478   1.111119   2.171150   3.487658   3.486528
    10  H    2.816736   2.176332   1.112308   3.382451   2.176369
    11  H    3.486736   2.170964   1.111261   3.955037   2.171013
    12  H    2.174003   2.809042   3.372945   1.112431   2.808933
    13  H    3.954673   3.486513   2.171135   3.487690   1.111128
    14  H    3.380672   2.815751   2.176020   2.816373   1.112310
    15  H    2.818149   3.381814   2.816405   2.178707   2.175766
    16  H    3.487637   3.954051   3.485911   2.172392   2.169846
    17  H    2.176289   1.112299   2.176033   2.816452   2.815810
    18  F    2.383871   3.736748   4.210576   1.383922   3.736674
                    6          7          8          9         10
     6  C    0.000000
     7  H    3.487603   0.000000
     8  H    2.818098   1.798507   0.000000
     9  H    3.954649   2.515919   2.473760   0.000000
    10  H    2.816719   3.829914   2.647876   2.474752   0.000000
    11  H    3.486753   4.318256   3.829994   2.517027   1.798349
    12  H    2.173964   2.474606   3.095174   3.823527   4.066882
    13  H    2.171531   4.999568   4.191752   4.319477   2.474813
    14  H    2.176309   4.189389   4.073435   3.829325   3.095021
    15  H    1.112455   3.832816   2.650972   4.191690   2.647837
    16  H    1.111250   4.321341   3.832789   4.999569   3.829872
    17  H    3.380784   2.472859   3.094715   1.797821   3.095004
    18  F    2.383817   2.669576   2.621804   4.544978   4.413789
                   11         12         13         14         15
    11  H    0.000000
    12  H    4.180984   0.000000
    13  H    2.517002   3.823435   0.000000
    14  H    2.473864   2.638560   1.797824   0.000000
    15  H    3.829986   3.095189   2.473851   3.094749   0.000000
    16  H    4.318246   2.474594   2.515880   2.472871   1.798506
    17  H    2.473832   2.638738   3.829340   2.646529   4.073525
    18  F    5.262530   2.029258   4.544979   4.086502   2.621823
                   16         17         18
    16  H    0.000000
    17  H    4.189541   0.000000
    18  F    2.669565   4.086610   0.000000
 Stoichiometry    C6H11F
 Framework group  C1[X(C6H11F)]
 Deg. of freedom    48
 Full point group                 C1
 Largest Abelian subgroup         C1      NOp   1
 Largest concise Abelian subgroup C1      NOp   1
                         Standard orientation:                         
 ---------------------------------------------------------------------
 Center     Atomic     Atomic              Coordinates (Angstroms)
 Number     Number      Type              X           Y           Z
 ---------------------------------------------------------------------
    1          6      10061003       -0.342119   -1.264510   -0.179015
    2          6      10061003        1.139811   -1.264166    0.217374
    3          6      10061003        1.844892    0.000049   -0.289952
    4          6      10061003       -1.048097   -0.000043    0.329262
    5          6      10061003        1.139701    1.264203    0.217415
    6          6      10061003       -0.342190    1.264479   -0.179056
    7          1      10011000       -0.835895   -2.160671    0.254513
    8          1      10011000       -0.431667   -1.325496   -1.286171
    9          1      10011000        1.635933   -2.159703   -0.214437
   10          1      10011000        1.857597    0.000044   -1.402187
   11          1      10011000        2.898074    0.000056    0.064601
   12          1      10011000       -1.049614    0.000025    1.441692
   13          1      10011000        1.635878    2.159774   -0.214287
   14          1      10011000        1.230160    1.323234    1.324468
   15          1      10011000       -0.431688    1.325476   -1.286226
   16          1      10011000       -0.835953    2.160670    0.254436
   17          1      10011000        1.230300   -1.323295    1.324408
   18          9      10091000       -2.361679   -0.000020   -0.106331
 ---------------------------------------------------------------------
 Rotational constants (GHZ):      4.2752634      2.1780924      1.5840369
 1|1|UNPC-UNK|FOpt|UFF|ZDO|C6H11F1|PCUSER|13-Dec-2007|0||# opt uff||flu
 orocyclohexane-eq||0,1|C,-0.8573164113,-0.9423833157,-0.3543698511|C,-
 0.1126618456,-1.4685063856,0.879293496|C,1.3256347243,-0.9372494648,0.
 9220033145|C,-0.836627285,0.591690245,-0.3970028075|C,1.3471093371,0.5
 958857158,0.8791498382|C,0.6028801354,1.1224677676,-0.3545536174|H,-1.
 9106340733,-1.2951000162,-0.3230961925|H,-0.3862830379,-1.3502339262,-
 1.2759552926|H,-0.0932343062,-2.5790927893,0.8509007479|H,1.8997491297
 ,-1.3433046196,0.0601793946|H,1.8176404072,-1.2851312243,1.8557111213|
 H,-1.4036604641,0.9928161724,0.4719471138|H,2.4006906446,0.9476937924,
 0.8508011611|H,0.8755822667,1.0016914771,1.8012219221|H,1.1443840583,0
 .8141847298,-1.2761238631|H,0.5844803601,2.2331283131,-0.3233754945|H,
 -0.6523863145,-1.1591945833,1.8013740876|F,-1.4536330655,1.0279953318,
 -1.5563908182||Version=IA32W-G03RevD.01|HF=0.0106705|RMSD=0.000e+000|R
 MSF=3.466e-005|Thermal=0.|Dipole=0.,0.,0.|PG=C01 [X(C6H11F1)]||@


 A warm smile is the universal language of kindness.
                             -- William Arthur Ward
 Job cpu time:  0 days  0 hours  0 minutes  3.0 seconds.
 File lengths (MBytes):  RWF=     11 Int=      0 D2E=      0 Chk=      4 Scr=      1
 Normal termination of Gaussian 03 at Thu Dec 13 15:27:27 2007.
