 Entering Link 1 = C:\G03W\l1.exe PID=      1016.
  
 Copyright (c) 1988,1990,1992,1993,1995,1998,2003,2004, Gaussian, Inc.
                  All Rights Reserved.
  
 This is the Gaussian(R) 03 program.  It is based on the
 the Gaussian(R) 98 system (copyright 1998, Gaussian, Inc.),
 the Gaussian(R) 94 system (copyright 1995, Gaussian, Inc.),
 the Gaussian 92(TM) system (copyright 1992, Gaussian, Inc.),
 the Gaussian 90(TM) system (copyright 1990, Gaussian, Inc.),
 the Gaussian 88(TM) system (copyright 1988, Gaussian, Inc.),
 the Gaussian 86(TM) system (copyright 1986, Carnegie Mellon
 University), and the Gaussian 82(TM) system (copyright 1983,
 Carnegie Mellon University). Gaussian is a federally registered
 trademark of Gaussian, Inc.
  
 This software contains proprietary and confidential information,
 including trade secrets, belonging to Gaussian, Inc.
  
 This software is provided under written license and may be
 used, copied, transmitted, or stored only in accord with that
 written license.
  
 The following legend is applicable only to US Government
 contracts under FAR:
  
                    RESTRICTED RIGHTS LEGEND
  
 Use, reproduction and disclosure by the US Government is
 subject to restrictions as set forth in subparagraphs (a)
 and (c) of the Commercial Computer Software - Restricted
 Rights clause in FAR 52.227-19.
  
 Gaussian, Inc.
 340 Quinnipiac St., Bldg. 40, Wallingford CT 06492
  
  
 ---------------------------------------------------------------
 Warning -- This program may not be used in any manner that
 competes with the business of Gaussian, Inc. or will provide
 assistance to any competitor of Gaussian, Inc.  The licensee
 of this program is prohibited from giving any competitor of
 Gaussian, Inc. access to this program.  By using this program,
 the user acknowledges that Gaussian, Inc. is engaged in the
 business of creating and licensing software in the field of
 computational chemistry and represents and warrants to the
 licensee that it is not a competitor of Gaussian, Inc. and that
 it will not use this program in any manner prohibited above.
 ---------------------------------------------------------------
  

 Cite this work as:
 Gaussian 03, Revision D.01,
 M. J. Frisch, G. W. Trucks, H. B. Schlegel, G. E. Scuseria, 
 M. A. Robb, J. R. Cheeseman, J. A. Montgomery, Jr., T. Vreven, 
 K. N. Kudin, J. C. Burant, J. M. Millam, S. S. Iyengar, J. Tomasi, 
 V. Barone, B. Mennucci, M. Cossi, G. Scalmani, N. Rega, 
 G. A. Petersson, H. Nakatsuji, M. Hada, M. Ehara, K. Toyota, 
 R. Fukuda, J. Hasegawa, M. Ishida, T. Nakajima, Y. Honda, O. Kitao, 
 H. Nakai, M. Klene, X. Li, J. E. Knox, H. P. Hratchian, J. B. Cross, 
 V. Bakken, C. Adamo, J. Jaramillo, R. Gomperts, R. E. Stratmann, 
 O. Yazyev, A. J. Austin, R. Cammi, C. Pomelli, J. W. Ochterski, 
 P. Y. Ayala, K. Morokuma, G. A. Voth, P. Salvador, J. J. Dannenberg, 
 V. G. Zakrzewski, S. Dapprich, A. D. Daniels, M. C. Strain, 
 O. Farkas, D. K. Malick, A. D. Rabuck, K. Raghavachari, 
 J. B. Foresman, J. V. Ortiz, Q. Cui, A. G. Baboul, S. Clifford, 
 J. Cioslowski, B. B. Stefanov, G. Liu, A. Liashenko, P. Piskorz, 
 I. Komaromi, R. L. Martin, D. J. Fox, T. Keith, M. A. Al-Laham, 
 C. Y. Peng, A. Nanayakkara, M. Challacombe, P. M. W. Gill, 
 B. Johnson, W. Chen, M. W. Wong, C. Gonzalez, and J. A. Pople, 
 Gaussian, Inc., Wallingford CT, 2004.
 
 ******************************************
 Gaussian 03:  IA32W-G03RevD.01 13-Oct-2005
                13-Dec-2007 
 ******************************************
 ---------
 # opt uff
 ---------
 1/6=10,10=10,14=-1,18=4000020,38=1,56=1,64=2/1,3;
 2/9=110,17=6,18=5,40=1/2;
 3/5=30,11=9,16=1,25=1,30=1/1;
 4/20=10,22=1001,24=3/2;
 7/44=-1/16;
 1/6=10,10=10,14=-1,18=4000020,64=2/3(2);
 2/9=110/2;
 99//99;
 2/9=110/2;
 3/5=30,11=9,16=1,25=1,30=1/1;
 4/16=2,20=10,22=1001,24=3/2;
 7/44=-1/16;
 1/6=10,10=10,14=-1,18=4000020,64=2/3(-4);
 2/9=110/2;
 99//99;
 --------------------
 methylcyclohexane-eq
 --------------------
 Symbolic Z-matrix:
 Charge =  0 Multiplicity = 1
 C                    -0.03732  -1.52021  -0.86396 
 C                     1.40368  -0.99321  -0.84796 
 C                     1.42068   0.54179  -0.86396 
 C                    -0.84132  -0.95021   0.31404 
 C                     0.61568   1.11079   0.31404 
 C                    -0.83132   0.58779   0.30404 
 H                    -0.03432  -2.63621  -0.81796 
 H                    -0.52832  -1.23421  -1.82396 
 H                     1.96468  -1.38921  -1.72796 
 H                     1.92568  -1.36221   0.06704 
 H                     0.98668   0.90979  -1.82396 
 H                     2.47368   0.91079  -0.81796 
 H                    -0.40532  -1.32021   1.27204 
 H                    -1.89232  -1.32521   0.26504 
 H                     0.61868   2.22579   0.26504 
 H                     1.10968   0.82279   1.27204 
 H                    -1.32432   0.93679  -0.63696 
 C                    -1.62732   1.15079   1.49304 
 H                    -1.18032   0.83479   2.46404 
 H                    -1.64632   2.26479   1.47404 
 H                    -2.68432   0.79679   1.47404 
 
 Include all MM classes
 MMInit generated parameter data with length LenPar=  2544.

 GradGradGradGradGradGradGradGradGradGradGradGradGradGradGradGradGradGrad
 Berny optimization.
 Initialization pass.
 No Z-matrix variables, so optimization will use Cartesian coordinates.
 Trust Radius=1.00D-01 FncErr=1.00D-07 GrdErr=1.00D-07
 Number of steps in this run=   2 maximum allowed number of steps=   2.
 GradGradGradGradGradGradGradGradGradGradGradGradGradGradGradGradGradGrad

                          Input orientation:                          
 ---------------------------------------------------------------------
 Center     Atomic     Atomic              Coordinates (Angstroms)
 Number     Number      Type              X           Y           Z
 ---------------------------------------------------------------------
    1          6      10061003       -0.037321   -1.520214   -0.863964
    2          6      10061003        1.403679   -0.993214   -0.847964
    3          6      10061003        1.420679    0.541786   -0.863964
    4          6      10061003       -0.841321   -0.950214    0.314036
    5          6      10061003        0.615679    1.110786    0.314036
    6          6      10061003       -0.831321    0.587786    0.304036
    7          1      10011000       -0.034321   -2.636214   -0.817964
    8          1      10011000       -0.528321   -1.234214   -1.823964
    9          1      10011000        1.964679   -1.389214   -1.727964
   10          1      10011000        1.925679   -1.362214    0.067036
   11          1      10011000        0.986679    0.909786   -1.823964
   12          1      10011000        2.473679    0.910786   -0.817964
   13          1      10011000       -0.405321   -1.320214    1.272036
   14          1      10011000       -1.892321   -1.325214    0.265036
   15          1      10011000        0.618679    2.225786    0.265036
   16          1      10011000        1.109679    0.822786    1.272036
   17          1      10011000       -1.324321    0.936786   -0.636964
   18          6      10061003       -1.627321    1.150786    1.493036
   19          1      10011000       -1.180321    0.834786    2.464036
   20          1      10011000       -1.646321    2.264786    1.474036
   21          1      10011000       -2.684321    0.796786    1.474036
 ---------------------------------------------------------------------
                    Distance matrix (angstroms):
                    1          2          3          4          5
     1  C    0.000000
     2  C    1.534427   0.000000
     3  C    2.525393   1.535178   0.000000
     4  C    1.535904   2.528264   2.954724   0.000000
     5  C    2.955715   2.529428   1.536057   2.523999   0.000000
     6  C    2.537385   2.970167   2.537291   1.538065   1.538648
     7  H    1.116952   2.183619   3.495544   2.185239   3.967863
     8  H    1.115561   2.177907   2.806132   2.179374   3.373248
     9  H    2.184413   1.116215   2.184306   3.498017   3.498509
    10  H    2.178324   1.116185   2.178762   2.808388   2.809420
    11  H    2.806257   2.178962   1.115966   3.372273   2.179240
    12  H    3.495282   2.184266   1.116730   3.966607   2.184854
    13  H    2.176676   2.806031   3.371026   1.115688   2.805346
    14  H    2.180296   3.494654   3.966900   1.116972   3.496650
    15  H    3.967051   3.495276   2.180298   3.495851   1.116080
    16  H    3.371610   2.806901   2.176736   2.804941   1.115681
    17  H    2.782939   3.348344   2.782549   2.167593   2.167551
    18  C    3.900999   4.389075   3.900850   2.534174   2.534303
    19  H    4.234154   4.581264   4.233986   2.814897   2.815012
    20  H    4.730893   5.030780   4.223915   3.511389   2.791766
    21  H    4.223901   5.030659   4.730993   2.791820   3.512007
                    6          7          8          9         10
     6  C    0.000000
     7  H    3.505463   0.000000
     8  H    2.817779   1.794903   0.000000
     9  H    3.981855   2.525690   2.499658   0.000000
    10  H    3.385221   2.499580   3.100707   1.795627   0.000000
    11  H    2.817302   3.824734   2.625254   2.500220   3.101546
    12  H    3.505173   4.344108   3.824273   2.525308   2.500012
    13  H    2.181505   2.497518   3.099636   3.823828   2.624376
    14  H    2.187878   2.518685   2.496537   4.341957   3.823310
    15  H    2.187936   5.023778   4.201325   4.341888   3.823767
    16  H    2.181681   4.200181   4.061959   3.824130   2.625282
    17  H    1.118182   3.803050   2.599197   4.173497   4.042712
    18  C    1.537630   4.713782   4.230664   5.452422   4.579569
    19  H    2.201911   4.912503   4.805498   5.692984   4.496627
    20  H    2.201239   5.645495   4.936571   6.053416   5.281473
    21  H    2.201406   4.905227   4.432843   6.053478   5.281385
                   11         12         13         14         15
    11  H    0.000000
    12  H    1.795329   0.000000
    13  H    4.061500   4.199298   0.000000
    14  H    4.200927   5.023399   1.795896   0.000000
    15  H    2.496237   2.518559   3.825799   4.349106   0.000000
    16  H    3.099664   2.497267   2.624438   3.826220   1.795422
    17  H    2.598157   3.802399   3.095624   2.500574   2.500075
    18  C    4.230079   4.713441   2.765496   2.776470   2.776351
    19  H    4.805045   4.912129   2.581766   3.163565   3.163366
    20  H    4.432326   4.905199   3.799093   3.796090   2.567767
    21  H    4.936174   5.645460   3.117103   2.567456   3.796516
                   16         17         18         19         20
    16  H    0.000000
    17  H    3.095421   0.000000
    18  C    2.765428   2.162060   0.000000
    19  H    2.581687   3.106017   1.114678   0.000000
    20  H    3.117002   2.514675   1.114324   1.800599   0.000000
    21  H    3.799463   2.515059   1.114866   1.800989   1.797907
                   21
    21  H    0.000000
 Stoichiometry    C7H14
 Framework group  C1[X(C7H14)]
 Deg. of freedom    57
 Full point group                 C1
 Largest Abelian subgroup         C1      NOp   1
 Largest concise Abelian subgroup C1      NOp   1
                         Standard orientation:                         
 ---------------------------------------------------------------------
 Center     Atomic     Atomic              Coordinates (Angstroms)
 Number     Number      Type              X           Y           Z
 ---------------------------------------------------------------------
    1          6      10061003        1.190310   -1.262530   -0.219225
    2          6      10061003        1.894290   -0.000139    0.295797
    3          6      10061003        1.189723    1.262863   -0.219160
    4          6      10061003       -0.293548   -1.261654    0.177216
    5          6      10061003       -0.294330    1.262344    0.177143
    6          6      10061003       -1.007659   -0.000246   -0.337119
    7          1      10011000        1.693038   -2.171913    0.190492
    8          1      10011000        1.279715   -1.312431   -1.330078
    9          1      10011000        2.962247    0.000666   -0.028866
   10          1      10011000        1.890683   -0.000090    1.411976
   11          1      10011000        1.278450    1.312823   -1.330471
   12          1      10011000        1.692018    2.172195    0.190597
   13          1      10011000       -0.378844   -1.312092    1.288495
   14          1      10011000       -0.789947   -2.174729   -0.232062
   15          1      10011000       -0.790854    2.174376   -0.231877
   16          1      10011000       -0.379637    1.312346    1.288434
   17          1      10011000       -0.960281    0.000127   -1.454296
   18          6      10061003       -2.489197   -0.000468    0.074403
   19          1      10011000       -2.600138   -0.000469    1.183546
   20          1      10011000       -3.017198    0.898039   -0.320084
   21          1      10011000       -3.016784   -0.899868   -0.320133
 ---------------------------------------------------------------------
 Rotational constants (GHZ):      4.1649277      2.1779508      1.5847233
 Standard basis: Dummy (5D, 7F)
 There are    21 symmetry adapted basis functions of A   symmetry.
 Integral buffers will be    262144 words long.
 Raffenetti 1 integral format.
 Two-electron integral symmetry is turned on.
    21 basis functions,    21 primitive gaussians,    21 cartesian basis functions
    14 alpha electrons       14 beta electrons
       nuclear repulsion energy        78.9989727423 Hartrees.
 NAtoms=   21 NActive=   21 NUniq=   21 SFac= 7.50D-01 NAtFMM=   80 NAOKFM=F Big=F
 UFF calculation of energy and first derivatives.
 MO and density RWFs will be updated without deorthogonalization.
 NRF= 0 NRA=   0 NVA=  21 HaveQM=F
 Convergence limit is  0.750E-04 MaxStp=  5000 StMxLn= 1.00D-04 StpMin= 1.00D-06.
 Convergence criteria           0.00011250 0.00007500 0.00045000 0.00030000
  Step  NS  ND Rises OKQ   Scale  Max. Force  RMS Force Max. Disp.  RMS Disp.     Energy   Flag
     1   0   0   F    T  1.00D+00 0.00680001 0.00246994 0.00680001 0.00246994    0.0131470 ----
     2   0   0   F    F  1.93D-01 0.00680001 0.00246994 0.00680001 0.00246994    0.0129237 ----
     3   0   0   F    T  2.83D+00 0.00255046 0.00097086 0.00271792 0.00104317    0.0129177 ----
     4   0   0   F    F  2.51D-01 0.00255046 0.00097086 0.00767932 0.00294741    0.0128170 ----
     5   0   0   F    T  1.92D+00 0.00431237 0.00117120 0.00471569 0.00191905    0.0128128 ----
     6   0   0   F    F  8.29D-01 0.00431237 0.00117120 0.00905960 0.00368680    0.0126922 ----
     7   0   0   F    T  4.09D+00 0.00475081 0.00097262 0.00517656 0.00164901    0.0126610 ----
     8   0   0   T    F  4.16D-01 0.00475081 0.00097262 0.02116602 0.00674253    0.0127104 ----
     9   0   0   F    T  3.93D+00 0.00189163 0.00052711 0.00189196 0.00071403    0.0126103 ----
    10   0   0   F    F -4.34D-01 0.00189163 0.00052711 0.00742794 0.00280331    0.0126023 ----
    11   0   0   F    T  2.95D+00 0.00095438 0.00038315 0.00160936 0.00053794    0.0125909 ----
    12   0   0   F    F  3.47D-01 0.00095438 0.00038315 0.00474573 0.00158631    0.0125737 ----
    13   0   0   F    T  4.29D+00 0.00091518 0.00032170 0.00123092 0.00049743    0.0125725 ----
    14   0   0   F    F -1.86D-01 0.00091518 0.00032170 0.00528662 0.00213639    0.0125617 ----
    15   0   0   F    T  3.88D+00 0.00062732 0.00027204 0.00101274 0.00044778    0.0125611 ----
    16   0   0   F    T  3.23D+00 0.00065943 0.00027554 0.00122035 0.00053904    0.0125522 ----
    17   0   0   F    F  4.16D-02 0.00065943 0.00027554 0.00393799 0.00173946    0.0125443 ----
    18   0   0   F    T  2.82D+00 0.00090134 0.00028798 0.00160635 0.00064307    0.0125443 ----
    19   0   0   F    F -2.44D-01 0.00090134 0.00028798 0.00452590 0.00181185    0.0125393 ----
    20   0   0   F    T  3.70D+00 0.00041607 0.00019846 0.00106537 0.00037020    0.0125387 ----
    21   0   0   F    F -1.52D-01 0.00041607 0.00019846 0.00394390 0.00137046    0.0125349 ----
    22   0   0   F    T  3.84D+00 0.00046412 0.00016448 0.00084599 0.00030316    0.0125348 ----
    23   0   0   F    F -3.40D-01 0.00046412 0.00016448 0.00324444 0.00116262    0.0125332 ----
    24   0   0   F    T  2.39D+00 0.00044327 0.00015784 0.00083752 0.00032063    0.0125327 ----
    25   0   0   F    F  7.02D-01 0.00044327 0.00015784 0.00200320 0.00076689    0.0125300 ----
    26   0   0   F    T  7.63D+00 0.00027823 0.00010308 0.00040695 0.00017116    0.0125295 --++
    27   0   0   T    F  3.73D-01 0.00027823 0.00010308 0.00310404 0.00130556    0.0125312 ----
    28   0   0   F    T  1.86D+00 0.00030653 0.00012018 0.00071855 0.00026184    0.0125285 ---+
    29   0   0   F    F  1.84D+00 0.00030653 0.00012018 0.00133606 0.00048686    0.0125271 ----
    30   0   0   F    T  4.02D+00 0.00036866 0.00013227 0.00093211 0.00034395    0.0125261 ----
    31   0   0   T    F  3.70D-01 0.00036866 0.00013227 0.00374782 0.00138297    0.0125277 ----
    32   0   0   F    T  6.03D+00 0.00020562 0.00005666 0.00023044 0.00008487    0.0125253 -+++
    33   0   0   F    F -3.98D-01 0.00020562 0.00005666 0.00138855 0.00051142    0.0125251 -+--
    34   0   0   F    T  2.87D+00 0.00016257 0.00005839 0.00036835 0.00010740    0.0125249 -+++
    35   0   0   F    F -2.27D-01 0.00016257 0.00005839 0.00105605 0.00030792    0.0125247 -+--
    36   0   0   F    T  6.08D+00 0.00008408 0.00002895 0.00014331 0.00003917    0.0125247 ====
 Energy=    0.012524675690 NIter=   0.
 Dipole moment=       0.000000       0.000000       0.000000
 ***** Axes restored to original set *****
 -------------------------------------------------------------------
 Center     Atomic                   Forces (Hartrees/Bohr)
 Number     Number              X              Y              Z
 -------------------------------------------------------------------
    1          6          -0.000019621    0.000013280    0.000043228
    2          6          -0.000001112    0.000041186    0.000030211
    3          6           0.000019399    0.000042897   -0.000026768
    4          6          -0.000053862   -0.000027324   -0.000062927
    5          6          -0.000020145    0.000008977   -0.000074934
    6          6           0.000039315   -0.000043869    0.000062396
    7          1           0.000006739    0.000005613   -0.000011508
    8          1           0.000001762   -0.000000694   -0.000037192
    9          1          -0.000009667    0.000002537    0.000032709
   10          1           0.000008157   -0.000017415    0.000030509
   11          1           0.000012268   -0.000016745    0.000001943
   12          1          -0.000041960   -0.000031524   -0.000009356
   13          1          -0.000018630    0.000034949    0.000002623
   14          1           0.000039184   -0.000013554    0.000009725
   15          1           0.000034788    0.000009815    0.000007759
   16          1          -0.000029041    0.000007078    0.000020507
   17          1          -0.000024618    0.000025019   -0.000040271
   18          6          -0.000017397   -0.000003323    0.000019749
   19          1          -0.000001237    0.000001099   -0.000043285
   20          1           0.000040234   -0.000007094    0.000023540
   21          1           0.000035444   -0.000030906    0.000021343
 -------------------------------------------------------------------
 Cartesian Forces:  Max     0.000074934 RMS     0.000028945

 GradGradGradGradGradGradGradGradGradGradGradGradGradGradGradGradGradGrad
 Berny optimization.
 Search for a local minimum.
 Step number   1 out of a maximum of   2
 All quantities printed in internal units (Hartrees-Bohrs-Radians)
 Second derivative matrix not updated -- unit matrix used.
 RFO step:  Lambda=-5.27825372D-08.
 Linear search not attempted -- first point.
 TrRot=  0.000000  0.000000  0.000000  0.000000  0.000000  0.000000
 Variable       Old X    -DE/DX   Delta X   Delta X   Delta X     New X
                                 (Linear)    (Quad)   (Total)
    X1       -0.07585  -0.00002   0.00000  -0.00002  -0.00002  -0.07587
    Y1       -2.87173   0.00001   0.00000   0.00001   0.00001  -2.87171
    Z1       -1.62132   0.00004   0.00000   0.00004   0.00004  -1.62128
    X2        2.64271   0.00000   0.00000   0.00000   0.00000   2.64271
    Y2       -1.86888   0.00004   0.00000   0.00004   0.00004  -1.86884
    Z2       -1.59845   0.00003   0.00000   0.00003   0.00003  -1.59842
    X3        2.68204   0.00002   0.00000   0.00002   0.00002   2.68206
    Y3        1.02855   0.00004   0.00000   0.00004   0.00004   1.02859
    Z3       -1.62134  -0.00003   0.00000  -0.00003  -0.00003  -1.62136
    X4       -1.60060  -0.00005   0.00000  -0.00005  -0.00005  -1.60066
    Y4       -1.79893  -0.00003   0.00000  -0.00003  -0.00003  -1.79896
    Z4        0.59861  -0.00006   0.00000  -0.00006  -0.00006   0.59854
    X5        1.16247  -0.00002   0.00000  -0.00002  -0.00002   1.16245
    Y5        2.10870   0.00001   0.00000   0.00001   0.00001   2.10871
    Z5        0.59851  -0.00007   0.00000  -0.00007  -0.00007   0.59843
    X6       -1.57434   0.00004   0.00000   0.00004   0.00004  -1.57430
    Y6        1.11321  -0.00004   0.00000  -0.00004  -0.00004   1.11317
    Z6        0.57335   0.00006   0.00000   0.00006   0.00006   0.57341
    X7       -0.04207   0.00001   0.00000   0.00001   0.00001  -0.04206
    Y7       -4.96738   0.00001   0.00000   0.00001   0.00001  -4.96737
    Z7       -1.49050  -0.00001   0.00000  -0.00001  -0.00001  -1.49051
    X8       -1.00535   0.00000   0.00000   0.00000   0.00000  -1.00535
    Y8       -2.35153   0.00000   0.00000   0.00000   0.00000  -2.35154
    Z8       -3.43330  -0.00004   0.00000  -0.00004  -0.00004  -3.43334
    X9        3.66142  -0.00001   0.00000  -0.00001  -0.00001   3.66141
    Y9       -2.58916   0.00000   0.00000   0.00000   0.00000  -2.58916
    Z9       -3.28769   0.00003   0.00000   0.00003   0.00003  -3.28766
   X10        3.64182   0.00001   0.00000   0.00001   0.00001   3.64183
   Y10       -2.57518  -0.00002   0.00000  -0.00002  -0.00002  -2.57520
   Z10        0.11057   0.00003   0.00000   0.00003   0.00003   0.11060
   X11        1.88174   0.00001   0.00000   0.00001   0.00001   1.88175
   Y11        1.73149  -0.00002   0.00000  -0.00002  -0.00002   1.73147
   Z11       -3.43347   0.00000   0.00000   0.00000   0.00000  -3.43347
   X12        4.66922  -0.00004   0.00000  -0.00004  -0.00004   4.66917
   Y12        1.69541  -0.00003   0.00000  -0.00003  -0.00003   1.69537
   Z12       -1.49069  -0.00001   0.00000  -0.00001  -0.00001  -1.49070
   X13       -0.79261  -0.00002   0.00000  -0.00002  -0.00002  -0.79263
   Y13       -2.51293   0.00003   0.00000   0.00003   0.00003  -2.51290
   Z13        2.40424   0.00000   0.00000   0.00000   0.00000   2.40425
   X14       -3.58021   0.00004   0.00000   0.00004   0.00004  -3.58017
   Y14       -2.48877  -0.00001   0.00000  -0.00001  -0.00001  -2.48878
   Z14        0.45615   0.00001   0.00000   0.00001   0.00001   0.45616
   X15        1.15287   0.00003   0.00000   0.00003   0.00003   1.15291
   Y15        4.20488   0.00001   0.00000   0.00001   0.00001   4.20489
   Z15        0.45590   0.00001   0.00000   0.00001   0.00001   0.45591
   X16        2.10496  -0.00003   0.00000  -0.00003  -0.00003   2.10493
   Y16        1.58498   0.00001   0.00000   0.00001   0.00001   1.58498
   Z16        2.40409   0.00002   0.00000   0.00002   0.00002   2.40411
   X17       -2.51721  -0.00002   0.00000  -0.00002  -0.00002  -2.51724
   Y17        1.77975   0.00003   0.00000   0.00003   0.00003   1.77977
   Z17       -1.18548  -0.00004   0.00000  -0.00004  -0.00004  -1.18552
   X18       -3.05971  -0.00002   0.00000  -0.00002  -0.00002  -3.05973
   Y18        2.16358   0.00000   0.00000   0.00000   0.00000   2.16358
   Z18        2.82610   0.00002   0.00000   0.00002   0.00002   2.82612
   X19       -2.19339   0.00000   0.00000   0.00000   0.00000  -2.19339
   Y19        1.55121   0.00000   0.00000   0.00000   0.00000   1.55121
   Z19        4.63864  -0.00004   0.00000  -0.00004  -0.00004   4.63860
   X20       -3.08309   0.00004   0.00000   0.00004   0.00004  -3.08305
   Y20        4.26175  -0.00001   0.00000  -0.00001  -0.00001   4.26174
   Z20        2.76010   0.00002   0.00000   0.00002   0.00002   2.76013
   X21       -5.04567   0.00004   0.00000   0.00004   0.00004  -5.04563
   Y21        1.48601  -0.00003   0.00000  -0.00003  -0.00003   1.48598
   Z21        2.76037   0.00002   0.00000   0.00002   0.00002   2.76039
         Item               Value     Threshold  Converged?
 Maximum Force            0.000075     0.000450     YES
 RMS     Force            0.000029     0.000300     YES
 Maximum Displacement     0.000075     0.001800     YES
 RMS     Displacement     0.000029     0.001200     YES
 Predicted change in Energy=-2.639127D-08
 Optimization completed.
    -- Stationary point found.
 GradGradGradGradGradGradGradGradGradGradGradGradGradGradGradGradGradGrad

                          Input orientation:                          
 ---------------------------------------------------------------------
 Center     Atomic     Atomic              Coordinates (Angstroms)
 Number     Number      Type              X           Y           Z
 ---------------------------------------------------------------------
    1          6      10061003       -0.040137   -1.519652   -0.857966
    2          6      10061003        1.398464   -0.988971   -0.845864
    3          6      10061003        1.419276    0.544283   -0.857975
    4          6      10061003       -0.847002   -0.951953    0.316769
    5          6      10061003        0.615153    1.115878    0.316717
    6          6      10061003       -0.833105    0.589085    0.303405
    7          1      10011000       -0.022262   -2.628623   -0.788740
    8          1      10011000       -0.532009   -1.244379   -1.816823
    9          1      10011000        1.937538   -1.370127   -1.739770
   10          1      10011000        1.927167   -1.362726    0.058509
   11          1      10011000        0.995772    0.916264   -1.816916
   12          1      10011000        2.470843    0.897170   -0.788841
   13          1      10011000       -0.419432   -1.329785    1.272270
   14          1      10011000       -1.894564   -1.317000    0.241387
   15          1      10011000        0.610073    2.225129    0.241251
   16          1      10011000        1.113899    0.838733    1.272187
   17          1      10011000       -1.332051    0.941803   -0.627327
   18          6      10061003       -1.619131    1.144919    1.495506
   19          1      10011000       -1.160690    0.820866    2.454665
   20          1      10011000       -1.631499    2.255221    1.460583
   21          1      10011000       -2.670053    0.786363    1.460723
 ---------------------------------------------------------------------
                    Distance matrix (angstroms):
                    1          2          3          4          5
     1  C    0.000000
     2  C    1.533409   0.000000
     3  C    2.527789   1.533443   0.000000
     4  C    1.534052   2.528874   2.958844   0.000000
     5  C    2.958937   2.528944   1.534026   2.532552   0.000000
     6  C    2.534631   2.964958   2.534567   1.541158   1.541149
     7  H    1.111273   2.170296   3.485707   2.171075   3.955960
     8  H    1.112259   2.175941   2.815353   2.176453   3.382127
     9  H    2.170515   1.111282   2.170512   3.486816   3.486841
    10  H    2.175969   1.112255   2.175908   2.816283   2.816297
    11  H    2.815383   2.176010   1.112336   3.382109   2.176490
    12  H    3.485804   2.170432   1.111351   3.955973   2.171101
    13  H    2.172055   2.812009   3.380965   1.112905   2.822183
    14  H    2.165304   3.483353   3.956577   1.111902   3.496175
    15  H    3.956569   3.483363   2.165260   3.496086   1.111827
    16  H    3.381026   2.812049   2.171991   2.822147   1.112870
    17  H    2.789444   3.351321   2.789448   2.170921   2.170972
    18  C    3.889986   4.375086   3.889930   2.526356   2.526343
    19  H    4.207991   4.551732   4.207885   2.794975   2.794900
    20  H    4.707205   5.002515   4.196457   3.494240   2.766582
    21  H    4.196484   5.002497   4.707183   2.766566   3.494267
                    6          7          8          9         10
     6  C    0.000000
     7  H    3.493407   0.000000
     8  H    2.819151   1.798035   0.000000
     9  H    3.961002   2.515768   2.473947   0.000000
    10  H    3.389490   2.473985   3.094903   1.798324   0.000000
    11  H    2.819149   3.828806   2.646222   2.473955   3.094916
    12  H    3.493421   4.318192   3.828850   2.515813   2.474007
    13  H    2.189038   2.468296   3.092324   3.824830   2.642126
    14  H    2.182590   2.507395   2.469424   4.314256   3.826377
    15  H    2.182491   5.001963   4.192553   4.314217   3.826334
    16  H    2.188992   4.190566   4.073125   3.824830   2.642128
    17  H    1.113381   3.806513   2.614261   4.156051   4.050151
    18  C    1.532284   4.691203   4.226358   5.426081   4.574874
    19  H    2.188368   4.869771   4.786030   5.656213   4.477108
    20  H    2.180024   5.612578   4.919092   6.010277   5.264927
    21  H    2.180064   4.871653   4.408792   6.010282   5.264904
                   11         12         13         14         15
    11  H    0.000000
    12  H    1.798092   0.000000
    13  H    4.073157   4.190609   0.000000
    14  H    4.192626   5.002068   1.799694   0.000000
    15  H    2.469401   2.507395   3.841913   4.338188   0.000000
    16  H    3.092333   2.468309   2.655857   3.841950   1.799656
    17  H    2.614294   3.806584   3.098622   2.484607   2.484592
    18  C    4.226363   4.691216   2.759216   2.776638   2.776574
    19  H    4.786003   4.869721   2.563751   3.163485   3.163345
    20  H    4.408782   4.871696   3.789042   3.783702   2.551925
    21  H    4.919153   5.612630   3.094978   2.551920   3.783700
                   16         17         18         19         20
    16  H    0.000000
    17  H    3.098620   0.000000
    18  C    2.759180   2.151764   0.000000
    19  H    2.563654   3.089120   1.111379   0.000000
    20  H    3.095019   2.484774   1.110921   1.807549   0.000000
    21  H    3.789007   2.484826   1.110949   1.807564   1.798927
                   21
    21  H    0.000000
 Stoichiometry    C7H14
 Framework group  C1[X(C7H14)]
 Deg. of freedom    57
 Full point group                 C1
 Largest Abelian subgroup         C1      NOp   1
 Largest concise Abelian subgroup C1      NOp   1
                         Standard orientation:                         
 ---------------------------------------------------------------------
 Center     Atomic     Atomic              Coordinates (Angstroms)
 Number     Number      Type              X           Y           Z
 ---------------------------------------------------------------------
    1          6      10061003        1.186415   -1.263890   -0.216619
    2          6      10061003        1.889456    0.000002    0.292942
    3          6      10061003        1.186330    1.263899   -0.216592
    4          6      10061003       -0.296449   -1.266263    0.176351
    5          6      10061003       -0.296518    1.266289    0.176338
    6          6      10061003       -1.007147   -0.000003   -0.340043
    7          1      10011000        1.682161   -2.159030    0.216839
    8          1      10011000        1.279799   -1.323092   -1.323369
    9          1      10011000        2.943813    0.000064   -0.058170
   10          1      10011000        1.898522    0.000062    1.405160
   11          1      10011000        1.279750    1.323130   -1.323414
   12          1      10011000        1.682072    2.159162    0.216820
   13          1      10011000       -0.382411   -1.327925    1.284217
   14          1      10011000       -0.780179   -2.169142   -0.256248
   15          1      10011000       -0.780261    2.169046   -0.256305
   16          1      10011000       -0.382479    1.327932    1.284169
   17          1      10011000       -0.971240   -0.000058   -1.452845
   18          6      10061003       -2.480487   -0.000034    0.080864
   19          1      10011000       -2.573334    0.000039    1.188358
   20          1      10011000       -2.992925    0.899373   -0.322395
   21          1      10011000       -2.992889   -0.899554   -0.322268
 ---------------------------------------------------------------------
 Rotational constants (GHZ):      4.1555354      2.1925495      1.5906816
 1|1|UNPC-UNK|FOpt|UFF|ZDO|C7H14|PCUSER|13-Dec-2007|0||# opt uff||methy
 lcyclohexane-eq||0,1|C,-0.0401371834,-1.5196524671,-0.8579659847|C,1.3
 984637765,-0.9889706589,-0.8458638266|C,1.419275779,0.5442827878,-0.85
 79749794|C,-0.847002069,-0.9519526746,0.3167685786|C,0.6151525233,1.11
 58778381,0.3167172299|C,-0.8331052532,0.5890848117,0.3034047816|H,-0.0
 222620546,-2.6286227395,-0.7887401132|H,-0.5320088164,-1.2443785167,-1
 .8168231466|H,1.9375380922,-1.3701265958,-1.7397697214|H,1.927167377,-
 1.362725573,0.0585088355|H,0.9957723905,0.9162636973,-1.816915732|H,2.
 470842794,0.8971699623,-0.7888410629|H,-0.4194321017,-1.3297853768,1.2
 722704563|H,-1.8945635121,-1.3169995164,0.2413868071|H,0.6100728951,2.
 2251289991,0.2412507603|H,1.1138986134,0.8387334289,1.2721870157|H,-1.
 3320507276,0.9418031181,-0.6273266421|C,-1.6191312388,1.1449187713,1.4
 955061433|H,-1.1606895403,0.8208661627,2.4546645695|H,-1.6314992529,2.
 2552214126,1.4605830159|H,-2.6700525209,0.786363039,1.4607229253||Vers
 ion=IA32W-G03RevD.01|HF=0.0125247|RMSD=0.000e+000|RMSF=2.895e-005|Ther
 mal=0.|Dipole=0.,0.,0.|PG=C01 [X(C7H14)]||@


 A warm smile is the universal language of kindness.
                             -- William Arthur Ward
 Job cpu time:  0 days  0 hours  0 minutes  3.0 seconds.
 File lengths (MBytes):  RWF=     11 Int=      0 D2E=      0 Chk=      4 Scr=      1
 Normal termination of Gaussian 03 at Thu Dec 13 15:27:58 2007.
