 Entering Link 1 = C:\G03W\l1.exe PID=      2848.
  
 Copyright (c) 1988,1990,1992,1993,1995,1998,2003,2004, Gaussian, Inc.
                  All Rights Reserved.
  
 This is the Gaussian(R) 03 program.  It is based on the
 the Gaussian(R) 98 system (copyright 1998, Gaussian, Inc.),
 the Gaussian(R) 94 system (copyright 1995, Gaussian, Inc.),
 the Gaussian 92(TM) system (copyright 1992, Gaussian, Inc.),
 the Gaussian 90(TM) system (copyright 1990, Gaussian, Inc.),
 the Gaussian 88(TM) system (copyright 1988, Gaussian, Inc.),
 the Gaussian 86(TM) system (copyright 1986, Carnegie Mellon
 University), and the Gaussian 82(TM) system (copyright 1983,
 Carnegie Mellon University). Gaussian is a federally registered
 trademark of Gaussian, Inc.
  
 This software contains proprietary and confidential information,
 including trade secrets, belonging to Gaussian, Inc.
  
 This software is provided under written license and may be
 used, copied, transmitted, or stored only in accord with that
 written license.
  
 The following legend is applicable only to US Government
 contracts under FAR:
  
                    RESTRICTED RIGHTS LEGEND
  
 Use, reproduction and disclosure by the US Government is
 subject to restrictions as set forth in subparagraphs (a)
 and (c) of the Commercial Computer Software - Restricted
 Rights clause in FAR 52.227-19.
  
 Gaussian, Inc.
 340 Quinnipiac St., Bldg. 40, Wallingford CT 06492
  
  
 ---------------------------------------------------------------
 Warning -- This program may not be used in any manner that
 competes with the business of Gaussian, Inc. or will provide
 assistance to any competitor of Gaussian, Inc.  The licensee
 of this program is prohibited from giving any competitor of
 Gaussian, Inc. access to this program.  By using this program,
 the user acknowledges that Gaussian, Inc. is engaged in the
 business of creating and licensing software in the field of
 computational chemistry and represents and warrants to the
 licensee that it is not a competitor of Gaussian, Inc. and that
 it will not use this program in any manner prohibited above.
 ---------------------------------------------------------------
  

 Cite this work as:
 Gaussian 03, Revision D.01,
 M. J. Frisch, G. W. Trucks, H. B. Schlegel, G. E. Scuseria, 
 M. A. Robb, J. R. Cheeseman, J. A. Montgomery, Jr., T. Vreven, 
 K. N. Kudin, J. C. Burant, J. M. Millam, S. S. Iyengar, J. Tomasi, 
 V. Barone, B. Mennucci, M. Cossi, G. Scalmani, N. Rega, 
 G. A. Petersson, H. Nakatsuji, M. Hada, M. Ehara, K. Toyota, 
 R. Fukuda, J. Hasegawa, M. Ishida, T. Nakajima, Y. Honda, O. Kitao, 
 H. Nakai, M. Klene, X. Li, J. E. Knox, H. P. Hratchian, J. B. Cross, 
 V. Bakken, C. Adamo, J. Jaramillo, R. Gomperts, R. E. Stratmann, 
 O. Yazyev, A. J. Austin, R. Cammi, C. Pomelli, J. W. Ochterski, 
 P. Y. Ayala, K. Morokuma, G. A. Voth, P. Salvador, J. J. Dannenberg, 
 V. G. Zakrzewski, S. Dapprich, A. D. Daniels, M. C. Strain, 
 O. Farkas, D. K. Malick, A. D. Rabuck, K. Raghavachari, 
 J. B. Foresman, J. V. Ortiz, Q. Cui, A. G. Baboul, S. Clifford, 
 J. Cioslowski, B. B. Stefanov, G. Liu, A. Liashenko, P. Piskorz, 
 I. Komaromi, R. L. Martin, D. J. Fox, T. Keith, M. A. Al-Laham, 
 C. Y. Peng, A. Nanayakkara, M. Challacombe, P. M. W. Gill, 
 B. Johnson, W. Chen, M. W. Wong, C. Gonzalez, and J. A. Pople, 
 Gaussian, Inc., Wallingford CT, 2004.
 
 ******************************************
 Gaussian 03:  IA32W-G03RevD.01 13-Oct-2005
                13-Dec-2007 
 ******************************************
 ---------
 # opt uff
 ---------
 1/6=10,10=10,14=-1,18=4000020,38=1,56=1,64=2/1,3;
 2/9=110,17=6,18=5,40=1/2;
 3/5=30,11=9,16=1,25=1,30=1/1;
 4/20=10,22=1001,24=3/2;
 7/44=-1/16;
 1/6=10,10=10,14=-1,18=4000020,64=2/3(2);
 2/9=110/2;
 99//99;
 2/9=110/2;
 3/5=30,11=9,16=1,25=1,30=1/1;
 4/16=2,20=10,22=1001,24=3/2;
 7/44=-1/16;
 1/6=10,10=10,14=-1,18=4000020,64=2/3(-4);
 2/9=110/2;
 99//99;
 ---------------------
 methoxycyclohexane-eq
 ---------------------
 Symbolic Z-matrix:
 Charge =  0 Multiplicity = 1
 C                     0.23928  -1.81328  -1.04634 
 C                     1.65128  -1.21428  -1.08134 
 C                     1.58628   0.31872  -1.09234 
 C                    -0.54072  -1.28728   0.16666 
 C                     0.79728   0.85172   0.11366 
 C                    -0.61672   0.24872   0.16166 
 H                     0.29928  -2.92828  -1.00634 
 H                    -0.30472  -1.54628  -1.98334 
 H                     2.19828  -1.58028  -1.98334 
 H                     2.22528  -1.55728  -0.18734 
 H                     1.09728   0.66172  -2.03534 
 H                     2.62028   0.74172  -1.08734 
 H                    -0.04172  -1.63228   1.10366 
 H                    -1.57072  -1.71728   0.16766 
 H                     0.75428   1.96372   0.03866 
 H                     1.33928   0.60072   1.05666 
 H                    -1.21672   0.57272  -0.72334 
 O                    -1.30472   0.62472   1.34066 
 C                    -1.70172   1.97472   1.38566 
 H                    -2.33472   2.08772   2.29366 
 H                    -0.81072   2.63172   1.48966 
 H                    -2.30672   2.22972   0.48566 
 
 Include all MM classes
 MMInit generated parameter data with length LenPar=  2591.

 GradGradGradGradGradGradGradGradGradGradGradGradGradGradGradGradGradGrad
 Berny optimization.
 Initialization pass.
 No Z-matrix variables, so optimization will use Cartesian coordinates.
 Trust Radius=1.00D-01 FncErr=1.00D-07 GrdErr=1.00D-07
 Number of steps in this run=   2 maximum allowed number of steps=   2.
 GradGradGradGradGradGradGradGradGradGradGradGradGradGradGradGradGradGrad

                          Input orientation:                          
 ---------------------------------------------------------------------
 Center     Atomic     Atomic              Coordinates (Angstroms)
 Number     Number      Type              X           Y           Z
 ---------------------------------------------------------------------
    1          6      10061003        0.239281   -1.813281   -1.046344
    2          6      10061003        1.651281   -1.214281   -1.081344
    3          6      10061003        1.586281    0.318719   -1.092344
    4          6      10061003       -0.540719   -1.287281    0.166656
    5          6      10061003        0.797281    0.851719    0.113656
    6          6      10061003       -0.616719    0.248719    0.161656
    7          1      10011000        0.299281   -2.928281   -1.006344
    8          1      10011000       -0.304719   -1.546281   -1.983344
    9          1      10011000        2.198281   -1.580281   -1.983344
   10          1      10011000        2.225281   -1.557281   -0.187344
   11          1      10011000        1.097281    0.661719   -2.035344
   12          1      10011000        2.620281    0.741719   -1.087344
   13          1      10011000       -0.041719   -1.632281    1.103656
   14          1      10011000       -1.570719   -1.717281    0.167656
   15          1      10011000        0.754281    1.963719    0.038656
   16          1      10011000        1.339281    0.600719    1.056656
   17          1      10011000       -1.216719    0.572719   -0.723344
   18          8      10081003       -1.304719    0.624719    1.340656
   19          6      10061003       -1.701719    1.974719    1.385656
   20          1      10011000       -2.334719    2.087719    2.293656
   21          1      10011000       -0.810719    2.631719    1.489656
   22          1      10011000       -2.306719    2.229719    0.485656
 ---------------------------------------------------------------------
                    Distance matrix (angstroms):
                    1          2          3          4          5
     1  C    0.000000
     2  C    1.534200   0.000000
     3  C    2.522290   1.534417   0.000000
     4  C    1.535072   2.523430   2.947617   0.000000
     5  C    2.959593   2.534896   1.536570   2.523564   0.000000
     6  C    2.538473   2.971404   2.535868   1.537887   1.537956
     7  H    1.117329   2.184336   3.493819   2.185042   3.973764
     8  H    1.115883   2.179395   2.801426   2.178366   3.370789
     9  H    2.184019   1.116588   2.185092   3.494348   3.503546
    10  H    2.178902   1.116405   2.178697   2.801602   2.816570
    11  H    2.799984   2.176329   1.116252   3.366073   2.178142
    12  H    3.492688   2.182873   1.117188   3.959959   2.185825
    13  H    2.175827   2.795568   3.358452   1.116241   2.802548
    14  H    2.181539   3.492033   3.962265   1.116155   3.494295
    15  H    3.963355   3.486932   2.162732   3.501772   1.115356
    16  H    3.385263   2.821810   2.181452   2.809100   1.116250
    17  H    2.813763   3.398081   2.838571   2.169948   2.198774
    18  O    3.745070   4.240983   3.790911   2.370172   2.444476
    19  C    4.902147   5.243893   4.437766   3.670766   3.020615
    20  H    5.744465   6.179161   5.474358   4.374150   4.011174
    21  H    5.224157   5.240534   4.214535   4.145092   2.765401
    22  H    5.017468   5.475618   4.614916   3.948393   3.416443
                    6          7          8          9         10
     6  C    0.000000
     7  H    3.506652   0.000000
     8  H    2.814319   1.797017   0.000000
     9  H    3.983778   2.525437   2.503231   0.000000
    10  H    3.385321   2.501975   3.102682   1.796350   0.000000
    11  H    2.816944   3.818867   2.616022   2.498293   3.100234
    12  H    3.504457   4.343098   3.820129   2.524398   2.500285
    13  H    2.180860   2.499599   3.099376   3.814430   2.609903
    14  H    2.185248   2.518273   2.501759   4.341766   3.815919
    15  H    2.199090   5.023018   4.186892   4.328228   3.822611
    16  H    2.179648   4.217986   4.068654   3.838781   2.643765
    17  H    1.117229   3.825617   2.628594   4.229094   4.083082
    18  O    1.415896   4.550278   4.094169   5.308673   4.422308
    19  C    2.377914   5.810772   5.069439   6.260845   5.510960
    20  H    3.298313   6.556540   5.968215   7.231531   6.343105
    21  H    2.734942   6.194814   5.456505   6.233519   5.438506
    22  H    2.624012   5.968439   4.935802   6.395865   5.944184
                   11         12         13         14         15
    11  H    0.000000
    12  H    1.795726   0.000000
    13  H    4.051306   4.186001   0.000000
    14  H    4.198937   5.018584   1.794760   0.000000
    15  H    2.472717   2.498623   3.833935   4.355689   0.000000
    16  H    3.102056   2.501515   2.625959   3.825120   1.798977
    17  H    2.661552   3.857930   3.095251   2.482599   2.529894
    18  O    4.143471   4.616763   2.597188   2.632802   2.779857
    19  C    4.611031   5.129883   3.980650   3.889929   2.801154
    20  H    5.705466   6.147756   4.529056   4.425110   3.826529
    21  H    4.466205   4.688794   4.349949   4.608588   2.236258
    22  H    4.516778   5.381803   4.519645   4.027608   3.104881
                   16         17         18         19         20
    16  H    0.000000
    17  H    3.114855   0.000000
    18  O    2.659317   2.066529   0.000000
    19  C    3.353177   2.578509   1.407883   0.000000
    20  H    4.152061   3.556324   2.027185   1.112619   0.000000
    21  H    2.989139   3.049867   2.072266   1.111911   1.806911
    22  H    4.033980   2.322806   2.076308   1.114024   1.813784
                   21         22
    21  H    0.000000
    22  H    1.845978   0.000000
 Stoichiometry    C7H14O
 Framework group  C1[X(C7H14O)]
 Deg. of freedom    60
 Full point group                 C1
 Largest Abelian subgroup         C1      NOp   1
 Largest concise Abelian subgroup C1      NOp   1
                         Standard orientation:                         
 ---------------------------------------------------------------------
 Center     Atomic     Atomic              Coordinates (Angstroms)
 Number     Number      Type              X           Y           Z
 ---------------------------------------------------------------------
    1          6      10061003       -1.775850   -1.094135    0.298839
    2          6      10061003       -2.293115    0.254931   -0.217132
    3          6      10061003       -1.353765    1.390961    0.208889
    4          6      10061003       -0.345140   -1.349011   -0.195684
    5          6      10061003        0.082772    1.136788   -0.273611
    6          6      10061003        0.605835   -0.218413    0.231508
    7          1      10011000       -2.449634   -1.916896   -0.043951
    8          1      10011000       -1.790845   -1.099660    1.414607
    9          1      10011000       -3.322214    0.443039    0.173174
   10          1      10011000       -2.364151    0.226995   -1.330925
   11          1      10011000       -1.360263    1.479008    1.321644
   12          1      10011000       -1.725415    2.362608   -0.198405
   13          1      10011000       -0.349072   -1.431487   -1.308868
   14          1      10011000        0.023168   -2.324354    0.202882
   15          1      10011000        0.725795    1.972787    0.089217
   16          1      10011000        0.111640    1.152487   -1.389377
   17          1      10011000        0.686155   -0.222594    1.345838
   18          8      10081003        1.874159   -0.525877   -0.317655
   19          6      10061003        2.935772    0.253965    0.179295
   20          1      10011000        3.870486   -0.182836   -0.237163
   21          1      10011000        2.841715    1.301562   -0.181314
   22          1      10011000        2.970309    0.195846    1.291266
 ---------------------------------------------------------------------
 Rotational constants (GHZ):      3.9461274      1.3594428      1.0947059
 Standard basis: Dummy (5D, 7F)
 There are    22 symmetry adapted basis functions of A   symmetry.
 Integral buffers will be    262144 words long.
 Raffenetti 1 integral format.
 Two-electron integral symmetry is turned on.
    22 basis functions,    22 primitive gaussians,    22 cartesian basis functions
    15 alpha electrons       15 beta electrons
       nuclear repulsion energy        87.1347720940 Hartrees.
 NAtoms=   22 NActive=   22 NUniq=   22 SFac= 7.50D-01 NAtFMM=   80 NAOKFM=F Big=F
 UFF calculation of energy and first derivatives.
 MO and density RWFs will be updated without deorthogonalization.
 NRF= 0 NRA=   0 NVA=  22 HaveQM=F
 Convergence limit is  0.750E-04 MaxStp=  5000 StMxLn= 1.00D-04 StpMin= 1.00D-06.
 Convergence criteria           0.00011250 0.00007500 0.00045000 0.00030000
  Step  NS  ND Rises OKQ   Scale  Max. Force  RMS Force Max. Disp.  RMS Disp.     Energy   Flag
     1   0   0   F    T  1.00D+00 0.01896632 0.00464611 0.01896632 0.00464611    0.0258338 ----
     2   0   0   F    F  5.08D-01 0.01896632 0.00464611 0.01896632 0.00464611    0.0248802 ----
     3   0   0   F    T  2.27D+00 0.00902784 0.00268001 0.01451695 0.00309391    0.0247577 ----
     4   0   0   F    F  4.06D-02 0.00902784 0.00268001 0.03288222 0.00700798    0.0242000 ----
     5   0   0   F    T  2.98D+00 0.00609544 0.00189896 0.00943741 0.00244498    0.0241992 ----
     6   0   0   F    F -4.31D-01 0.00609544 0.00189896 0.02814829 0.00729247    0.0241130 ----
     7   0   0   F    T  2.03D+00 0.00449488 0.00145570 0.00542789 0.00204563    0.0239972 ----
     8   0   0   F    F  3.56D-01 0.00449488 0.00145570 0.01101153 0.00414996    0.0238181 ----
     9   0   0   F    T  2.07D+00 0.00494759 0.00152553 0.00756981 0.00271687    0.0238048 ----
    10   0   0   F    F  2.06D-01 0.00494759 0.00152553 0.01568397 0.00562912    0.0236186 ----
    11   0   0   F    T  3.11D+00 0.00334806 0.00123837 0.00772240 0.00218200    0.0236130 ----
    12   0   0   F    F -6.57D-03 0.00334806 0.00123837 0.02402137 0.00678735    0.0234563 ----
    13   0   0   F    T  2.63D+00 0.00374220 0.00125621 0.00934746 0.00256563    0.0234563 ----
    14   0   0   F    F -3.11D-01 0.00374220 0.00125621 0.02456607 0.00674274    0.0233811 ----
    15   0   0   F    T  3.09D+00 0.00223763 0.00087523 0.00506206 0.00150190    0.0233618 ----
    16   0   0   F    F -1.19D-02 0.00223763 0.00087523 0.01566317 0.00464720    0.0232844 ----
    17   0   0   F    T  3.15D+00 0.00231755 0.00079328 0.00420515 0.00145923    0.0232844 ----
    18   0   0   F    F -2.19D-01 0.00231755 0.00079328 0.01323280 0.00459191    0.0232373 ----
    19   0   0   F    T  2.77D+00 0.00183067 0.00068951 0.00444752 0.00129653    0.0232333 ----
    20   0   0   F    F  4.54D-01 0.00183067 0.00068951 0.01230761 0.00358790    0.0231764 ----
    21   0   0   F    T  3.22D+00 0.00172519 0.00072847 0.00556227 0.00162010    0.0231702 ----
    22   0   0   F    F  1.69D-01 0.00172519 0.00072847 0.01791401 0.00521775    0.0231057 ----
    23   0   0   F    T  5.05D+00 0.00174558 0.00058651 0.00332013 0.00120758    0.0231044 ----
    24   0   0   T    F  3.79D-01 0.00174558 0.00058651 0.01676380 0.00609726    0.0231411 ----
    25   0   0   F    T  2.75D+00 0.00099770 0.00044948 0.00177471 0.00083896    0.0230827 ----
    26   0   0   F    T  1.99D+00 0.00154731 0.00050298 0.00234071 0.00116033    0.0230642 ----
    27   0   0   F    F  4.61D-01 0.00154731 0.00050298 0.00465896 0.00230953    0.0230421 ----
    28   0   0   F    T  2.50D+00 0.00187930 0.00051673 0.00313106 0.00134847    0.0230397 ----
    29   0   0   F    F  1.52D-01 0.00187930 0.00051673 0.00783562 0.00337460    0.0230147 ----
    30   0   0   F    T  2.19D+00 0.00183327 0.00057911 0.00471168 0.00177659    0.0230143 ----
    31   0   0   F    F  3.51D-01 0.00183327 0.00057911 0.01030604 0.00388601    0.0229838 ----
    32   0   0   F    T  2.86D+00 0.00180142 0.00057248 0.00519015 0.00183388    0.0229816 ----
    33   0   0   F    F -6.17D-02 0.00180142 0.00057248 0.01485972 0.00525052    0.0229527 ----
    34   0   0   F    T  2.18D+00 0.00153184 0.00062309 0.00654488 0.00226508    0.0229526 ----
    35   0   0   F    F  9.25D-01 0.00153184 0.00062309 0.01423555 0.00492671    0.0229114 ----
    36   0   0   F    T  2.99D+00 0.00243857 0.00072385 0.00907116 0.00316707    0.0228990 ----
    37   0   0   F    F -2.81D-01 0.00243857 0.00072385 0.02716002 0.00948253    0.0228675 ----
    38   0   0   F    T  3.51D+00 0.00133856 0.00055458 0.00547333 0.00194174    0.0228618 ----
    39   0   0   F    F  6.03D-02 0.00133856 0.00055458 0.01921256 0.00681594    0.0228241 ----
    40   0   0   F    T  2.86D+00 0.00165967 0.00062424 0.00773189 0.00252731    0.0228240 ----
    41   0   0   F    F  4.93D-01 0.00165967 0.00062424 0.02210910 0.00722677    0.0227749 ----
    42   0   0   F    T  3.11D+00 0.00200174 0.00072594 0.01140958 0.00347491    0.0227688 ----
    43   0   0   F    F -2.01D-01 0.00200174 0.00072594 0.03542937 0.01079039    0.0227285 ----
    44   0   0   F    T  5.52D+00 0.00153037 0.00047684 0.00569570 0.00155997    0.0227258 ----
    45   0   0   F    F -3.79D-01 0.00153037 0.00047684 0.03146619 0.00861810    0.0227096 ----
    46   0   0   F    T  1.78D+00 0.00211689 0.00065164 0.01119966 0.00299991    0.0227001 ----
    47   0   0   F    F  1.97D-01 0.00211689 0.00065164 0.01998743 0.00535377    0.0226710 ----
    48   0   0   F    T  3.00D+00 0.00152140 0.00053733 0.00811907 0.00213637    0.0226702 ----
    49   0   0   F    F  2.39D-01 0.00152140 0.00053733 0.02434841 0.00640679    0.0226361 ----
    50   0   0   F    T  2.63D+00 0.00180940 0.00063143 0.01179246 0.00301831    0.0226347 ----
    51   0   0   F    F -1.69D-01 0.00180940 0.00063143 0.03102017 0.00793968    0.0226071 ----
    52   0   0   F    T  4.89D+00 0.00113713 0.00041943 0.00546601 0.00134900    0.0226059 ----
    53   0   0   F    F -5.00D-01 0.00113713 0.00041943 0.02672937 0.00659676    0.0226058 ----
    54   0   0   F    T  2.01D+00 0.00162377 0.00045394 0.00656808 0.00164152    0.0225917 ----
    55   0   0   F    F  1.14D+00 0.00162377 0.00045394 0.01320982 0.00330144    0.0225708 ----
    56   0   0   F    T  2.50D+00 0.00186741 0.00058790 0.01129895 0.00282542    0.0225625 ----
    57   0   0   F    F  1.86D-01 0.00186741 0.00058790 0.02823225 0.00705977    0.0225296 ----
    58   0   0   F    T  3.38D+00 0.00153791 0.00053866 0.01014996 0.00247610    0.0225288 ----
    59   0   0   F    F -9.06D-03 0.00153791 0.00053866 0.03433390 0.00837580    0.0224966 ----
    60   0   0   F    T  3.31D+00 0.00185682 0.00053749 0.01052602 0.00250901    0.0224966 ----
    61   0   0   F    F  2.78D-01 0.00185682 0.00053749 0.03482054 0.00829990    0.0224578 ----
    62   0   0   F    T  2.25D+00 0.00184176 0.00073969 0.02025477 0.00471038    0.0224559 ----
    63   0   0   F    F  3.50D-01 0.00184176 0.00073969 0.04562033 0.01060931    0.0224042 ----
    64   0   0   F    T  3.22D+00 0.00220173 0.00074201 0.02018054 0.00445310    0.0224004 ----
    65   0   0   F    F -9.80D-02 0.00220173 0.00074201 0.06488522 0.01431776    0.0223483 ----
    66   0   0   F    T  1.97D+00 0.00303212 0.00090556 0.03064683 0.00654803    0.0223477 ----
    67   0   0   F    F  3.98D-01 0.00303212 0.00090556 0.06044550 0.01291484    0.0222794 ----
    68   0   0   F    F -7.23D-03 0.00303212 0.00090556 0.02402946 0.00513416    0.0222735 ----
    69   0   0   F    T  2.33D+00 0.00294932 0.00097620 0.03665001 0.00773525    0.0222735 ----
    70   0   0   F    F  5.26D-01 0.00294932 0.00097620 0.08534123 0.01801189    0.0221753 ----
    71   0   0   F    F -2.69D-02 0.00294932 0.00097620 0.04492545 0.00948184    0.0221624 ----
    72   0   0   F    T  3.89D+00 0.00235213 0.00091979 0.03315470 0.00700434    0.0221624 ----
    73   0   0   F    F -4.43D-01 0.00235213 0.00091979 0.12893271 0.02723863    0.0221409 ----
    74   0   0   F    T  3.38D+00 0.00218609 0.00074491 0.02069178 0.00449447    0.0221016 ----
    75   0   0   F    F -2.74D-01 0.00218609 0.00074491 0.06988005 0.01517867    0.0220632 ----
    76   0   0   F    T  2.18D+00 0.00216037 0.00077797 0.02284363 0.00506282    0.0220570 ----
    77   0   0   F    F  1.14D+00 0.00216037 0.00077797 0.04975409 0.01102696    0.0219919 ----
    78   0   0   F    F -2.35D-02 0.00216037 0.00077797 0.05656842 0.01253721    0.0219678 ----
    79   0   0   F    T  5.86D+00 0.00219483 0.00062332 0.01759031 0.00396985    0.0219678 ----
    80   0   0   T    F  2.44D-01 0.00219483 0.00062332 0.10310773 0.02326974    0.0221290 ----
    81   0   0   F    T  2.85D+00 0.00176153 0.00043001 0.00931026 0.00199423    0.0219495 ----
    82   0   0   F    F  2.94D-01 0.00176153 0.00043001 0.02648922 0.00567392    0.0219280 ----
    83   0   0   F    T  2.55D+00 0.00183722 0.00051847 0.01388746 0.00287838    0.0219269 ----
    84   0   0   F    F -1.33D-01 0.00183722 0.00051847 0.03541084 0.00733942    0.0219076 ----
    85   0   0   F    T  3.13D+00 0.00127918 0.00044361 0.00943636 0.00203018    0.0219071 ----
    86   0   0   F    F  9.88D-02 0.00127918 0.00044361 0.02956616 0.00636098    0.0218850 ----
    87   0   0   F    T  2.04D+00 0.00171727 0.00057561 0.01588246 0.00342359    0.0218848 ----
    88   0   0   F    F  6.47D-01 0.00171727 0.00057561 0.03242380 0.00698921    0.0218539 ----
    89   0   0   F    F -5.15D-03 0.00171727 0.00057561 0.02097105 0.00452048    0.0218484 ----
    90   0   0   F    T  4.42D+00 0.00127535 0.00048824 0.01226199 0.00259892    0.0218484 ----
    91   0   0   F    F -2.48D-01 0.00127535 0.00048824 0.05419415 0.01148642    0.0218252 ----
    92   0   0   F    T  2.22D+00 0.00204420 0.00058667 0.01851707 0.00388531    0.0218224 ----
    93   0   0   F    F  5.57D-01 0.00204420 0.00058667 0.04114556 0.00863328    0.0217880 ----
    94   0   0   F    F -9.27D-03 0.00204420 0.00058667 0.02290611 0.00480623    0.0217830 ----
    95   0   0   F    T  2.83D+00 0.00222318 0.00064137 0.02226510 0.00473463    0.0217830 ----
    96   0   0   F    F -9.82D-02 0.00222318 0.00064137 0.06299135 0.01339497    0.0217483 ----
    97   0   0   F    T  3.99D+00 0.00160730 0.00053111 0.01360560 0.00302378    0.0217479 ----
    98   0   0   F    F -3.69D-01 0.00160730 0.00053111 0.05435169 0.01207941    0.0217324 ----
    99   0   0   F    T  2.37D+00 0.00135203 0.00054991 0.01363526 0.00321366    0.0217243 ----
   100   0   0   F    F  4.52D-01 0.00135203 0.00054991 0.03235865 0.00762653    0.0216934 ----
   101   0   0   F    T  3.08D+00 0.00204045 0.00057729 0.01455817 0.00359371    0.0216901 ----
   102   0   0   F    F -3.93D-01 0.00204045 0.00057729 0.04484568 0.01107023    0.0216782 ----
   103   0   0   F    T  2.47D+00 0.00139129 0.00049480 0.01077655 0.00271509    0.0216696 ----
   104   0   0   F    F  8.59D-02 0.00139129 0.00049480 0.02664964 0.00671423    0.0216480 ----
   105   0   0   F    T  4.76D+00 0.00105158 0.00036797 0.00582437 0.00153081    0.0216478 ----
   106   0   0   F    F -3.87D-01 0.00105158 0.00036797 0.02773923 0.00729067    0.0216400 ----
   107   0   0   F    T  2.99D+00 0.00094499 0.00035938 0.00573255 0.00149452    0.0216348 ----
   108   0   0   F    F  1.67D-01 0.00094499 0.00035938 0.01715142 0.00447152    0.0216202 ----
   109   0   0   F    T  3.05D+00 0.00128706 0.00037829 0.00647715 0.00171108    0.0216199 ----
   110   0   0   F    F -3.55D-01 0.00128706 0.00037829 0.01975632 0.00521906    0.0216134 ----
   111   0   0   F    T  3.03D+00 0.00069067 0.00029687 0.00407492 0.00111197    0.0216106 ----
   112   0   0   F    F  3.23D-01 0.00069067 0.00029687 0.01234451 0.00336859    0.0215997 ----
   113   0   0   F    T  2.35D+00 0.00106581 0.00038294 0.00689085 0.00190032    0.0215990 ----
   114   0   0   F    F  1.48D-01 0.00106581 0.00038294 0.01616474 0.00445781    0.0215862 ----
   115   0   0   F    T  3.24D+00 0.00110429 0.00034426 0.00547257 0.00158059    0.0215860 ----
   116   0   0   F    F -2.71D-01 0.00110429 0.00034426 0.01771750 0.00511719    0.0215780 ----
   117   0   0   F    T  2.15D+00 0.00123644 0.00035829 0.00537752 0.00173820    0.0215767 ----
   118   0   0   F    F  1.96D-01 0.00123644 0.00035829 0.01154102 0.00373045    0.0215661 ----
   119   0   0   F    T  3.23D+00 0.00078364 0.00031765 0.00353571 0.00138197    0.0215658 ----
   120   0   0   F    F  1.12D-01 0.00078364 0.00031765 0.01141865 0.00446312    0.0215540 ----
   121   0   0   F    T  2.72D+00 0.00108411 0.00036252 0.00463610 0.00182679    0.0215539 ----
   122   0   0   F    F  1.68D-01 0.00108411 0.00036252 0.01259393 0.00496246    0.0215404 ----
   123   0   0   F    T  4.54D+00 0.00113922 0.00029852 0.00331385 0.00127682    0.0215401 ----
   124   0   0   T    F  4.60D-01 0.00113922 0.00029852 0.01504142 0.00579543    0.0215424 ----
   125   0   0   F    T  3.28D+00 0.00056473 0.00023242 0.00220370 0.00081272    0.0215340 ----
   126   0   0   F    F -1.74D-01 0.00056473 0.00023242 0.00722435 0.00266433    0.0215294 ----
   127   0   0   F    T  2.38D+00 0.00067522 0.00024339 0.00246559 0.00092559    0.0215292 ----
   128   0   0   F    F  7.61D-01 0.00067522 0.00024339 0.00586425 0.00220145    0.0215225 ----
   129   0   0   F    T  2.32D+00 0.00118298 0.00032376 0.00425063 0.00167320    0.0215210 ----
   130   0   0   F    F -1.86D-01 0.00118298 0.00032376 0.00984576 0.00387565    0.0215148 ----
   131   0   0   F    T  4.08D+00 0.00062111 0.00021458 0.00209490 0.00077265    0.0215145 ----
   132   0   0   F    F -2.93D-01 0.00062111 0.00021458 0.00855324 0.00315463    0.0215108 ----
   133   0   0   F    T  1.85D+00 0.00094714 0.00026500 0.00353317 0.00120811    0.0215101 ----
   134   0   0   F    F  7.76D-01 0.00094714 0.00026500 0.00652025 0.00222949    0.0215039 ----
   135   0   0   F    T  3.79D+00 0.00086443 0.00024337 0.00318913 0.00104371    0.0215025 ----
   136   0   0   T    F  4.84D-01 0.00086443 0.00024337 0.01210101 0.00396031    0.0215030 ----
   137   0   0   F    T  3.92D+00 0.00037986 0.00016170 0.00158128 0.00048824    0.0214989 ----
   138   0   0   F    F  1.93D-02 0.00037986 0.00016170 0.00620588 0.00191613    0.0214954 ----
   139   0   0   F    T  2.85D+00 0.00060240 0.00018796 0.00222941 0.00068626    0.0214954 ----
   140   0   0   F    F  2.26D-01 0.00060240 0.00018796 0.00634514 0.00195317    0.0214915 ----
   141   0   0   F    T  3.18D+00 0.00058191 0.00019328 0.00241555 0.00075211    0.0214914 ----
   142   0   0   F    F -3.35D-01 0.00058191 0.00019328 0.00769322 0.00239537    0.0214894 ----
   143   0   0   F    T  3.02D+00 0.00045725 0.00015801 0.00166928 0.00052797    0.0214888 ----
   144   0   0   F    F  8.10D-02 0.00045725 0.00015801 0.00503545 0.00159264    0.0214861 ----
   145   0   0   F    T  2.49D+00 0.00060002 0.00017762 0.00215832 0.00069062    0.0214861 ----
   146   0   0   F    T  2.28D+00 0.00056759 0.00018421 0.00240808 0.00075375    0.0214834 ----
   147   0   0   F    F  1.23D-01 0.00056759 0.00018421 0.00550026 0.00172162    0.0214805 ----
   148   0   0   F    T  3.17D+00 0.00044661 0.00015890 0.00212231 0.00060930    0.0214805 ----
   149   0   0   F    F -5.92D-02 0.00044661 0.00015890 0.00673224 0.00193276    0.0214780 ----
   150   0   0   F    T  2.60D+00 0.00040952 0.00016899 0.00262181 0.00069818    0.0214780 ----
   151   0   0   F    F  2.19D-01 0.00040952 0.00016899 0.00682786 0.00181825    0.0214751 ----
   152   0   0   F    T  2.20D+00 0.00055423 0.00020096 0.00387791 0.00100691    0.0214750 ----
   153   0   0   F    F  4.58D-01 0.00055423 0.00020096 0.00853611 0.00221641    0.0214712 ----
   154   0   0   F    T  4.36D+00 0.00042219 0.00016972 0.00297264 0.00074038    0.0214708 ----
   155   0   0   F    F -4.77D-01 0.00042219 0.00016972 0.01297015 0.00323042    0.0214704 ----
   156   0   0   F    T  2.84D+00 0.00034273 0.00014947 0.00244975 0.00059504    0.0214686 ----
   157   0   0   F    F  5.15D-01 0.00034273 0.00014947 0.00696184 0.00169104    0.0214658 ----
   158   0   0   F    T  2.66D+00 0.00053702 0.00018811 0.00403021 0.00096272    0.0214654 ----
   159   0   0   F    F  6.59D-02 0.00053702 0.00018811 0.01072758 0.00256255    0.0214621 ----
   160   0   0   F    T  2.26D+00 0.00077741 0.00020927 0.00518878 0.00120983    0.0214621 ----
   161   0   0   F    F -9.63D-02 0.00077741 0.00020927 0.01171485 0.00273146    0.0214592 ----
   162   0   0   F    T  3.40D+00 0.00054846 0.00016015 0.00321042 0.00072685    0.0214592 ----
   163   0   0   F    F -1.80D-01 0.00054846 0.00016015 0.01090274 0.00246843    0.0214569 ----
   164   0   0   F    T  3.04D+00 0.00055921 0.00015138 0.00299571 0.00066546    0.0214568 ----
   165   0   0   F    F  1.06D-01 0.00055921 0.00015138 0.00911183 0.00202410    0.0214543 ----
   166   0   0   F    T  2.76D+00 0.00045284 0.00016534 0.00360530 0.00081186    0.0214543 ----
   167   0   0   F    F  5.66D-02 0.00045284 0.00016534 0.00993941 0.00223820    0.0214516 ----
   168   0   0   F    T  2.43D+00 0.00072110 0.00017952 0.00435092 0.00097463    0.0214516 ----
   169   0   0   F    F -3.37D-02 0.00072110 0.00017952 0.01055682 0.00236478    0.0214491 ----
   170   0   0   F    T  5.27D+00 0.00032115 0.00011752 0.00187687 0.00043323    0.0214491 ----
   171   0   0   F    F -1.80D-01 0.00032115 0.00011752 0.00989974 0.00228510    0.0214473 ----
   172   0   0   F    T  2.21D+00 0.00049815 0.00016288 0.00368038 0.00084835    0.0214472 ----
   173   0   0   F    F  1.90D-02 0.00049815 0.00016288 0.00812862 0.00187370    0.0214452 ----
   174   0   0   F    T  4.15D+00 0.00041629 0.00011790 0.00198514 0.00046056    0.0214452 ----
   175   0   0   F    F -3.16D-01 0.00041629 0.00011790 0.00822986 0.00190935    0.0214442 ----
   176   0   0   F    T  1.34D+00 0.00062291 0.00016984 0.00418778 0.00097103    0.0214439 ----
   177   0   0   F    F  3.34D+00 0.00062291 0.00016984 0.00562831 0.00130505    0.0214416 ----
   178   0   0   F    T  3.61D+00 0.00079468 0.00021367 0.00668154 0.00156690    0.0214384 ----
   179   0   0   F    F -2.84D-01 0.00079468 0.00021367 0.02415346 0.00566426    0.0214351 ----
   180   0   0   F    T  2.34D+00 0.00073149 0.00022367 0.00719230 0.00173012    0.0214345 ----
   181   0   0   F    F  4.67D-01 0.00073149 0.00022367 0.01686101 0.00405595    0.0214293 ----
   182   0   0   F    T  3.83D+00 0.00067745 0.00021533 0.00652358 0.00155197    0.0214287 ----
   183   0   0   F    F -3.77D-01 0.00067745 0.00021533 0.02500768 0.00594938    0.0214264 ----
   184   0   0   F    T  3.25D+00 0.00051322 0.00018658 0.00512274 0.00113912    0.0214251 ----
   185   0   0   F    F -4.40D-02 0.00051322 0.00018658 0.01667068 0.00370697    0.0214215 ----
   186   0   0   F    T  3.29D+00 0.00048589 0.00017941 0.00498917 0.00107627    0.0214215 ----
   187   0   0   F    F -4.45D-01 0.00048589 0.00017941 0.01642857 0.00354399    0.0214208 ----
   188   0   0   F    T  3.68D+00 0.00039160 0.00012292 0.00238193 0.00053426    0.0214196 ----
   189   0   0   F    F -2.18D-01 0.00039160 0.00012292 0.00876737 0.00196649    0.0214182 ----
   190   0   0   F    T  2.48D+00 0.00044425 0.00013043 0.00262437 0.00061957    0.0214181 ----
   191   0   0   F    F  3.90D-02 0.00044425 0.00013043 0.00651201 0.00153738    0.0214167 ----
   192   0   0   F    T  2.32D+00 0.00040393 0.00013584 0.00278297 0.00068782    0.0214167 ----
   193   0   0   F    F  7.82D-02 0.00040393 0.00013584 0.00646308 0.00159736    0.0214152 ----
   194   0   0   F    T  3.31D+00 0.00033536 0.00011671 0.00194495 0.00052018    0.0214152 ----
   195   0   0   F    F  4.15D-02 0.00033536 0.00011671 0.00643989 0.00172235    0.0214136 ----
   196   0   0   F    T  2.81D+00 0.00032337 0.00012811 0.00229076 0.00063725    0.0214136 ----
   197   0   0   F    F -2.85D-02 0.00032337 0.00012811 0.00644846 0.00179386    0.0214121 ----
   198   0   0   F    T  2.90D+00 0.00030010 0.00012336 0.00217057 0.00060121    0.0214121 ----
   199   0   0   F    F  6.28D-01 0.00030010 0.00012336 0.00629189 0.00174273    0.0214101 ----
   200   0   0   F    T  2.29D+00 0.00042435 0.00017621 0.00454229 0.00123893    0.0214098 ----
   201   0   0   F    F  2.86D-01 0.00042435 0.00017621 0.01040478 0.00283795    0.0214069 ----
   202   0   0   F    T  4.49D+00 0.00040056 0.00014188 0.00295858 0.00081304    0.0214067 ----
   203   0   0   T    F  4.77D-01 0.00040056 0.00014188 0.01328385 0.00365049    0.0214070 ----
   204   0   0   F    T  2.89D+00 0.00034794 0.00012114 0.00218158 0.00060287    0.0214053 ----
   205   0   0   F    F -2.91D-02 0.00034794 0.00012114 0.00630158 0.00174141    0.0214040 ----
   206   0   0   F    T  3.55D+00 0.00033164 0.00010644 0.00168658 0.00047575    0.0214040 ----
   207   0   0   F    F -3.92D-01 0.00033164 0.00010644 0.00599396 0.00169076    0.0214035 ----
   208   0   0   F    T  2.57D+00 0.00029306 0.00009628 0.00131847 0.00040055    0.0214031 ----
   209   0   0   F    F  1.32D-01 0.00029306 0.00009628 0.00338588 0.00102862    0.0214023 ----
   210   0   0   F    T  2.92D+00 0.00024445 0.00009463 0.00113622 0.00039926    0.0214023 ----
   211   0   0   F    F -3.91D-01 0.00024445 0.00009463 0.00331360 0.00116436    0.0214019 ----
   212   0   0   F    T  3.01D+00 0.00028954 0.00007096 0.00059067 0.00023550    0.0214017 -+-+
   213   0   0   F    F  5.28D-01 0.00028954 0.00007096 0.00177933 0.00070941    0.0214011 -+--
   214   0   0   F    T  2.94D+00 0.00029257 0.00008746 0.00097246 0.00036835    0.0214010 ----
   215   0   0   F    F -2.26D-01 0.00029257 0.00008746 0.00286163 0.00108393    0.0214004 ----
   216   0   0   F    T  5.24D+00 0.00019051 0.00005589 0.00058629 0.00015999    0.0214004 -+-+
   217   0   0   F    F -6.94D-02 0.00019051 0.00005589 0.00307496 0.00083913    0.0213999 -+--
   218   0   0   F    T  1.59D+00 0.00031172 0.00009683 0.00189501 0.00048993    0.0213999 ----
   219   0   0   F    F  6.72D-01 0.00031172 0.00009683 0.00302054 0.00078092    0.0213992 ----
   220   0   0   F    T  5.76D+00 0.00016445 0.00006442 0.00095012 0.00022656    0.0213991 -+-+
   221   0   0   T    F  4.50D-01 0.00016445 0.00006442 0.00547590 0.00130576    0.0213992 -+--
   222   0   0   F    T  2.68D+00 0.00017677 0.00006199 0.00095778 0.00021876    0.0213987 -+-+
   223   0   0   F    F  4.35D-01 0.00017677 0.00006199 0.00257000 0.00058699    0.0213983 -+--
   224   0   0   F    T  2.79D+00 0.00023883 0.00007180 0.00132820 0.00030225    0.0213982 -+--
   225   0   0   F    F -2.47D-01 0.00023883 0.00007180 0.00370111 0.00084225    0.0213979 -+--
   226   0   0   F    T  2.18D+00 0.00022755 0.00006950 0.00127387 0.00029143    0.0213979 -+-+
   227   0   0   F    F  2.31D-01 0.00022755 0.00006950 0.00277182 0.00063414    0.0213975 -+--
   228   0   0   F    T  3.49D+00 0.00018236 0.00005983 0.00099384 0.00022385    0.0213974 -+-+
   229   0   0   F    F -6.09D-02 0.00018236 0.00005983 0.00346574 0.00078063    0.0213971 -+--
   230   0   0   F    T  2.61D+00 0.00018114 0.00006613 0.00127753 0.00028104    0.0213971 -+-+
   231   0   0   F    F  1.95D-01 0.00018114 0.00006613 0.00333253 0.00073311    0.0213966 -+--
   232   0   0   F    T  2.49D+00 0.00022099 0.00007327 0.00162155 0.00035222    0.0213966 -+--
   233   0   0   F    F  1.22D-01 0.00022099 0.00007327 0.00403220 0.00087584    0.0213961 -+--
   234   0   0   F    T  3.72D+00 0.00016778 0.00006251 0.00126457 0.00026389    0.0213961 -+-+
   235   0   0   F    F -3.73D-01 0.00016778 0.00006251 0.00470839 0.00098255    0.0213959 -+--
   236   0   0   F    T  3.52D+00 0.00016999 0.00004978 0.00087306 0.00017489    0.0213958 -+-+
   237   0   0   F    F -6.33D-02 0.00016999 0.00004978 0.00307324 0.00061564    0.0213955 -+--
   238   0   0   F    T  3.11D+00 0.00016370 0.00005024 0.00092103 0.00018524    0.0213955 -+-+
   239   0   0   F    F -4.95D-02 0.00016370 0.00005024 0.00286723 0.00057665    0.0213953 -+--
   240   0   0   F    T  3.12D+00 0.00013773 0.00004800 0.00083579 0.00017584    0.0213953 -+-+
   241   0   0   F    F -2.12D-01 0.00013773 0.00004800 0.00260530 0.00054813    0.0213951 -+--
   242   0   0   F    T  2.21D+00 0.00019822 0.00004971 0.00087897 0.00019503    0.0213951 -+-+
   243   0   0   F    F  4.47D-01 0.00019822 0.00004971 0.00194586 0.00043176    0.0213949 -+--
   244   0   0   F    T  2.43D+00 0.00015750 0.00005642 0.00109493 0.00025770    0.0213948 -+-+
   245   0   0   F    F  8.97D-02 0.00015750 0.00005642 0.00265529 0.00062494    0.0213946 -+--
   246   0   0   F    T  2.20D+00 0.00019619 0.00006119 0.00122787 0.00030913    0.0213946 -+--
   247   0   0   F    F  4.01D-01 0.00019619 0.00006119 0.00270496 0.00068101    0.0213942 -+--
   248   0   0   F    T  3.97D+00 0.00014198 0.00005334 0.00088251 0.00024030    0.0213942 -+-+
   249   0   0   F    F -3.03D-01 0.00014198 0.00005334 0.00350274 0.00095376    0.0213940 -+--
   250   0   0   F    T  2.36D+00 0.00022663 0.00005727 0.00106045 0.00028231    0.0213939 -+-+
   251   0   0   F    F  2.72D-01 0.00022663 0.00005727 0.00249778 0.00066495    0.0213936 -+--
   252   0   0   F    T  2.98D+00 0.00012672 0.00005685 0.00110920 0.00028342    0.0213936 -+-+
   253   0   0   F    F  1.72D-01 0.00012672 0.00005685 0.00330937 0.00084561    0.0213932 -+--
   254   0   0   F    T  3.56D+00 0.00017094 0.00005573 0.00108463 0.00027830    0.0213932 -+-+
   255   0   0   F    F -2.98D-01 0.00017094 0.00005573 0.00386361 0.00099135    0.0213930 -+--
   256   0   0   F    T  2.81D+00 0.00014963 0.00005193 0.00095452 0.00024792    0.0213930 -+-+
   257   0   0   F    F  5.08D-01 0.00014963 0.00005193 0.00267896 0.00069581    0.0213926 -+--
   258   0   0   F    T  2.79D+00 0.00020591 0.00006337 0.00141904 0.00037581    0.0213926 -+--
   259   0   0   F    F -2.11D-01 0.00020591 0.00006337 0.00396158 0.00104916    0.0213923 -+--
   260   0   0   F    T  3.19D+00 0.00016909 0.00005207 0.00102312 0.00025975    0.0213923 -+-+
   261   0   0   F    T  1.98D+00 0.00028585 0.00006513 0.00170171 0.00041827    0.0213920 -+--
   262   0   0   F    F  5.80D-02 0.00028585 0.00006513 0.00336631 0.00082742    0.0213917 -+--
   263   0   0   F    T  4.90D+00 0.00010708 0.00004521 0.00070764 0.00017879    0.0213917 ++-+
   264   0   0   F    F -3.81D-01 0.00010708 0.00004521 0.00346480 0.00087540    0.0213916 ++--
   265   0   0   F    T  1.77D+00 0.00016659 0.00005837 0.00116662 0.00030621    0.0213915 -+--
   266   0   0   F    F  1.08D+00 0.00016659 0.00005837 0.00206495 0.00054200    0.0213912 -+--
   267   0   0   F    T  4.44D+00 0.00015544 0.00005243 0.00096093 0.00025352    0.0213911 -+-+
   268   0   0   F    F -4.90D-01 0.00015544 0.00005243 0.00427056 0.00112670    0.0213911 -+--
   269   0   0   F    T  2.99D+00 0.00012122 0.00004493 0.00078185 0.00019211    0.0213909 -+-+
   270   0   0   F    F -1.07D-01 0.00012122 0.00004493 0.00233923 0.00057478    0.0213907 -+--
   271   0   0   F    T  2.84D+00 0.00016570 0.00004291 0.00077027 0.00018057    0.0213907 -+-+
   272   0   0   F    F  4.15D-01 0.00016570 0.00004291 0.00218864 0.00051307    0.0213905 -+--
   273   0   0   F    T  3.94D+00 0.00013116 0.00004279 0.00076333 0.00018437    0.0213905 -+-+
   274   0   0   F    F -2.90D-01 0.00013116 0.00004279 0.00300501 0.00072581    0.0213904 -+--
   275   0   0   F    T  3.44D+00 0.00010860 0.00003793 0.00061664 0.00014963    0.0213903 ++-+
   276   0   0   F    F  3.04D-01 0.00010860 0.00003793 0.00212266 0.00051509    0.0213901 ++--
   277   0   0   F    T  2.33D+00 0.00020846 0.00005217 0.00118615 0.00028792    0.0213901 -+-+
   278   0   0   F    T  2.80D+00 0.00015250 0.00004710 0.00094599 0.00024019    0.0213899 -+-+
   279   0   0   F    F  3.62D-01 0.00015250 0.00004710 0.00264510 0.00067159    0.0213896 -+--
   280   0   0   F    T  3.60D+00 0.00014012 0.00004811 0.00096238 0.00025404    0.0213896 -+-+
   281   0   0   F    F -3.37D-01 0.00014012 0.00004811 0.00346587 0.00091490    0.0213895 -+--
   282   0   0   F    T  2.57D+00 0.00016262 0.00004587 0.00088593 0.00023604    0.0213894 -+-+
   283   0   0   F    F  3.23D-01 0.00016262 0.00004587 0.00227754 0.00060680    0.0213892 -+--
   284   0   0   F    T  2.12D+00 0.00023986 0.00005776 0.00142678 0.00037928    0.0213892 -+--
   285   0   0   F    F -7.96D-02 0.00023986 0.00005776 0.00302038 0.00080290    0.0213890 -+--
   286   0   0   F    T  4.62D+00 0.00017467 0.00003690 0.00060035 0.00015990    0.0213890 -+-+
   287   0   0   T    F  4.78D-01 0.00017467 0.00003690 0.00277448 0.00073897    0.0213890 -+--
   288   0   0   F    T  2.85D+00 0.00007617 0.00003189 0.00046974 0.00012372    0.0213889 ++-+
   289   0   0   F    F  4.04D-01 0.00007617 0.00003189 0.00134076 0.00035314    0.0213888 ++--
   290   0   0   F    T  3.29D+00 0.00011086 0.00003472 0.00057428 0.00015074    0.0213888 ++-+
   291   0   0   F    F -7.93D-02 0.00011086 0.00003472 0.00188919 0.00049587    0.0213886 ++--
   292   0   0   F    T  2.27D+00 0.00010397 0.00003973 0.00072307 0.00020146    0.0213886 ++-+
   293   0   0   F    F  4.17D-01 0.00010397 0.00003973 0.00163865 0.00045656    0.0213885 ++--
   294   0   0   F    T  4.12D+00 0.00009358 0.00003462 0.00048898 0.00015692    0.0213885 ++-+
   295   0   0   F    F -4.49D-01 0.00009358 0.00003462 0.00201633 0.00064706    0.0213884 ++--
   296   0   0   F    T  2.65D+00 0.00008368 0.00003160 0.00035787 0.00013457    0.0213884 ====
 Energy=    0.021388382971 NIter=   0.
 Dipole moment=       0.000000       0.000000       0.000000
 ***** Axes restored to original set *****
 -------------------------------------------------------------------
 Center     Atomic                   Forces (Hartrees/Bohr)
 Number     Number              X              Y              Z
 -------------------------------------------------------------------
    1          6           0.000040274    0.000044619   -0.000043782
    2          6           0.000065398    0.000049047   -0.000036481
    3          6          -0.000054416   -0.000045498    0.000018738
    4          6           0.000017134   -0.000037119    0.000022695
    5          6           0.000052109   -0.000035568    0.000005650
    6          6           0.000026022    0.000048804   -0.000068327
    7          1          -0.000009854   -0.000024319   -0.000001780
    8          1          -0.000060091    0.000006443    0.000047498
    9          1          -0.000043795   -0.000007193   -0.000003463
   10          1           0.000010354   -0.000002241    0.000014574
   11          1          -0.000008017   -0.000005804    0.000035020
   12          1           0.000007142   -0.000011511    0.000006937
   13          1           0.000019475   -0.000014656   -0.000005767
   14          1          -0.000012772    0.000003113    0.000022610
   15          1          -0.000020359    0.000012274    0.000021133
   16          1           0.000006356   -0.000006314   -0.000023080
   17          1           0.000010473   -0.000007504   -0.000006246
   18          8           0.000040238   -0.000039405    0.000052258
   19          6          -0.000005157    0.000057967   -0.000014809
   20          1          -0.000046623   -0.000024061   -0.000030675
   21          1          -0.000052455   -0.000005411    0.000016849
   22          1           0.000018563    0.000044336   -0.000029551
 -------------------------------------------------------------------
 Cartesian Forces:  Max     0.000068327 RMS     0.000031600

 GradGradGradGradGradGradGradGradGradGradGradGradGradGradGradGradGradGrad
 Berny optimization.
 Search for a local minimum.
 Step number   1 out of a maximum of   2
 All quantities printed in internal units (Hartrees-Bohrs-Radians)
 Second derivative matrix not updated -- unit matrix used.
 RFO step:  Lambda=-6.59061798D-08.
 Linear search not attempted -- first point.
 TrRot=  0.000000  0.000000  0.000000  0.000000  0.000000  0.000000
 Variable       Old X    -DE/DX   Delta X   Delta X   Delta X     New X
                                 (Linear)    (Quad)   (Total)
    X1        0.34374   0.00004   0.00000   0.00004   0.00004   0.34378
    Y1       -3.29083   0.00004   0.00000   0.00004   0.00004  -3.29079
    Z1       -2.01695  -0.00004   0.00000  -0.00004  -0.00004  -2.01699
    X2        3.07174   0.00007   0.00000   0.00007   0.00007   3.07181
    Y2       -2.32272   0.00005   0.00000   0.00005   0.00005  -2.32268
    Z2       -2.12576  -0.00004   0.00000  -0.00004  -0.00004  -2.12579
    X3        3.15023  -0.00005   0.00000  -0.00005  -0.00005   3.15017
    Y3        0.57013  -0.00005   0.00000  -0.00005  -0.00005   0.57009
    Z3       -1.99313   0.00002   0.00000   0.00002   0.00002  -1.99311
    X4       -1.00923   0.00002   0.00000   0.00002   0.00002  -1.00921
    Y4       -2.31668  -0.00004   0.00000  -0.00004  -0.00004  -2.31671
    Z4        0.35498   0.00002   0.00000   0.00002   0.00002   0.35500
    X5        1.79364   0.00005   0.00000   0.00005   0.00005   1.79369
    Y5        1.53964  -0.00004   0.00000  -0.00004  -0.00004   1.53960
    Z5        0.37849   0.00001   0.00000   0.00001   0.00001   0.37850
    X6       -0.95548   0.00003   0.00000   0.00003   0.00003  -0.95545
    Y6        0.58541   0.00005   0.00000   0.00005   0.00005   0.58546
    Z6        0.48722  -0.00007   0.00000  -0.00007  -0.00007   0.48715
    X7        0.35437  -0.00001   0.00000  -0.00001  -0.00001   0.35436
    Y7       -5.39057  -0.00002   0.00000  -0.00002  -0.00002  -5.39059
    Z7       -1.99596   0.00000   0.00000   0.00000   0.00000  -1.99597
    X8       -0.69665  -0.00006   0.00000  -0.00006  -0.00006  -0.69671
    Y8       -2.66605   0.00001   0.00000   0.00001   0.00001  -2.66604
    Z8       -3.73320   0.00005   0.00000   0.00005   0.00005  -3.73315
    X9        3.96396  -0.00004   0.00000  -0.00004  -0.00004   3.96392
    Y9       -2.95970  -0.00001   0.00000  -0.00001  -0.00001  -2.95970
    Z9       -3.91686   0.00000   0.00000   0.00000   0.00000  -3.91686
   X10        4.17312   0.00001   0.00000   0.00001   0.00001   4.17313
   Y10       -3.13315   0.00000   0.00000   0.00000   0.00000  -3.13315
   Z10       -0.52940   0.00001   0.00000   0.00001   0.00001  -0.52938
   X11        2.24339  -0.00001   0.00000  -0.00001  -0.00001   2.24338
   Y11        1.38112  -0.00001   0.00000  -0.00001  -0.00001   1.38111
   Z11       -3.70735   0.00004   0.00000   0.00004   0.00004  -3.70732
   X12        5.15069   0.00001   0.00000   0.00001   0.00001   5.15070
   Y12        1.20783  -0.00001   0.00000  -0.00001  -0.00001   1.20781
   Z12       -1.95716   0.00001   0.00000   0.00001   0.00001  -1.95715
   X13       -0.09226   0.00002   0.00000   0.00002   0.00002  -0.09224
   Y13       -3.12652  -0.00001   0.00000  -0.00001  -0.00001  -3.12654
   Z13        2.06525  -0.00001   0.00000  -0.00001  -0.00001   2.06524
   X14       -3.00451  -0.00001   0.00000  -0.00001  -0.00001  -3.00452
   Y14       -2.97255   0.00000   0.00000   0.00000   0.00000  -2.97255
   Z14        0.32296   0.00002   0.00000   0.00002   0.00002   0.32298
   X15        1.81369  -0.00002   0.00000  -0.00002  -0.00002   1.81367
   Y15        3.63854   0.00001   0.00000   0.00001   0.00001   3.63856
   Z15        0.35700   0.00002   0.00000   0.00002   0.00002   0.35702
   X16        2.83567   0.00001   0.00000   0.00001   0.00001   2.83568
   Y16        0.90461  -0.00001   0.00000  -0.00001  -0.00001   0.90460
   Z16        2.09071  -0.00002   0.00000  -0.00002  -0.00002   2.09068
   X17       -1.99815   0.00001   0.00000   0.00001   0.00001  -1.99814
   Y17        1.30534  -0.00001   0.00000  -0.00001  -0.00001   1.30533
   Z17       -1.20538  -0.00001   0.00000  -0.00001  -0.00001  -1.20539
   X18       -2.07545   0.00004   0.00000   0.00004   0.00004  -2.07541
   Y18        1.34477  -0.00004   0.00000  -0.00004  -0.00004   1.34473
   Z18        2.79968   0.00005   0.00000   0.00005   0.00005   2.79974
   X19       -3.49380  -0.00001   0.00000  -0.00001  -0.00001  -3.49380
   Y19        3.57854   0.00006   0.00000   0.00006   0.00006   3.57860
   Z19        2.47276  -0.00001   0.00000  -0.00001  -0.00001   2.47274
   X20       -4.18126  -0.00005   0.00000  -0.00005  -0.00005  -4.18131
   Y20        4.21520  -0.00002   0.00000  -0.00002  -0.00002   4.21517
   Z20        4.34788  -0.00003   0.00000  -0.00003  -0.00003   4.34785
   X21       -2.32360  -0.00005   0.00000  -0.00005  -0.00005  -2.32365
   Y21        5.12617  -0.00001   0.00000  -0.00001  -0.00001   5.12616
   Z21        1.66353   0.00002   0.00000   0.00002   0.00002   1.66355
   X22       -5.17445   0.00002   0.00000   0.00002   0.00002  -5.17443
   Y22        3.21954   0.00004   0.00000   0.00004   0.00004   3.21959
   Z22        1.26272  -0.00003   0.00000  -0.00003  -0.00003   1.26269
         Item               Value     Threshold  Converged?
 Maximum Force            0.000068     0.000450     YES
 RMS     Force            0.000032     0.000300     YES
 Maximum Displacement     0.000068     0.001800     YES
 RMS     Displacement     0.000032     0.001200     YES
 Predicted change in Energy=-3.295309D-08
 Optimization completed.
    -- Stationary point found.
 GradGradGradGradGradGradGradGradGradGradGradGradGradGradGradGradGradGrad

                          Input orientation:                          
 ---------------------------------------------------------------------
 Center     Atomic     Atomic              Coordinates (Angstroms)
 Number     Number      Type              X           Y           Z
 ---------------------------------------------------------------------
    1          6      10061003        0.181898   -1.741434   -1.067324
    2          6      10061003        1.625495   -1.229133   -1.124903
    3          6      10061003        1.667029    0.301700   -1.054718
    4          6      10061003       -0.534060   -1.225932    0.187846
    5          6      10061003        0.949154    0.814740    0.200290
    6          6      10061003       -0.505619    0.309786    0.257826
    7          1      10011000        0.187526   -2.852565   -1.056219
    8          1      10011000       -0.368649   -1.410813   -1.975525
    9          1      10011000        2.097638   -1.566204   -2.072714
   10          1      10011000        2.208318   -1.657991   -0.280145
   11          1      10011000        1.187150    0.730855   -1.961845
   12          1      10011000        2.725630    0.639154   -1.035682
   13          1      10011000       -0.048824   -1.654484    1.092881
   14          1      10011000       -1.589919   -1.573005    0.170903
   15          1      10011000        0.959765    1.925435    0.188918
   16          1      10011000        1.500574    0.478697    1.106354
   17          1      10011000       -1.057377    0.690756   -0.637862
   18          8      10081003       -1.098281    0.711624    1.481529
   19          6      10061003       -1.848839    1.893683    1.308526
   20          1      10011000       -2.212630    2.230585    2.300798
   21          1      10011000       -1.229594    2.712651    0.880304
   22          1      10011000       -2.738199    1.703708    0.668201
 ---------------------------------------------------------------------
                    Distance matrix (angstroms):
                    1          2          3          4          5
     1  C    0.000000
     2  C    1.532887   0.000000
     3  C    2.525900   1.533004   0.000000
     4  C    1.534206   2.527251   2.953374   0.000000
     5  C    2.954581   2.528040   1.534144   2.522781   0.000000
     6  C    2.536968   2.970161   2.538353   1.537575   1.540991
     7  H    1.111201   2.169794   3.484009   2.171248   3.950698
     8  H    1.112314   2.175587   2.815061   2.177548   3.379921
     9  H    2.170616   1.111252   2.170439   3.485936   3.486323
    10  H    2.175544   1.112302   2.175625   2.815373   2.816151
    11  H    2.814767   2.175815   1.112356   3.378276   2.176811
    12  H    3.484074   2.169966   1.111249   3.949829   2.171249
    13  H    2.174230   2.811198   3.373869   1.112745   2.808870
    14  H    2.168158   3.483712   3.952768   1.111568   3.485554
    15  H    3.953372   3.481468   2.164108   3.487496   1.110804
    16  H    3.375317   2.812614   2.174688   2.808764   1.112628
    17  H    2.763293   3.334814   2.783437   2.151591   2.178082
    18  O    3.762048   4.240163   3.774589   2.397099   2.417478
    19  C    4.794021   5.267310   4.525556   3.566029   3.197042
    20  H    5.731923   6.199700   5.480131   4.385165   4.051374
    21  H    5.062059   5.264034   4.236440   4.059027   2.968406
    22  H    4.838183   5.555053   4.933570   3.697534   3.821751
                    6          7          8          9         10
     6  C    0.000000
     7  H    3.493942   0.000000
     8  H    2.822602   1.798083   0.000000
     9  H    3.965816   2.517244   2.473087   0.000000
    10  H    3.395145   2.472427   3.094538   1.798326   0.000000
    11  H    2.823067   3.828878   2.647157   2.473410   3.094751
    12  H    3.496086   4.316769   3.828869   2.516627   2.472918
    13  H    2.182736   2.471819   3.094638   3.825713   2.641951
    14  H    2.174435   2.510460   2.474866   4.316472   3.825868
    15  H    2.182296   4.997599   4.192857   4.312919   3.823590
    16  H    2.184797   4.183076   4.069671   3.826823   2.643618
    17  H    1.118853   3.778879   2.584624   4.136035   4.038482
    18  O    1.417805   4.560363   4.121690   5.294812   4.433076
    19  C    2.327432   5.680288   4.888318   6.243259   5.621280
    20  H    3.282848   6.547421   5.911598   7.219530   6.428613
    21  H    2.585610   6.060527   5.089199   6.172470   5.680528
    22  H    2.663802   5.682703   4.722743   6.449051   6.055445
                   11         12         13         14         15
    11  H    0.000000
    12  H    1.798085   0.000000
    13  H    4.068025   4.182004   0.000000
    14  H    4.191479   4.997345   1.797681   0.000000
    15  H    2.470730   2.504484   3.827561   4.329006   0.000000
    16  H    3.094457   2.472817   2.636528   3.825663   1.796444
    17  H    2.606232   3.804217   3.084283   2.462177   2.505366
    18  O    4.132843   4.578635   2.617418   2.679362   2.716567
    19  C    4.611370   5.291023   3.984476   3.657753   3.023705
    20  H    5.654894   6.168562   4.608132   4.403581   3.823251
    21  H    4.224451   4.859444   4.528938   4.358892   2.427142
    22  H    4.824102   5.821506   4.323257   3.507521   3.735481
                   16         17         18         19         20
    16  H    0.000000
    17  H    3.103284   0.000000
    18  O    2.636106   2.119889   0.000000
    19  C    3.641652   2.421130   1.410862   0.000000
    20  H    4.275943   3.513033   2.054317   1.109256   0.000000
    21  H    3.534893   2.534275   2.093520   1.112451   1.793474
    22  H    4.433941   2.357337   2.082082   1.112236   1.794211
                   21         22
    21  H    0.000000
    22  H    1.827251   0.000000
 Stoichiometry    C7H14O
 Framework group  C1[X(C7H14O)]
 Deg. of freedom    60
 Full point group                 C1
 Largest Abelian subgroup         C1      NOp   1
 Largest concise Abelian subgroup C1      NOp   1
                         Standard orientation:                         
 ---------------------------------------------------------------------
 Center     Atomic     Atomic              Coordinates (Angstroms)
 Number     Number      Type              X           Y           Z
 ---------------------------------------------------------------------
    1          6      10061003       -1.680770   -1.164343    0.330178
    2          6      10061003       -2.315020    0.151576   -0.134392
    3          6      10061003       -1.430717    1.347427    0.237156
    4          6      10061003       -0.266120   -1.324057   -0.241701
    5          6      10061003       -0.016369    1.184617   -0.334430
    6          6      10061003        0.628974   -0.132766    0.137468
    7          1      10011000       -2.311341   -2.014528   -0.007953
    8          1      10011000       -1.640912   -1.188298    1.441520
    9          1      10011000       -3.311049    0.268684    0.344245
   10          1      10011000       -2.465082    0.125710   -1.236221
   11          1      10011000       -1.377956    1.443963    1.344059
   12          1      10011000       -1.884551    2.278180   -0.166091
   13          1      10011000       -0.322988   -1.416557   -1.349135
   14          1      10011000        0.181662   -2.260616    0.155706
   15          1      10011000        0.603741    2.044816   -0.003664
   16          1      10011000       -0.061010    1.205135   -1.445973
   17          1      10011000        0.705019   -0.119842    1.253658
   18          8      10081003        1.885443   -0.298804   -0.498055
   19          6      10061003        2.930982    0.144970    0.338870
   20          1      10011000        3.883714    0.093098   -0.226868
   21          1      10011000        2.782662    1.201558    0.653786
   22          1      10011000        3.028792   -0.515416    1.228473
 ---------------------------------------------------------------------
 Rotational constants (GHZ):      3.9333856      1.3467237      1.1035028
 1|1|UNPC-UNK|FOpt|UFF|ZDO|C7H14O1|PCUSER|13-Dec-2007|0||# opt uff||met
 hoxycyclohexane-eq||0,1|C,0.1818979749,-1.7414340346,-1.0673238971|C,1
 .625495366,-1.2291329921,-1.1249027712|C,1.6670286903,0.3017001859,-1.
 0547181749|C,-0.5340602203,-1.2259318425,0.1878457033|C,0.9491544651,0
 .8147398372,0.2002895609|C,-0.5056185896,0.3097863555,0.2578259012|H,0
 .1875260243,-2.8525651821,-1.0562186629|H,-0.3686487462,-1.4108133366,
 -1.9755254247|H,2.0976377368,-1.5662035363,-2.0727137365|H,2.208317794
 ,-1.657990799,-0.2801454005|H,1.1871504004,0.7308548097,-1.9618453992|
 H,2.7256302241,0.6391540877,-1.0356818414|H,-0.0488239408,-1.654484417
 ,1.092881018|H,-1.5899187177,-1.5730054684,0.1709028559|H,0.9597653528
 ,1.925434611,0.1889176933|H,1.5005741055,0.4786972824,1.1063539655|H,-
 1.0573772663,0.6907558147,-0.6378619345|O,-1.0982806028,0.711623924,1.
 4815291881|C,-1.8488391,1.8936829285,1.308526307|H,-2.2126297709,2.230
 5851287,2.3007976341|H,-1.229594211,2.7126513616,0.8803037691|H,-2.738
 1994685,1.7037077813,0.6682011466||Version=IA32W-G03RevD.01|HF=0.02138
 84|RMSD=0.000e+000|RMSF=3.160e-005|Thermal=0.|Dipole=0.,0.,0.|PG=C01 [
 X(C7H14O1)]||@


 A warm smile is the universal language of kindness.
                             -- William Arthur Ward
 Job cpu time:  0 days  0 hours  0 minutes  4.0 seconds.
 File lengths (MBytes):  RWF=     11 Int=      0 D2E=      0 Chk=      4 Scr=      1
 Normal termination of Gaussian 03 at Thu Dec 13 15:27:52 2007.
