 Entering Link 1 = C:\G03W\l1.exe PID=      3920.
  
 Copyright (c) 1988,1990,1992,1993,1995,1998,2003,2004, Gaussian, Inc.
                  All Rights Reserved.
  
 This is the Gaussian(R) 03 program.  It is based on the
 the Gaussian(R) 98 system (copyright 1998, Gaussian, Inc.),
 the Gaussian(R) 94 system (copyright 1995, Gaussian, Inc.),
 the Gaussian 92(TM) system (copyright 1992, Gaussian, Inc.),
 the Gaussian 90(TM) system (copyright 1990, Gaussian, Inc.),
 the Gaussian 88(TM) system (copyright 1988, Gaussian, Inc.),
 the Gaussian 86(TM) system (copyright 1986, Carnegie Mellon
 University), and the Gaussian 82(TM) system (copyright 1983,
 Carnegie Mellon University). Gaussian is a federally registered
 trademark of Gaussian, Inc.
  
 This software contains proprietary and confidential information,
 including trade secrets, belonging to Gaussian, Inc.
  
 This software is provided under written license and may be
 used, copied, transmitted, or stored only in accord with that
 written license.
  
 The following legend is applicable only to US Government
 contracts under FAR:
  
                    RESTRICTED RIGHTS LEGEND
  
 Use, reproduction and disclosure by the US Government is
 subject to restrictions as set forth in subparagraphs (a)
 and (c) of the Commercial Computer Software - Restricted
 Rights clause in FAR 52.227-19.
  
 Gaussian, Inc.
 340 Quinnipiac St., Bldg. 40, Wallingford CT 06492
  
  
 ---------------------------------------------------------------
 Warning -- This program may not be used in any manner that
 competes with the business of Gaussian, Inc. or will provide
 assistance to any competitor of Gaussian, Inc.  The licensee
 of this program is prohibited from giving any competitor of
 Gaussian, Inc. access to this program.  By using this program,
 the user acknowledges that Gaussian, Inc. is engaged in the
 business of creating and licensing software in the field of
 computational chemistry and represents and warrants to the
 licensee that it is not a competitor of Gaussian, Inc. and that
 it will not use this program in any manner prohibited above.
 ---------------------------------------------------------------
  

 Cite this work as:
 Gaussian 03, Revision D.01,
 M. J. Frisch, G. W. Trucks, H. B. Schlegel, G. E. Scuseria, 
 M. A. Robb, J. R. Cheeseman, J. A. Montgomery, Jr., T. Vreven, 
 K. N. Kudin, J. C. Burant, J. M. Millam, S. S. Iyengar, J. Tomasi, 
 V. Barone, B. Mennucci, M. Cossi, G. Scalmani, N. Rega, 
 G. A. Petersson, H. Nakatsuji, M. Hada, M. Ehara, K. Toyota, 
 R. Fukuda, J. Hasegawa, M. Ishida, T. Nakajima, Y. Honda, O. Kitao, 
 H. Nakai, M. Klene, X. Li, J. E. Knox, H. P. Hratchian, J. B. Cross, 
 V. Bakken, C. Adamo, J. Jaramillo, R. Gomperts, R. E. Stratmann, 
 O. Yazyev, A. J. Austin, R. Cammi, C. Pomelli, J. W. Ochterski, 
 P. Y. Ayala, K. Morokuma, G. A. Voth, P. Salvador, J. J. Dannenberg, 
 V. G. Zakrzewski, S. Dapprich, A. D. Daniels, M. C. Strain, 
 O. Farkas, D. K. Malick, A. D. Rabuck, K. Raghavachari, 
 J. B. Foresman, J. V. Ortiz, Q. Cui, A. G. Baboul, S. Clifford, 
 J. Cioslowski, B. B. Stefanov, G. Liu, A. Liashenko, P. Piskorz, 
 I. Komaromi, R. L. Martin, D. J. Fox, T. Keith, M. A. Al-Laham, 
 C. Y. Peng, A. Nanayakkara, M. Challacombe, P. M. W. Gill, 
 B. Johnson, W. Chen, M. W. Wong, C. Gonzalez, and J. A. Pople, 
 Gaussian, Inc., Wallingford CT, 2004.
 
 ******************************************
 Gaussian 03:  IA32W-G03RevD.01 13-Oct-2005
                13-Dec-2007 
 ******************************************
 ---------
 # opt uff
 ---------
 1/6=10,10=10,14=-1,18=4000020,38=1,56=1,64=2/1,3;
 2/9=110,17=6,18=5,40=1/2;
 3/5=30,11=9,16=1,25=1,30=1/1;
 4/20=10,22=1001,24=3/2;
 7/44=-1/16;
 1/6=10,10=10,14=-1,18=4000020,64=2/3(2);
 2/9=110/2;
 99//99;
 2/9=110/2;
 3/5=30,11=9,16=1,25=1,30=1/1;
 4/16=2,20=10,22=1001,24=3/2;
 7/44=-1/16;
 1/6=10,10=10,14=-1,18=4000020,64=2/3(-4);
 2/9=110/2;
 99//99;
 ---------------------
 t-butylcyclohexane-eq
 ---------------------
 Symbolic Z-matrix:
 Charge =  0 Multiplicity = 1
 C                     0.85269  -2.1414   -0.98853 
 C                     2.27269  -1.6064   -0.76553 
 C                     2.30369  -0.0904   -0.98853 
 C                    -0.15431  -1.4264   -0.07453 
 C                     1.29269   0.6206   -0.07453 
 C                    -0.14631   0.1036   -0.28253 
 H                     0.83069  -3.2414   -0.79453 
 H                     0.56169  -1.9934   -2.05552 
 H                     2.98669  -2.1114   -1.45953 
 H                     2.60269  -1.8404    0.27548 
 H                     2.06669   0.1356   -2.05552 
 H                     3.33269   0.2976   -0.79453 
 H                     0.09369  -1.6674    0.98548 
 H                    -1.16131  -1.8544   -0.28453 
 H                     1.36069   1.7126   -0.28453 
 H                     1.60269   0.4676    0.98548 
 H                    -0.39231   0.2776   -1.35853 
 C                    -1.23031   0.8696    0.53848 
 C                    -2.64531   0.3506    0.18848 
 C                    -1.21231   2.3776    0.18848 
 C                    -1.03231   0.7296    2.06248 
 H                    -3.43931   0.9696    0.66548 
 H                    -2.82631   0.3706   -0.91053 
 H                    -2.81731  -0.6884    0.54748 
 H                    -2.06031   2.9196    0.66548 
 H                    -0.29031   2.8856    0.54748 
 H                    -1.29131   2.5416   -0.91053 
 H                    -1.81931   1.2866    2.62048 
 H                    -1.09231  -0.3294    2.39648 
 H                    -0.05331   1.1396    2.39648 
 
 Include all MM classes
 MMInit generated parameter data with length LenPar=  3569.

 GradGradGradGradGradGradGradGradGradGradGradGradGradGradGradGradGradGrad
 Berny optimization.
 Initialization pass.
 No Z-matrix variables, so optimization will use Cartesian coordinates.
 Trust Radius=1.00D-01 FncErr=1.00D-07 GrdErr=1.00D-07
 Number of steps in this run=   2 maximum allowed number of steps=   2.
 GradGradGradGradGradGradGradGradGradGradGradGradGradGradGradGradGradGrad

                          Input orientation:                          
 ---------------------------------------------------------------------
 Center     Atomic     Atomic              Coordinates (Angstroms)
 Number     Number      Type              X           Y           Z
 ---------------------------------------------------------------------
    1          6      10061003        0.852688   -2.141400   -0.988525
    2          6      10061003        2.272688   -1.606400   -0.765525
    3          6      10061003        2.303688   -0.090400   -0.988525
    4          6      10061003       -0.154313   -1.426400   -0.074525
    5          6      10061003        1.292688    0.620600   -0.074525
    6          6      10061003       -0.146313    0.103600   -0.282525
    7          1      10011000        0.830688   -3.241400   -0.794525
    8          1      10011000        0.561688   -1.993400   -2.055525
    9          1      10011000        2.986688   -2.111400   -1.459525
   10          1      10011000        2.602688   -1.840400    0.275475
   11          1      10011000        2.066688    0.135600   -2.055525
   12          1      10011000        3.332688    0.297600   -0.794525
   13          1      10011000        0.093688   -1.667400    0.985475
   14          1      10011000       -1.161313   -1.854400   -0.284525
   15          1      10011000        1.360688    1.712600   -0.284525
   16          1      10011000        1.602688    0.467600    0.985475
   17          1      10011000       -0.392313    0.277600   -1.358525
   18          6      10061003       -1.230313    0.869600    0.538475
   19          6      10061003       -2.645313    0.350600    0.188475
   20          6      10061003       -1.212313    2.377600    0.188475
   21          6      10061003       -1.032313    0.729600    2.062475
   22          1      10011000       -3.439313    0.969600    0.665475
   23          1      10011000       -2.826313    0.370600   -0.910525
   24          1      10011000       -2.817313   -0.688400    0.547475
   25          1      10011000       -2.060313    2.919600    0.665475
   26          1      10011000       -0.290313    2.885600    0.547475
   27          1      10011000       -1.291313    2.541600   -0.910525
   28          1      10011000       -1.819313    1.286600    2.620475
   29          1      10011000       -1.092313   -0.329400    2.396475
   30          1      10011000       -0.053313    1.139600    2.396475
 ---------------------------------------------------------------------
                    Distance matrix (angstroms):
                    1          2          3          4          5
     1  C    0.000000
     2  C    1.533739   0.000000
     3  C    2.512370   1.532627   0.000000
     4  C    1.536447   2.529864   2.943137   0.000000
     5  C    2.942387   2.529310   1.537218   2.506794   0.000000
     6  C    2.556651   3.001491   2.557063   1.544095   1.543138
     7  H    1.117193   2.180236   3.483700   2.186973   3.955615
     8  H    1.115829   2.177473   2.791856   2.181400   3.360315
     9  H    2.185566   1.116448   2.184667   3.500476   3.500241
    10  H    2.179632   1.116842   2.179357   2.809794   2.809826
    11  H    2.792313   2.177407   1.116125   3.361108   2.181436
    12  H    3.483785   2.179371   1.116701   3.955976   2.187311
    13  H    2.167356   2.796026   3.356740   1.114982   2.792158
    14  H    2.152715   3.476380   3.951397   1.114151   3.491682
    15  H    3.950569   3.475466   2.153062   3.491797   1.114086
    16  H    3.356495   2.795778   2.167819   2.792469   1.114948
    17  H    2.745630   3.317127   2.746041   2.146839   2.146050
    18  C    3.966956   4.483526   3.967680   2.608670   2.608313
    19  C    4.453246   5.378354   5.106115   3.071153   3.955997
    20  C    5.105969   5.378438   4.454055   3.957139   3.071033
    21  C    4.593960   4.937358   4.594551   3.160062   3.159790
    22  H    5.552954   6.427323   6.069709   4.132752   4.802210
    23  H    4.455476   5.470773   5.151262   3.326814   4.210411
    24  H    4.235493   5.336178   5.379734   2.832507   4.358035
    25  H    6.069185   6.427078   5.553405   4.802932   4.132265
    26  H    5.379263   5.335823   4.236119   4.358753   2.832490
    27  H    5.151049   5.470743   4.456179   4.211495   3.326589
    28  H    5.649394   6.048050   5.649791   4.170806   4.170267
    29  H    4.304021   4.790845   4.800850   2.861659   3.563224
    30  H    4.800419   4.790515   4.304251   3.563762   2.861279
                    6          7          8          9         10
     6  C    0.000000
     7  H    3.522172   0.000000
     8  H    2.835878   1.794432   0.000000
     9  H    4.013383   2.523383   2.499953   0.000000
    10  H    3.412844   2.499537   3.102040   1.797532   0.000000
    11  H    2.835828   3.810767   2.607233   2.500125   3.102488
    12  H    3.521821   4.334112   3.810150   2.522939   2.499769
    13  H    2.191316   2.487779   3.094023   3.813740   2.613257
    14  H    2.205446   2.480309   2.474771   4.318863   3.805456
    15  H    2.204526   5.008305   4.184409   4.318272   3.805256
    16  H    2.190735   4.185817   4.048195   3.813754   2.613611
    17  H    1.117393   3.767915   2.559954   4.139464   4.015707
    18  C    1.560722   4.787999   4.258740   5.537279   4.701612
    19  C    2.554966   5.094245   4.562315   6.363707   5.687667
    20  C    2.555244   6.059150   5.223816   6.363853   5.687998
    21  C    2.583776   5.234698   5.187821   6.052117   4.797030
    22  H    3.534474   6.172278   5.673730   7.436509   6.674876
    23  H    2.765515   5.141366   4.286965   6.344501   5.980732
    24  H    2.906958   4.650449   4.460524   6.303919   5.547746
    25  H    3.534396   6.960417   6.198088   7.436316   6.674824
    26  H    2.906744   6.371635   5.595190   6.303712   5.547838
    27  H    2.765728   6.161122   5.030990   6.344533   5.980949
    28  H    3.553284   6.259993   6.188096   7.161734   5.901800
    29  H    2.873925   4.728652   5.032387   5.889185   4.520485
    30  H    2.873845   5.491548   5.478523   5.888916   4.520329
                   11         12         13         14         15
    11  H    0.000000
    12  H    1.794191   0.000000
    13  H    4.048607   4.185779   0.000000
    14  H    4.185275   5.008716   1.795242   0.000000
    15  H    2.474228   2.480143   3.826564   4.368521   0.000000
    16  H    3.094059   2.488011   2.614442   3.826785   1.794851
    17  H    2.559815   3.767509   3.084405   2.508039   2.507132
    18  C    4.258850   4.788010   2.896404   2.846448   2.846271
    19  C    5.223476   6.058513   3.494232   2.699631   4.257559
    20  C    4.562230   5.094086   4.324681   4.258656   2.699312
    21  C    5.187925   5.234720   2.858918   3.493151   3.493014
    22  H    6.198018   6.960113   4.420210   3.750568   4.949197
    23  H    5.030676   6.160525   4.034186   2.848636   4.441150
    24  H    5.595359   6.371472   3.102290   2.189547   4.890062
    25  H    5.673326   6.171785   5.077665   4.949927   3.750012
    26  H    4.460220   4.650251   4.590110   4.890651   2.189510
    27  H    4.286727   5.141047   4.819618   4.442251   2.848196
    28  H    6.187954   6.259669   3.880581   4.328726   4.328152
    29  H    5.478669   5.491469   2.277666   3.085149   4.168301
    30  H    5.032169   4.728260   3.145120   4.168868   3.084718
                   16         17         18         19         20
    16  H    0.000000
    17  H    3.083904   0.000000
    18  C    2.896084   2.156691   0.000000
    19  C    4.323702   2.733962   1.547283   0.000000
    20  C    3.493928   2.734156   1.548189   2.482382   0.000000
    21  C    2.858636   3.509579   1.543172   2.501457   2.502035
    22  H    5.077024   3.722855   2.214906   1.114058   2.677596
    23  H    4.818741   2.476633   2.212650   1.113985   2.800151
    24  H    4.589617   3.232123   2.223964   1.112648   3.479262
    25  H    4.419533   3.722763   2.215294   2.677595   1.113731
    26  H    3.101938   3.231858   2.224396   3.478668   1.112218
    27  H    4.033798   2.476813   2.213347   2.800285   1.113974
    28  H    3.879957   4.345900   2.203528   2.733678   2.733744
    29  H    3.144703   3.867619   2.215583   2.783788   3.495356
    30  H    2.277025   3.867556   2.215941   3.495175   2.784096
                   21         22         23         24         25
    21  C    0.000000
    22  H    2.793360   0.000000
    23  H    3.490852   1.793975   0.000000
    24  H    2.737184   1.774760   1.802034   0.000000
    25  H    2.793652   2.388334   3.093208   3.688446   0.000000
    26  H    2.737540   3.687978   3.857756   4.377123   1.774255
    27  H    3.491297   3.093358   2.658847   3.858412   1.793884
    28  H    1.113994   2.558694   3.784318   3.032154   2.558671
    29  H    1.112042   3.192518   3.799079   2.554077   3.806493
    30  H    1.112698   3.806607   4.383736   3.794744   3.192618
                   26         27         28         29         30
    26  H    0.000000
    27  H    1.801694   0.000000
    28  H    3.031826   3.784411   0.000000
    29  H    3.794500   4.383890   1.786102   0.000000
    30  H    2.554112   3.799276   1.786209   1.799300   0.000000
 Stoichiometry    C10H20
 Framework group  C1[X(C10H20)]
 Deg. of freedom    84
 Full point group                 C1
 Largest Abelian subgroup         C1      NOp   1
 Largest concise Abelian subgroup C1      NOp   1
                         Standard orientation:                         
 ---------------------------------------------------------------------
 Center     Atomic     Atomic              Coordinates (Angstroms)
 Number     Number      Type              X           Y           Z
 ---------------------------------------------------------------------
    1          6      10061003       -2.155513    1.256175   -0.256197
    2          6      10061003       -2.875751   -0.000395    0.248424
    3          6      10061003       -2.156143   -1.256194   -0.255640
    4          6      10061003       -0.679979    1.253788    0.172129
    5          6      10061003       -0.679712   -1.253007    0.172352
    6          6      10061003        0.070028   -0.000163   -0.327195
    7          1      10011000       -2.666856    2.167094    0.139879
    8          1      10011000       -2.223036    1.303189   -1.368988
    9          1      10011000       -3.936848   -0.000309   -0.098750
   10          1      10011000       -2.893680    0.000296    1.365122
   11          1      10011000       -2.222785   -1.304044   -1.368745
   12          1      10011000       -2.666641   -2.167018    0.140357
   13          1      10011000       -0.632312    1.307534    1.284794
   14          1      10011000       -0.213539    2.184570   -0.224620
   15          1      10011000       -0.213478   -2.183950   -0.224080
   16          1      10011000       -0.631875   -1.306907    1.284969
   17          1      10011000       -0.021000   -0.000358   -1.440875
   18          6      10061003        1.599844    0.000245   -0.018137
   19          6      10061003        2.280819    1.240850   -0.643644
   20          6      10061003        2.280978   -1.241532   -0.643384
   21          6      10061003        1.901585    0.000442    1.495247
   22          1      10011000        3.389549    1.193835   -0.545496
   23          1      10011000        2.048657    1.328875   -1.729606
   24          1      10011000        1.974649    2.188572   -0.147592
   25          1      10011000        3.389369   -1.194500   -0.545122
   26          1      10011000        1.974671   -2.188550   -0.147037
   27          1      10011000        2.048675   -1.329971   -1.729271
   28          1      10011000        2.999512    0.000021    1.683763
   29          1      10011000        1.490146    0.899836    2.003622
   30          1      10011000        1.489893   -0.899464    2.003948
 ---------------------------------------------------------------------
 Rotational constants (GHZ):      2.2346805      0.8521638      0.7439156
 Standard basis: Dummy (5D, 7F)
 There are    30 symmetry adapted basis functions of A   symmetry.
 Integral buffers will be    262144 words long.
 Raffenetti 1 integral format.
 Two-electron integral symmetry is turned on.
    30 basis functions,    30 primitive gaussians,    30 cartesian basis functions
    20 alpha electrons       20 beta electrons
       nuclear repulsion energy       141.9988719935 Hartrees.
 NAtoms=   30 NActive=   30 NUniq=   30 SFac= 7.50D-01 NAtFMM=   80 NAOKFM=F Big=F
 UFF calculation of energy and first derivatives.
 MO and density RWFs will be updated without deorthogonalization.
 NRF= 0 NRA=   0 NVA=  30 HaveQM=F
 Convergence limit is  0.750E-04 MaxStp=  5000 StMxLn= 1.00D-04 StpMin= 1.00D-06.
 Convergence criteria           0.00011250 0.00007500 0.00045000 0.00030000
  Step  NS  ND Rises OKQ   Scale  Max. Force  RMS Force Max. Disp.  RMS Disp.     Energy   Flag
     1   0   0   F    T  1.00D+00 0.01530081 0.00395947 0.01530081 0.00395947    0.0338264 ----
     2   0   0   F    F  1.66D-01 0.01530081 0.00395947 0.01530081 0.00395947    0.0330209 ----
     3   0   0   F    T  3.02D+00 0.00440738 0.00143440 0.00421743 0.00152562    0.0330043 ----
     4   0   0   F    F -4.48D-01 0.00440738 0.00143440 0.01275726 0.00461483    0.0329515 ----
     5   0   0   F    T  2.24D+00 0.00270432 0.00093270 0.00320156 0.00113486    0.0328498 ----
     6   0   0   F    F  4.88D-01 0.00270432 0.00093270 0.00718484 0.00254682    0.0327331 ----
     7   0   0   F    T  2.34D+00 0.00395898 0.00099142 0.00502669 0.00162142    0.0327191 ----
     8   0   0   F    F  7.30D-02 0.00395898 0.00099142 0.01174593 0.00378878    0.0326087 ----
     9   0   0   F    T  4.68D+00 0.00143019 0.00061198 0.00223045 0.00086893    0.0326082 ----
    10   0   0   T    F  4.64D-01 0.00143019 0.00061198 0.01043573 0.00406549    0.0326205 ----
    11   0   0   F    T  3.13D+00 0.00141796 0.00042679 0.00196030 0.00060136    0.0325716 ----
    12   0   0   F    F -7.08D-02 0.00141796 0.00042679 0.00614343 0.00188462    0.0325479 ----
    13   0   0   F    T  2.86D+00 0.00132084 0.00038093 0.00175543 0.00061217    0.0325478 ----
    14   0   0   F    F -1.84D-01 0.00132084 0.00038093 0.00502143 0.00175113    0.0325333 ----
    15   0   0   F    T  3.22D+00 0.00097171 0.00028422 0.00097750 0.00044369    0.0325325 ----
    16   0   0   F    F  9.07D-02 0.00097171 0.00028422 0.00314704 0.00142845    0.0325199 ----
    17   0   0   F    T  2.85D+00 0.00087822 0.00029029 0.00129232 0.00054660    0.0325198 ----
    18   0   0   F    F  5.24D-01 0.00087822 0.00029029 0.00368369 0.00155807    0.0325052 ----
    19   0   0   F    T  2.73D+00 0.00164467 0.00035067 0.00207780 0.00087119    0.0325033 ----
    20   0   0   F    F  2.52D-01 0.00164467 0.00035067 0.00566421 0.00237491    0.0324852 ----
    21   0   0   F    T  4.61D+00 0.00084131 0.00028624 0.00148827 0.00064542    0.0324844 ----
    22   0   0   F    F -3.76D-01 0.00084131 0.00028624 0.00685629 0.00297337    0.0324776 ----
    23   0   0   F    T  2.63D+00 0.00104996 0.00028595 0.00153681 0.00070499    0.0324738 ----
    24   0   0   F    F  2.02D-01 0.00104996 0.00028595 0.00404528 0.00185571    0.0324625 ----
    25   0   0   F    T  3.93D+00 0.00075266 0.00024342 0.00122284 0.00056716    0.0324622 ----
    26   0   0   F    F -4.90D-01 0.00075266 0.00024342 0.00481060 0.00223121    0.0324618 ----
    27   0   0   F    T  2.63D+00 0.00064479 0.00019998 0.00095042 0.00043228    0.0324568 ----
    28   0   0   F    F  4.47D-01 0.00064479 0.00019998 0.00250130 0.00113768    0.0324506 ----
    29   0   0   F    T  4.43D+00 0.00077900 0.00017415 0.00086426 0.00037153    0.0324500 ----
    30   0   0   T    F  4.98D-01 0.00077900 0.00017415 0.00383056 0.00164670    0.0324500 ----
    31   0   0   F    T  2.75D+00 0.00073871 0.00014553 0.00069811 0.00029762    0.0324470 ---+
    32   0   0   F    F  3.47D-01 0.00073871 0.00014553 0.00192185 0.00081932    0.0324437 ----
    33   0   0   F    T  4.08D+00 0.00035619 0.00013003 0.00066111 0.00027081    0.0324434 ---+
    34   0   0   F    F -4.68D-01 0.00035619 0.00013003 0.00269463 0.00110379    0.0324430 ----
    35   0   0   F    T  4.29D+00 0.00022194 0.00008256 0.00039795 0.00013683    0.0324418 --++
    36   0   0   F    F -3.82D-01 0.00022194 0.00008256 0.00170892 0.00058760    0.0324413 ----
    37   0   0   F    T  1.87D+00 0.00028136 0.00009235 0.00061162 0.00019453    0.0324410 ---+
    38   0   0   F    F  1.55D+00 0.00028136 0.00009235 0.00114153 0.00036306    0.0324398 ----
    39   0   0   F    T  2.69D+00 0.00053109 0.00011898 0.00108564 0.00034404    0.0324391 ----
    40   0   0   F    F -3.26D-01 0.00053109 0.00011898 0.00291945 0.00092517    0.0324382 ----
    41   0   0   F    T  7.38D+00 0.00019065 0.00005223 0.00024132 0.00008448    0.0324380 -+++
    42   0   0   F    F  9.33D-02 0.00019065 0.00005223 0.00178095 0.00062346    0.0324370 -+--
    43   0   0   F    T  2.29D+00 0.00034566 0.00009540 0.00086727 0.00029755    0.0324370 ---+
    44   0   0   F    F  1.94D-01 0.00034566 0.00009540 0.00198681 0.00068164    0.0324359 ----
    45   0   0   F    T  8.28D+00 0.00016703 0.00005085 0.00034833 0.00009834    0.0324359 -+++
    46   0   0   F    F -3.09D-01 0.00016703 0.00005085 0.00288399 0.00081418    0.0324353 -+--
    47   0   0   F    T  2.02D+00 0.00027519 0.00008355 0.00105079 0.00027831    0.0324352 ---+
    48   0   0   F    F  3.78D-01 0.00027519 0.00008355 0.00212297 0.00056229    0.0324344 ----
    49   0   0   F    T  4.00D+00 0.00024223 0.00006740 0.00071111 0.00019358    0.0324343 -+-+
    50   0   0   F    F -2.46D-01 0.00024223 0.00006740 0.00284663 0.00077493    0.0324338 -+--
    51   0   0   F    T  6.70D+00 0.00011554 0.00004232 0.00029430 0.00008732    0.0324337 -+++
    52   0   0   T    F  3.17D-01 0.00011554 0.00004232 0.00197052 0.00058464    0.0324343 -+--
    53   0   0   F    T  3.10D+00 0.00011541 0.00003215 0.00020197 0.00005976    0.0324335 -+++
    54   0   0   F    T  2.53D+00 0.00010922 0.00003434 0.00023174 0.00007318    0.0324334 ====
 Energy=    0.032433377069 NIter=   0.
 Dipole moment=       0.000000       0.000000       0.000000
 ***** Axes restored to original set *****
 -------------------------------------------------------------------
 Center     Atomic                   Forces (Hartrees/Bohr)
 Number     Number              X              Y              Z
 -------------------------------------------------------------------
    1          6          -0.000036523    0.000022386    0.000007019
    2          6          -0.000012950   -0.000042216    0.000051096
    3          6          -0.000018038    0.000007567    0.000021495
    4          6           0.000043069   -0.000050167   -0.000067376
    5          6           0.000069403    0.000004478   -0.000015090
    6          6          -0.000092180   -0.000014723    0.000010563
    7          1          -0.000021143    0.000026604   -0.000013408
    8          1           0.000006438    0.000009402    0.000013687
    9          1           0.000011270    0.000000975   -0.000015515
   10          1          -0.000005875    0.000015067    0.000015968
   11          1          -0.000011495    0.000000559   -0.000018763
   12          1          -0.000015739    0.000026178   -0.000013058
   13          1          -0.000017698   -0.000025430    0.000029847
   14          1           0.000046423    0.000031281   -0.000017085
   15          1          -0.000004756   -0.000035822   -0.000022094
   16          1           0.000020351    0.000026244    0.000012996
   17          1           0.000000690    0.000007758    0.000035123
   18          6           0.000089425    0.000022634   -0.000035497
   19          6          -0.000082763   -0.000011082   -0.000093811
   20          6          -0.000062501   -0.000020111   -0.000052880
   21          6          -0.000082160   -0.000012391    0.000054480
   22          1           0.000014999   -0.000004450   -0.000034189
   23          1           0.000017753    0.000027800    0.000072318
   24          1           0.000011329   -0.000009008    0.000000956
   25          1           0.000005486    0.000002412   -0.000034482
   26          1           0.000047523    0.000018738    0.000010034
   27          1          -0.000018272   -0.000012750    0.000033060
   28          1           0.000033898   -0.000019935    0.000037983
   29          1           0.000013224   -0.000003148    0.000007447
   30          1           0.000050812    0.000011149    0.000019176
 -------------------------------------------------------------------
 Cartesian Forces:  Max     0.000093811 RMS     0.000034342

 GradGradGradGradGradGradGradGradGradGradGradGradGradGradGradGradGradGrad
 Berny optimization.
 Search for a local minimum.
 Step number   1 out of a maximum of   2
 All quantities printed in internal units (Hartrees-Bohrs-Radians)
 Second derivative matrix not updated -- unit matrix used.
 RFO step:  Lambda=-1.06143005D-07.
 Linear search not attempted -- first point.
 TrRot=  0.000000  0.000000  0.000000  0.000000  0.000000  0.000000
 Variable       Old X    -DE/DX   Delta X   Delta X   Delta X     New X
                                 (Linear)    (Quad)   (Total)
    X1        1.60949  -0.00004   0.00000  -0.00004  -0.00004   1.60945
    Y1       -4.05123   0.00002   0.00000   0.00002   0.00002  -4.05121
    Z1       -1.86508   0.00001   0.00000   0.00001   0.00001  -1.86507
    X2        4.27993  -0.00001   0.00000  -0.00001  -0.00001   4.27992
    Y2       -3.02602  -0.00004   0.00000  -0.00004  -0.00004  -3.02606
    Z2       -1.44118   0.00005   0.00000   0.00005   0.00005  -1.44113
    X3        4.35613  -0.00002   0.00000  -0.00002  -0.00002   4.35611
    Y3       -0.16662   0.00001   0.00000   0.00001   0.00001  -0.16661
    Z3       -1.86502   0.00002   0.00000   0.00002   0.00002  -1.86499
    X4       -0.30725   0.00004   0.00000   0.00004   0.00004  -0.30721
    Y4       -2.71268  -0.00005   0.00000  -0.00005  -0.00005  -2.71273
    Z4       -0.15007  -0.00007   0.00000  -0.00007  -0.00007  -0.15014
    X5        2.45514   0.00007   0.00000   0.00007   0.00007   2.45521
    Y5        1.19409   0.00000   0.00000   0.00000   0.00000   1.19409
    Z5       -0.15005  -0.00002   0.00000  -0.00002  -0.00002  -0.15007
    X6       -0.27377  -0.00009   0.00000  -0.00009  -0.00009  -0.27386
    Y6        0.19375  -0.00001   0.00000  -0.00001  -0.00001   0.19373
    Z6       -0.56283   0.00001   0.00000   0.00001   0.00001  -0.56282
    X7        1.58881  -0.00002   0.00000  -0.00002  -0.00002   1.58879
    Y7       -6.11072   0.00003   0.00000   0.00003   0.00003  -6.11069
    Z7       -1.45306  -0.00001   0.00000  -0.00001  -0.00001  -1.45307
    X8        1.06225   0.00001   0.00000   0.00001   0.00001   1.06226
    Y8       -3.79105   0.00001   0.00000   0.00001   0.00001  -3.79104
    Z8       -3.87804   0.00001   0.00000   0.00001   0.00001  -3.87803
    X9        5.60263   0.00001   0.00000   0.00001   0.00001   5.60264
    Y9       -3.96134   0.00000   0.00000   0.00000   0.00000  -3.96134
    Z9       -2.77733  -0.00002   0.00000  -0.00002  -0.00002  -2.77734
   X10        4.90940  -0.00001   0.00000  -0.00001  -0.00001   4.90940
   Y10       -3.47128   0.00002   0.00000   0.00002   0.00002  -3.47126
   Z10        0.51433   0.00002   0.00000   0.00002   0.00002   0.51435
   X11        3.92845  -0.00001   0.00000  -0.00001  -0.00001   3.92843
   Y11        0.26255   0.00000   0.00000   0.00000   0.00000   0.26255
   Z11       -3.87788  -0.00002   0.00000  -0.00002  -0.00002  -3.87790
   X12        6.29084  -0.00002   0.00000  -0.00002  -0.00002   6.29082
   Y12        0.53936   0.00003   0.00000   0.00003   0.00003   0.53939
   Z12       -1.45288  -0.00001   0.00000  -0.00001  -0.00001  -1.45290
   X13        0.14367  -0.00002   0.00000  -0.00002  -0.00002   0.14366
   Y13       -3.17875  -0.00003   0.00000  -0.00003  -0.00003  -3.17878
   Z13        1.84561   0.00003   0.00000   0.00003   0.00003   1.84564
   X14       -2.19279   0.00005   0.00000   0.00005   0.00005  -2.19275
   Y14       -3.50640   0.00003   0.00000   0.00003   0.00003  -3.50637
   Z14       -0.60086  -0.00002   0.00000  -0.00002  -0.00002  -0.60087
   X15        2.57477   0.00000   0.00000   0.00000   0.00000   2.57477
   Y15        3.23633  -0.00004   0.00000  -0.00004  -0.00004   3.23630
   Z15       -0.60073  -0.00002   0.00000  -0.00002  -0.00002  -0.60076
   X16        3.04478   0.00002   0.00000   0.00002   0.00002   3.04480
   Y16        0.92430   0.00003   0.00000   0.00003   0.00003   0.92432
   Z16        1.84571   0.00001   0.00000   0.00001   0.00001   1.84572
   X17       -0.73412   0.00000   0.00000   0.00000   0.00000  -0.73412
   Y17        0.51917   0.00001   0.00000   0.00001   0.00001   0.51917
   Z17       -2.59206   0.00004   0.00000   0.00004   0.00004  -2.59203
   X18       -2.34079   0.00009   0.00000   0.00009   0.00009  -2.34070
   Y18        1.65516   0.00002   0.00000   0.00002   0.00002   1.65518
   Z18        1.02782  -0.00004   0.00000  -0.00004  -0.00004   1.02779
   X19       -5.01333  -0.00008   0.00000  -0.00008  -0.00008  -5.01342
   Y19        0.66111  -0.00001   0.00000  -0.00001  -0.00001   0.66110
   Z19        0.36937  -0.00009   0.00000  -0.00009  -0.00009   0.36928
   X20       -2.29440  -0.00006   0.00000  -0.00006  -0.00006  -2.29446
   Y20        4.50640  -0.00002   0.00000  -0.00002  -0.00002   4.50638
   Z20        0.36950  -0.00005   0.00000  -0.00005  -0.00005   0.36945
   X21       -1.94133  -0.00008   0.00000  -0.00008  -0.00008  -1.94141
   Y21        1.37269  -0.00001   0.00000  -0.00001  -0.00001   1.37268
   Z21        3.90861   0.00005   0.00000   0.00005   0.00005   3.90867
   X22       -6.49972   0.00001   0.00000   0.00001   0.00001  -6.49971
   Y22        1.87025   0.00000   0.00000   0.00000   0.00000   1.87025
   Z22        1.23112  -0.00003   0.00000  -0.00003  -0.00003   1.23109
   X23       -5.31026   0.00002   0.00000   0.00002   0.00002  -5.31025
   Y23        0.64589   0.00003   0.00000   0.00003   0.00003   0.64592
   Z23       -1.70978   0.00007   0.00000   0.00007   0.00007  -1.70970
   X24       -5.32169   0.00001   0.00000   0.00001   0.00001  -5.32168
   Y24       -1.27502  -0.00001   0.00000  -0.00001  -0.00001  -1.27503
   Z24        1.11316   0.00000   0.00000   0.00000   0.00000   1.11316
   X25       -3.92995   0.00001   0.00000   0.00001   0.00001  -3.92994
   Y25        5.50450   0.00000   0.00000   0.00000   0.00000   5.50450
   Z25        1.23127  -0.00003   0.00000  -0.00003  -0.00003   1.23123
   X26       -0.57196   0.00005   0.00000   0.00005   0.00005  -0.57192
   Y26        5.44234   0.00002   0.00000   0.00002   0.00002   5.44236
   Z26        1.11350   0.00001   0.00000   0.00001   0.00001   1.11351
   X27       -2.37897  -0.00002   0.00000  -0.00002  -0.00002  -2.37899
   Y27        4.79145  -0.00001   0.00000  -0.00001  -0.00001   4.79143
   Z27       -1.70951   0.00003   0.00000   0.00003   0.00003  -1.70947
   X28       -3.42900   0.00003   0.00000   0.00003   0.00003  -3.42897
   Y28        2.42455  -0.00002   0.00000  -0.00002  -0.00002   2.42453
   Z28        4.95478   0.00004   0.00000   0.00004   0.00004   4.95481
   X29       -2.05923   0.00001   0.00000   0.00001   0.00001  -2.05922
   Y29       -0.63216   0.00000   0.00000   0.00000   0.00000  -0.63216
   Z29        4.50789   0.00001   0.00000   0.00001   0.00001   4.50790
   X30       -0.09058   0.00005   0.00000   0.00005   0.00005  -0.09052
   Y30        2.15194   0.00001   0.00000   0.00001   0.00001   2.15196
   Z30        4.50796   0.00002   0.00000   0.00002   0.00002   4.50798
         Item               Value     Threshold  Converged?
 Maximum Force            0.000094     0.000450     YES
 RMS     Force            0.000034     0.000300     YES
 Maximum Displacement     0.000094     0.001800     YES
 RMS     Displacement     0.000034     0.001200     YES
 Predicted change in Energy=-5.307149D-08
 Optimization completed.
    -- Stationary point found.
 GradGradGradGradGradGradGradGradGradGradGradGradGradGradGradGradGradGrad

                          Input orientation:                          
 ---------------------------------------------------------------------
 Center     Atomic     Atomic              Coordinates (Angstroms)
 Number     Number      Type              X           Y           Z
 ---------------------------------------------------------------------
    1          6      10061003        0.851704   -2.143821   -0.986958
    2          6      10061003        2.264844   -1.601302   -0.762638
    3          6      10061003        2.305162   -0.088172   -0.986924
    4          6      10061003       -0.162591   -1.435487   -0.079413
    5          6      10061003        1.299204    0.631884   -0.079404
    6          6      10061003       -0.144872    0.102526   -0.297837
    7          1      10011000        0.840762   -3.233652   -0.768924
    8          1      10011000        0.562118   -2.006138   -2.052173
    9          1      10011000        2.964784   -2.096251   -1.469697
   10          1      10011000        2.597945   -1.836920    0.272173
   11          1      10011000        2.078844    0.138937   -2.052085
   12          1      10011000        3.328968    0.285417   -0.768832
   13          1      10011000        0.076029   -1.682125    0.976656
   14          1      10011000       -1.160376   -1.855505   -0.317960
   15          1      10011000        1.362512    1.712593   -0.317894
   16          1      10011000        1.611227    0.489117    0.976707
   17          1      10011000       -0.388477    0.274731   -1.371661
   18          6      10061003       -1.238692    0.875872    0.543900
   19          6      10061003       -2.652942    0.349842    0.195462
   20          6      10061003       -1.214142    2.384685    0.195532
   21          6      10061003       -1.027308    0.726398    2.068349
   22          1      10011000       -3.439506    0.989694    0.651482
   23          1      10011000       -2.810070    0.341790   -0.904775
   24          1      10011000       -2.816119   -0.674713    0.589060
   25          1      10011000       -2.079638    2.912856    0.651559
   26          1      10011000       -0.302670    2.879962    0.589239
   27          1      10011000       -1.258896    2.535524   -0.904631
   28          1      10011000       -1.814551    1.283019    2.621955
   29          1      10011000       -1.089698   -0.334523    2.385475
   30          1      10011000       -0.047930    1.138760    2.385509
 ---------------------------------------------------------------------
                    Distance matrix (angstroms):
                    1          2          3          4          5
     1  C    0.000000
     2  C    1.530232   0.000000
     3  C    2.517585   1.530194   0.000000
     4  C    1.534330   2.527198   2.954427   0.000000
     5  C    2.954395   2.527131   1.534283   2.531969   0.000000
     6  C    2.552279   2.987608   2.552229   1.553547   1.553476
     7  H    1.111481   2.166244   3.476498   2.171529   3.953224
     8  H    1.112430   2.173952   2.802062   2.177757   3.375540
     9  H    2.168042   1.111226   2.168076   3.485681   3.485655
    10  H    2.174616   1.112343   2.174665   2.811639   2.811642
    11  H    2.802027   2.173867   1.112369   3.375541   2.177683
    12  H    3.476437   2.166127   1.111445   3.953200   2.171472
    13  H    2.161160   2.796889   3.371256   1.110428   2.822420
    14  H    2.139895   3.463306   3.947270   1.108556   3.506216
    15  H    3.947215   3.463222   2.139847   3.506169   1.108521
    16  H    3.371234   2.796853   2.161169   2.822396   1.110455
    17  H    2.745076   3.306134   2.745071   2.155407   2.155402
    18  C    3.978923   4.485331   3.978908   2.624670   2.624682
    19  C    4.460831   5.376759   5.115925   3.076493   3.971719
    20  C    5.115992   5.376758   4.460799   3.971785   3.076493
    21  C    4.593881   4.926555   4.593863   3.167706   3.167717
    22  H    5.560385   6.422819   6.070204   4.141725   4.808076
    23  H    4.426467   5.436043   5.133928   3.293795   4.201372
    24  H    4.253826   5.338712   5.390295   2.840220   4.369202
    25  H    6.070213   6.422780   5.560330   4.808065   4.141704
    26  H    5.390304   5.338673   4.253810   4.369190   2.840236
    27  H    5.133974   5.436013   4.426405   4.201405   3.293740
    28  H    5.645918   6.034587   5.645901   4.173324   4.173342
    29  H    4.291375   4.771614   4.791538   2.854351   3.566009
    30  H    4.791473   4.771551   4.291353   3.565913   2.854381
                    6          7          8          9         10
     6  C    0.000000
     7  H    3.510482   0.000000
     8  H    2.832665   1.797543   0.000000
     9  H    3.984700   2.509229   2.473904   0.000000
    10  H    3.407258   2.474355   3.094480   1.798870   0.000000
    11  H    2.832600   3.814932   2.627128   2.473890   3.094455
    12  H    3.510391   4.309874   3.814923   2.509220   2.474349
    13  H    2.204111   2.457458   3.084651   3.808024   2.623035
    14  H    2.205797   2.471277   2.448912   4.289685   3.804415
    15  H    2.205657   4.994096   4.180588   4.289665   3.804408
    16  H    2.204041   4.183283   4.062147   3.808036   2.623057
    17  H    1.114494   3.766042   2.563024   4.107984   4.009985
    18  C    1.582096   4.789136   4.276505   5.527866   4.706682
    19  C    2.568059   5.096807   4.575928   6.349407   5.688552
    20  C    2.568073   6.059581   5.242767   6.349425   5.688570
    21  C    2.601297   5.217451   5.193431   6.035057   4.789500
    22  H    3.541594   6.178584   5.683111   7.418719   6.677158
    23  H    2.743885   5.111831   4.266256   6.293816   5.947992
    24  H    2.919974   4.665305   4.490133   6.299055   5.546461
    25  H    3.541558   6.951696   6.203672   7.418698   6.677132
    26  H    2.919924   6.366186   5.621289   6.299061   5.546447
    27  H    2.743853   6.140877   5.025897   6.293816   5.947971
    28  H    3.564628   6.240918   6.189877   7.141647   5.892844
    29  H    2.878172   4.699134   5.021505   5.865565   4.507987
    30  H    2.878111   5.464266   5.473167   5.865523   4.507939
                   11         12         13         14         15
    11  H    0.000000
    12  H    1.797499   0.000000
    13  H    4.062118   4.183247   0.000000
    14  H    4.180614   4.994101   1.798552   0.000000
    15  H    2.448866   2.471260   3.854219   4.369931   0.000000
    16  H    3.084618   2.457444   2.659158   3.854245   1.798540
    17  H    2.563024   3.766021   3.091867   2.498804   2.498767
    18  C    4.276477   4.789094   2.908456   2.865198   2.865145
    19  C    5.242685   6.059476   3.490908   2.711994   4.271357
    20  C    4.575907   5.096741   4.337469   4.271508   2.711910
    21  C    5.193387   5.217394   2.865332   3.518295   3.518235
    22  H    6.203648   6.951657   4.427566   3.772189   4.951934
    23  H    5.025829   6.140802   3.995695   2.809617   4.431024
    24  H    5.621240   6.366146   3.087010   2.226756   4.897219
    25  H    5.683071   6.178508   5.085906   4.951998   3.772117
    26  H    4.490147   4.665277   4.594142   4.897277   2.226762
    27  H    4.266238   5.111743   4.807268   4.431143   2.809494
    28  H    6.189838   6.240867   3.882445   4.349871   4.349824
    29  H    5.473185   5.464301   2.271502   3.102732   4.184761
    30  H    5.021459   4.699096   3.155570   4.184723   3.102744
                   16         17         18         19         20
    16  H    0.000000
    17  H    3.091862   0.000000
    18  C    2.908426   2.180278   0.000000
    19  C    4.337381   2.754871   1.548618   0.000000
    20  C    3.490863   2.754945   1.548703   2.492134   0.000000
    21  C    2.865284   3.527858   1.546276   2.508423   2.508439
    22  H    5.085888   3.730021   2.206380   1.111777   2.665734
    23  H    4.807239   2.467102   2.202982   1.111429   2.816218
    24  H    4.594145   3.261796   2.212380   1.109621   3.475789
    25  H    4.427496   3.730033   2.206374   2.665660   1.111760
    26  H    3.086952   3.261859   2.212368   3.475679   1.109543
    27  H    3.995600   2.467171   2.202975   2.816163   1.111357
    28  H    3.882406   4.358818   2.194469   2.731590   2.731609
    29  H    3.155631   3.870268   2.208767   2.776373   3.493627
    30  H    2.271467   3.870251   2.208743   3.493534   2.776397
                   21         22         23         24         25
    21  C    0.000000
    22  H    2.809900   0.000000
    23  H    3.487926   1.799418   0.000000
    24  H    2.711319   1.778414   1.806891   0.000000
    25  H    2.809857   2.355376   3.092910   3.662917   0.000000
    26  H    2.711219   3.662885   3.868004   4.353521   1.778365
    27  H    3.487862   3.092918   2.686748   3.868033   1.799368
    28  H    1.111781   2.570852   3.783489   2.994748   2.570817
    29  H    1.109060   3.206537   3.773967   2.514631   3.812075
    30  H    1.108970   3.812067   4.369273   3.765472   3.206530
                   26         27         28         29         30
    26  H    0.000000
    27  H    1.806835   0.000000
    28  H    2.994653   3.783428   0.000000
    29  H    3.765474   4.369279   1.788233   0.000000
    30  H    2.514610   3.773912   1.788201   1.804395   0.000000
 Stoichiometry    C10H20
 Framework group  C1[X(C10H20)]
 Deg. of freedom    84
 Full point group                 C1
 Largest Abelian subgroup         C1      NOp   1
 Largest concise Abelian subgroup C1      NOp   1
                         Standard orientation:                         
 ---------------------------------------------------------------------
 Center     Atomic     Atomic              Coordinates (Angstroms)
 Number     Number      Type              X           Y           Z
 ---------------------------------------------------------------------
    1          6      10061003       -2.157449    1.258782   -0.251866
    2          6      10061003       -2.867358   -0.000045    0.251119
    3          6      10061003       -2.157407   -1.258804   -0.251863
    4          6      10061003       -0.681732    1.266003    0.168106
    5          6      10061003       -0.681736   -1.265966    0.168099
    6          6      10061003        0.061024   -0.000025   -0.340810
    7          1      10011000       -2.662971    2.154952    0.168509
    8          1      10011000       -2.232199    1.313557   -1.360429
    9          1      10011000       -3.917169   -0.000011   -0.113186
   10          1      10011000       -2.889504    0.000021    1.363241
   11          1      10011000       -2.232167   -1.313571   -1.360365
   12          1      10011000       -2.662910   -2.154921    0.168553
   13          1      10011000       -0.630123    1.329614    1.275508
   14          1      10011000       -0.228396    2.185009   -0.254754
   15          1      10011000       -0.228355   -2.184922   -0.254731
   16          1      10011000       -0.630081   -1.329545    1.275528
   17          1      10011000       -0.033234    0.000018   -1.451311
   18          6      10061003        1.609880    0.000028   -0.018207
   19          6      10061003        2.286344    1.246032   -0.641174
   20          6      10061003        2.286357   -1.246101   -0.641122
   21          6      10061003        1.898014    0.000025    1.500986
   22          1      10011000        3.393466    1.177696   -0.565956
   23          1      10011000        2.019142    1.343330   -1.715609
   24          1      10011000        1.993804    2.176795   -0.112627
   25          1      10011000        3.393456   -1.177679   -0.565886
   26          1      10011000        1.993844   -2.176726   -0.112482
   27          1      10011000        2.019161   -1.343417   -1.715483
   28          1      10011000        2.994592    0.000038    1.684222
   29          1      10011000        1.482022    0.902292    1.993813
   30          1      10011000        1.481998   -0.902103    1.993845
 ---------------------------------------------------------------------
 Rotational constants (GHZ):      2.2229631      0.8518388      0.7423848
 1|1|UNPC-UNK|FOpt|UFF|ZDO|C10H20|PCUSER|13-Dec-2007|0||# opt uff||t-bu
 tylcyclohexane-eq||0,1|C,0.8517039861,-2.1438210982,-0.986957806|C,2.2
 648439096,-1.6013020233,-0.7626384529|C,2.3051622866,-0.088171627,-0.9
 869237723|C,-0.1625905351,-1.4354874828,-0.0794126176|C,1.2992039711,0
 .6318841949,-0.0794039698|C,-0.1448716449,0.1025261311,-0.2978372051|H
 ,0.840762165,-3.233651934,-0.768923871|H,0.5621182506,-2.0061376424,-2
 .0521728824|H,2.9647837059,-2.0962512126,-1.4696972621|H,2.5979446016,
 -1.8369204591,0.2721728378|H,2.0788441623,0.1389370135,-2.0520845409|H
 ,3.3289675464,0.2854169519,-0.7688323736|H,0.076029305,-1.6821245066,0
 .9766556675|H,-1.1603761633,-1.8555053838,-0.3179600706|H,1.3625116769
 ,1.7125934922,-0.3178944367|H,1.6112271075,0.4891171637,0.9767068152|H
 ,-0.388477486,0.2747313186,-1.3716613866|C,-1.2386921451,0.8758717791,
 0.5438999912|C,-2.6529416682,0.3498422997,0.1954619852|C,-1.2141418924
 ,2.3846850762,0.1955318857|C,-1.0273080996,0.7263976588,2.0683490228|H
 ,-3.4395060019,0.9896941708,0.6514820612|H,-2.8100703455,0.3417898639,
 -0.9047747392|H,-2.8161192385,-0.6747125577,0.5890599467|H,-2.07963809
 ,2.9128564304,0.6515591249|H,-0.30266975,2.8799623846,0.5892387865|H,-
 1.2588961055,2.5355243289,-0.9046312497|H,-1.8145506181,1.2830188785,2
 .621954622|H,-1.0896975128,-0.3345229041,2.3854750149|H,-0.0479303774,
 1.1387596951,2.385508875||Version=IA32W-G03RevD.01|HF=0.0324334|RMSD=0
 .000e+000|RMSF=3.434e-005|Thermal=0.|Dipole=0.,0.,0.|PG=C01 [X(C10H20)
 ]||@


 A warm smile is the universal language of kindness.
                             -- William Arthur Ward
 Job cpu time:  0 days  0 hours  0 minutes  3.0 seconds.
 File lengths (MBytes):  RWF=     11 Int=      0 D2E=      0 Chk=      4 Scr=      1
 Normal termination of Gaussian 03 at Thu Dec 13 15:28:10 2007.
