 Entering Gaussian System, Link 0=g09
 Input=31.gjf
 Output=31.out
 Initial command:
 /usr/local/g09/l1.exe /home/scratch/stylianakis/Gau-23194.inp -scrdir=/home/scratch/stylianakis/
 Entering Link 1 = /usr/local/g09/l1.exe PID=     23195.
  
 Copyright (c) 1988,1990,1992,1993,1995,1998,2003,2009, Gaussian, Inc.
                  All Rights Reserved.
  
 This is part of the Gaussian(R) 09 program.  It is based on
 the Gaussian(R) 03 system (copyright 2003, Gaussian, Inc.),
 the Gaussian(R) 98 system (copyright 1998, Gaussian, Inc.),
 the Gaussian(R) 94 system (copyright 1995, Gaussian, Inc.),
 the Gaussian 92(TM) system (copyright 1992, Gaussian, Inc.),
 the Gaussian 90(TM) system (copyright 1990, Gaussian, Inc.),
 the Gaussian 88(TM) system (copyright 1988, Gaussian, Inc.),
 the Gaussian 86(TM) system (copyright 1986, Carnegie Mellon
 University), and the Gaussian 82(TM) system (copyright 1983,
 Carnegie Mellon University). Gaussian is a federally registered
 trademark of Gaussian, Inc.
  
 This software contains proprietary and confidential information,
 including trade secrets, belonging to Gaussian, Inc.
  
 This software is provided under written license and may be
 used, copied, transmitted, or stored only in accord with that
 written license.
  
 The following legend is applicable only to US Government
 contracts under FAR:
  
                    RESTRICTED RIGHTS LEGEND
  
 Use, reproduction and disclosure by the US Government is
 subject to restrictions as set forth in subparagraphs (a)
 and (c) of the Commercial Computer Software - Restricted
 Rights clause in FAR 52.227-19.
  
 Gaussian, Inc.
 340 Quinnipiac St., Bldg. 40, Wallingford CT 06492
  
  
 ---------------------------------------------------------------
 Warning -- This program may not be used in any manner that
 competes with the business of Gaussian, Inc. or will provide
 assistance to any competitor of Gaussian, Inc.  The licensee
 of this program is prohibited from giving any competitor of
 Gaussian, Inc. access to this program.  By using this program,
 the user acknowledges that Gaussian, Inc. is engaged in the
 business of creating and licensing software in the field of
 computational chemistry and represents and warrants to the
 licensee that it is not a competitor of Gaussian, Inc. and that
 it will not use this program in any manner prohibited above.
 ---------------------------------------------------------------
  

 Cite this work as:
 Gaussian 09, Revision A.01,
 M. J. Frisch, G. W. Trucks, H. B. Schlegel, G. E. Scuseria, 
 M. A. Robb, J. R. Cheeseman, G. Scalmani, V. Barone, B. Mennucci, 
 G. A. Petersson, H. Nakatsuji, M. Caricato, X. Li, H. P. Hratchian, 
 A. F. Izmaylov, J. Bloino, G. Zheng, J. L. Sonnenberg, M. Hada, 
 M. Ehara, K. Toyota, R. Fukuda, J. Hasegawa, M. Ishida, T. Nakajima, 
 Y. Honda, O. Kitao, H. Nakai, T. Vreven, J. A. Montgomery, Jr., 
 J. E. Peralta, F. Ogliaro, M. Bearpark, J. J. Heyd, E. Brothers, 
 K. N. Kudin, V. N. Staroverov, R. Kobayashi, J. Normand, 
 K. Raghavachari, A. Rendell, J. C. Burant, S. S. Iyengar, J. Tomasi, 
 M. Cossi, N. Rega, J. M. Millam, M. Klene, J. E. Knox, J. B. Cross, 
 V. Bakken, C. Adamo, J. Jaramillo, R. Gomperts, R. E. Stratmann, 
 O. Yazyev, A. J. Austin, R. Cammi, C. Pomelli, J. W. Ochterski, 
 R. L. Martin, K. Morokuma, V. G. Zakrzewski, G. A. Voth, 
 P. Salvador, J. J. Dannenberg, S. Dapprich, A. D. Daniels, 
 O. Farkas, J. B. Foresman, J. V. Ortiz, J. Cioslowski, 
 and D. J. Fox, Gaussian, Inc., Wallingford CT, 2009.
 
 ******************************************
 Gaussian 09:  EM64L-G09RevA.01  8-May-2009
                 4-Jun-2016 
 ******************************************
 %mem=8000Mb
 %nproc=8
 Will use up to    8 processors via shared memory.
 -------------
 # mp2/cc-pVTZ
 -------------
 1/38=1/1;
 2/12=2,17=6,18=5,40=1/2;
 3/5=16,6=1,11=9,16=1,25=1,30=1/1,2,3;
 4//1;
 5/5=2,38=5/2;
 8/10=1/1;
 9/16=-3/6;
 6/7=2,8=2,9=2,10=2/1;
 99/5=1,9=1/99;
 -------------
 ftrktktku.hin
 -------------
 Symbolic Z-matrix:
 Charge =  0 Multiplicity = 1
 C                    -1.30489  -1.09062   0.25705 
 C                    -1.29696   0.36688  -0.16326 
 O                    -2.3236    0.93578  -0.4593 
 C                     0.04224   1.07805  -0.1931 
 H                    -1.94125  -1.2216    1.16156 
 H                    -1.71477  -1.72056  -0.56479 
 H                    -0.27897  -1.45162   0.49605 
 H                    -0.07311   2.13832  -0.5147 
 H                     0.50114   1.06917   0.82152 
 H                     0.72802   0.56931  -0.90794 
 
                          Input orientation:                          
 ---------------------------------------------------------------------
 Center     Atomic      Atomic             Coordinates (Angstroms)
 Number     Number       Type             X           Y           Z
 ---------------------------------------------------------------------
      1          6           0       -1.304890   -1.090620    0.257050
      2          6           0       -1.296960    0.366880   -0.163260
      3          8           0       -2.323600    0.935780   -0.459300
      4          6           0        0.042240    1.078050   -0.193100
      5          1           0       -1.941250   -1.221600    1.161560
      6          1           0       -1.714770   -1.720560   -0.564790
      7          1           0       -0.278970   -1.451620    0.496050
      8          1           0       -0.073110    2.138320   -0.514700
      9          1           0        0.501140    1.069170    0.821520
     10          1           0        0.728020    0.569310   -0.907940
 ---------------------------------------------------------------------
                    Distance matrix (angstroms):
                    1          2          3          4          5
     1  C    0.000000
     2  C    1.516915   0.000000
     3  O    2.378492   1.210486   0.000000
     4  C    2.592397   1.516611   2.385016   0.000000
     5  H    1.113664   2.166455   2.725375   3.325316   0.000000
     6  H    1.113664   2.166379   2.727259   3.325275   1.811226
     7  H    1.113532   2.185849   3.285253   2.641464   1.805267
     8  H    3.541036   2.181586   2.552230   1.113959   4.193907
     9  H    2.871422   2.167064   3.104424   1.113608   3.365787
    10  H    2.871462   2.167042   3.106117   1.113601   3.822982
                    6          7          8          9         10
     6  H    0.000000
     7  H    1.805334   0.000000
     8  H    4.193866   3.735193   0.000000
     9  H    3.822919   2.658737   1.805084   0.000000
    10  H    3.365781   2.658830   1.805059   1.814488   0.000000
 Stoichiometry    C3H6O
 Framework group  C1[X(C3H6O)]
 Deg. of freedom    24
 Full point group                 C1      NOp   1
 Largest Abelian subgroup         C1      NOp   1
 Largest concise Abelian subgroup C1      NOp   1
                         Standard orientation:                         
 ---------------------------------------------------------------------
 Center     Atomic      Atomic             Coordinates (Angstroms)
 Number     Number       Type             X           Y           Z
 ---------------------------------------------------------------------
      1          6           0       -1.291080   -0.616572    0.000123
      2          6           0        0.001079    0.178004   -0.001008
      3          8           0       -0.011544    1.388424    0.000256
      4          6           0        1.301280   -0.602755    0.000132
      5          1           0       -1.889738   -0.366803    0.905371
      6          1           0       -1.889667   -0.369292   -0.905853
      7          1           0       -1.095614   -1.712813    0.001705
      8          1           0        2.180518    0.081236   -0.000794
      9          1           0        1.359555   -1.244647    0.908262
     10          1           0        1.359621   -1.247133   -0.906224
 ---------------------------------------------------------------------
 Rotational constants (GHZ):     10.2275679      8.3447434      4.8899000
 Standard basis: CC-pVTZ (5D, 7F)
 There are   204 symmetry adapted basis functions of A   symmetry.
 Integral buffers will be    131072 words long.
 Raffenetti 1 integral format.
 Two-electron integral symmetry is turned on.
   204 basis functions,   310 primitive gaussians,   230 cartesian basis functions
    16 alpha electrons       16 beta electrons
       nuclear repulsion energy       118.7957459225 Hartrees.
 NAtoms=   10 NActive=   10 NUniq=   10 SFac= 7.50D-01 NAtFMM=   80 NAOKFM=F Big=F
 One-electron integrals computed using PRISM.
 NBasis=   204 RedAO= T  NBF=   204
 NBsUse=   204 1.00D-06 NBFU=   204
 Harris functional with IExCor=  205 diagonalized for initial guess.
 ExpMin= 1.03D-01 ExpMax= 1.53D+04 ExpMxC= 5.22D+02 IAcc=1 IRadAn=         1 AccDes= 0.00D+00
 HarFok:  IExCor=  205 AccDes= 0.00D+00 IRadAn=         1 IDoV= 1
 ScaDFX=  1.000000  1.000000  1.000000  1.000000
 FoFCou: FMM=F IPFlag=           0 FMFlag=      100000 FMFlg1=           0
         NFxFlg=           0 DoJE=T BraDBF=F KetDBF=T FulRan=T
         Omega=  0.000000  0.000000  1.000000  0.000000  0.000000 ICntrl=     500 IOpCl=  0
         NMat0=    1 NMatS0=    1 NMatT0=    0 NMatD0=    1 NMtDS0=    0 NMtDT0=    0
         I1Cent=           4 NGrid=           0.
 Petite list used in FoFCou.
 Initial guess orbital symmetries:
       Occupied  (A) (A) (A) (A) (A) (A) (A) (A) (A) (A) (A) (A)
                 (A) (A) (A) (A)
       Virtual   (A) (A) (A) (A) (A) (A) (A) (A) (A) (A) (A) (A)
                 (A) (A) (A) (A) (A) (A) (A) (A) (A) (A) (A) (A)
                 (A) (A) (A) (A) (A) (A) (A) (A) (A) (A) (A) (A)
                 (A) (A) (A) (A) (A) (A) (A) (A) (A) (A) (A) (A)
                 (A) (A) (A) (A) (A) (A) (A) (A) (A) (A) (A) (A)
                 (A) (A) (A) (A) (A) (A) (A) (A) (A) (A) (A) (A)
                 (A) (A) (A) (A) (A) (A) (A) (A) (A) (A) (A) (A)
                 (A) (A) (A) (A) (A) (A) (A) (A) (A) (A) (A) (A)
                 (A) (A) (A) (A) (A) (A) (A) (A) (A) (A) (A) (A)
                 (A) (A) (A) (A) (A) (A) (A) (A) (A) (A) (A) (A)
                 (A) (A) (A) (A) (A) (A) (A) (A) (A) (A) (A) (A)
                 (A) (A) (A) (A) (A) (A) (A) (A) (A) (A) (A) (A)
                 (A) (A) (A) (A) (A) (A) (A) (A) (A) (A) (A) (A)
                 (A) (A) (A) (A) (A) (A) (A) (A) (A) (A) (A) (A)
                 (A) (A) (A) (A) (A) (A) (A) (A) (A) (A) (A) (A)
                 (A) (A) (A) (A) (A) (A) (A) (A)
 The electronic state of the initial guess is 1-A.
 Requested convergence on RMS density matrix=1.00D-08 within 128 cycles.
 Requested convergence on MAX density matrix=1.00D-06.
 Requested convergence on             energy=1.00D-06.
 No special actions if energy rises.
 Keep R1 ints in memory in canonical form, NReq=359206355.
 SCF Done:  E(RHF) =  -192.028900541     A.U. after   11 cycles
             Convg  =    0.9954D-08             -V/T =  2.0024
 ExpMin= 1.03D-01 ExpMax= 1.53D+04 ExpMxC= 5.22D+02 IAcc=1 IRadAn=         1 AccDes= 0.00D+00
 HarFok:  IExCor=  205 AccDes= 0.00D+00 IRadAn=         1 IDoV=-2
 ScaDFX=  1.000000  1.000000  1.000000  1.000000
 Range of M.O.s used for correlation:     5   204
 NBasis=   204 NAE=    16 NBE=    16 NFC=     4 NFV=     0
 NROrb=    200 NOA=    12 NOB=    12 NVA=   188 NVB=   188

 **** Warning!!: The largest alpha MO coefficient is  0.10697475D+02

 Fully in-core method, ICMem=   737794109.
 JobTyp=1 Pass  1 fully in-core, NPsUse=  8.
 Spin components of T(2) and E(2):
     alpha-alpha T2 =       0.2682295730D-01 E2=     -0.8685898606D-01
     alpha-beta  T2 =       0.1646920141D+00 E2=     -0.5681843512D+00
     beta-beta   T2 =       0.2682295730D-01 E2=     -0.8685898606D-01
 ANorm=    0.1103783461D+01
 E2 =    -0.7419023233D+00 EUMP2 =    -0.19277080286448D+03

 **********************************************************************

            Population analysis using the SCF density.

 **********************************************************************

 Orbital symmetries:
       Occupied  (A) (A) (A) (A) (A) (A) (A) (A) (A) (A) (A) (A)
                 (A) (A) (A) (A)
       Virtual   (A) (A) (A) (A) (A) (A) (A) (A) (A) (A) (A) (A)
                 (A) (A) (A) (A) (A) (A) (A) (A) (A) (A) (A) (A)
                 (A) (A) (A) (A) (A) (A) (A) (A) (A) (A) (A) (A)
                 (A) (A) (A) (A) (A) (A) (A) (A) (A) (A) (A) (A)
                 (A) (A) (A) (A) (A) (A) (A) (A) (A) (A) (A) (A)
                 (A) (A) (A) (A) (A) (A) (A) (A) (A) (A) (A) (A)
                 (A) (A) (A) (A) (A) (A) (A) (A) (A) (A) (A) (A)
                 (A) (A) (A) (A) (A) (A) (A) (A) (A) (A) (A) (A)
                 (A) (A) (A) (A) (A) (A) (A) (A) (A) (A) (A) (A)
                 (A) (A) (A) (A) (A) (A) (A) (A) (A) (A) (A) (A)
                 (A) (A) (A) (A) (A) (A) (A) (A) (A) (A) (A) (A)
                 (A) (A) (A) (A) (A) (A) (A) (A) (A) (A) (A) (A)
                 (A) (A) (A) (A) (A) (A) (A) (A) (A) (A) (A) (A)
                 (A) (A) (A) (A) (A) (A) (A) (A) (A) (A) (A) (A)
                 (A) (A) (A) (A) (A) (A) (A) (A) (A) (A) (A) (A)
                 (A) (A) (A) (A) (A) (A) (A) (A)
 The electronic state is 1-A.
 Alpha  occ. eigenvalues --  -20.54073 -11.33266 -11.24318 -11.24272  -1.38464
 Alpha  occ. eigenvalues --   -1.03458  -0.96028  -0.73794  -0.63900  -0.63295
 Alpha  occ. eigenvalues --   -0.61793  -0.56128  -0.55569  -0.52784  -0.48341
 Alpha  occ. eigenvalues --   -0.41197
 Alpha virt. eigenvalues --    0.12616   0.14353   0.17620   0.20587   0.20604
 Alpha virt. eigenvalues --    0.21600   0.22755   0.26760   0.32905   0.35517
 Alpha virt. eigenvalues --    0.38992   0.39461   0.41719   0.45167   0.50473
 Alpha virt. eigenvalues --    0.51963   0.56282   0.59100   0.59400   0.60377
 Alpha virt. eigenvalues --    0.61713   0.62626   0.63359   0.66001   0.67378
 Alpha virt. eigenvalues --    0.71852   0.72851   0.76776   0.80917   0.84500
 Alpha virt. eigenvalues --    0.85230   0.91241   0.98634   1.01729   1.03461
 Alpha virt. eigenvalues --    1.04120   1.05885   1.08578   1.12146   1.13237
 Alpha virt. eigenvalues --    1.21369   1.21528   1.22015   1.24135   1.24643
 Alpha virt. eigenvalues --    1.27841   1.35652   1.36778   1.38082   1.39441
 Alpha virt. eigenvalues --    1.40927   1.47080   1.49960   1.50390   1.51297
 Alpha virt. eigenvalues --    1.52667   1.55029   1.57685   1.60479   1.61924
 Alpha virt. eigenvalues --    1.62877   1.70974   1.75878   1.82441   1.97822
 Alpha virt. eigenvalues --    2.02085   2.11848   2.24097   2.38149   2.41795
 Alpha virt. eigenvalues --    2.44232   2.55123   2.56551   2.58556   2.64860
 Alpha virt. eigenvalues --    2.66344   2.68465   2.73341   2.79372   2.88789
 Alpha virt. eigenvalues --    2.90144   2.91170   2.93855   3.00062   3.05071
 Alpha virt. eigenvalues --    3.07322   3.08677   3.10373   3.12771   3.14445
 Alpha virt. eigenvalues --    3.18323   3.19921   3.20663   3.25398   3.28078
 Alpha virt. eigenvalues --    3.28815   3.31510   3.33435   3.36402   3.39767
 Alpha virt. eigenvalues --    3.42708   3.42763   3.45174   3.49213   3.57245
 Alpha virt. eigenvalues --    3.59976   3.60363   3.63022   3.66599   3.68469
 Alpha virt. eigenvalues --    3.71210   3.72419   3.73943   3.75877   3.76823
 Alpha virt. eigenvalues --    3.82695   3.84359   3.87041   3.95298   4.01995
 Alpha virt. eigenvalues --    4.03590   4.05660   4.07470   4.08055   4.10389
 Alpha virt. eigenvalues --    4.14452   4.15457   4.15868   4.23187   4.27473
 Alpha virt. eigenvalues --    4.29637   4.31410   4.32637   4.34127   4.37247
 Alpha virt. eigenvalues --    4.38317   4.44496   4.49962   4.51714   4.55484
 Alpha virt. eigenvalues --    4.56996   4.60294   4.66210   4.66614   4.66904
 Alpha virt. eigenvalues --    4.78150   4.85843   4.94030   5.07194   5.08180
 Alpha virt. eigenvalues --    5.09653   5.10806   5.22908   5.27864   5.35111
 Alpha virt. eigenvalues --    5.37718   5.39341   5.39350   5.44501   5.45979
 Alpha virt. eigenvalues --    5.47396   5.54267   5.55670   5.57439   5.58141
 Alpha virt. eigenvalues --    5.59663   5.63081   5.64013   5.68154   5.79666
 Alpha virt. eigenvalues --    6.06274   6.12196   6.18696   6.20429   6.21798
 Alpha virt. eigenvalues --    6.24511   6.71849   6.75044   6.92308   6.97796
 Alpha virt. eigenvalues --    7.13249   7.36890   7.53890   7.56768   9.52642
 Alpha virt. eigenvalues --   13.26422  13.72121  13.93231
          Condensed to atoms (all electrons):
              1          2          3          4          5          6
     1  C    4.938423   0.320509  -0.083753  -0.107944   0.399737   0.399649
     2  C    0.320509   4.486249   0.719177   0.338987  -0.021141  -0.021116
     3  O   -0.083753   0.719177   7.798034  -0.089283   0.000457   0.000465
     4  C   -0.107944   0.338987  -0.089283   4.943979   0.004246   0.004224
     5  H    0.399737  -0.021141   0.000457   0.004246   0.543269  -0.013330
     6  H    0.399649  -0.021116   0.000465   0.004224  -0.013330   0.543462
     7  H    0.397522  -0.034595   0.003908   0.010187  -0.028415  -0.028388
     8  H    0.008080  -0.032656   0.006362   0.403280  -0.000351  -0.000352
     9  H    0.004864  -0.025888   0.002035   0.389176  -0.000844   0.000387
    10  H    0.004860  -0.025919   0.002061   0.389091   0.000386  -0.000841
              7          8          9         10
     1  C    0.397522   0.008080   0.004864   0.004860
     2  C   -0.034595  -0.032656  -0.025888  -0.025919
     3  O    0.003908   0.006362   0.002035   0.002061
     4  C    0.010187   0.403280   0.389176   0.389091
     5  H   -0.028415  -0.000351  -0.000844   0.000386
     6  H   -0.028388  -0.000352   0.000387  -0.000841
     7  H    0.596871  -0.000108  -0.003065  -0.003075
     8  H   -0.000108   0.538725  -0.021432  -0.021459
     9  H   -0.003065  -0.021432   0.588963  -0.029278
    10  H   -0.003075  -0.021459  -0.029278   0.589197
 Mulliken atomic charges:
              1
     1  C   -0.281948
     2  C    0.296394
     3  O   -0.359462
     4  C   -0.285943
     5  H    0.115988
     6  H    0.115840
     7  H    0.089160
     8  H    0.119911
     9  H    0.095083
    10  H    0.094976
 Sum of Mulliken atomic charges =   0.00000
 Mulliken charges with hydrogens summed into heavy atoms:
              1
     1  C    0.039040
     2  C    0.296394
     3  O   -0.359462
     4  C    0.024028
 Sum of Mulliken charges with hydrogens summed into heavy atoms =   0.00000
 Electronic spatial extent (au):  <R**2>=            295.4720
 Charge=              0.0000 electrons
 Dipole moment (field-independent basis, Debye):
    X=             -0.0107    Y=             -3.2206    Z=             -0.0010  Tot=              3.2206
 Quadrupole moment (field-independent basis, Debye-Ang):
   XX=            -23.4524   YY=            -29.7638   ZZ=            -24.1603
   XY=             -0.0172   XZ=              0.0005   YZ=             -0.0018
 Traceless Quadrupole moment (field-independent basis, Debye-Ang):
   XX=              2.3398   YY=             -3.9716   ZZ=              1.6319
   XY=             -0.0172   XZ=              0.0005   YZ=             -0.0018
 Octapole moment (field-independent basis, Debye-Ang**2):
  XXX=             -0.0094  YYY=             -3.0973  ZZZ=              0.0033  XYY=              0.6404
  XXY=              1.7712  XXZ=              0.0028  XZZ=             -0.8711  YZZ=              0.8645
  YYZ=              0.0017  XYZ=             -0.0028
 Hexadecapole moment (field-independent basis, Debye-Ang**3):
 XXXX=           -201.0524 YYYY=           -150.8264 ZZZZ=            -37.3375 XXXY=              1.6222
 XXXZ=             -0.0030 YYYX=             -0.0035 YYYZ=             -0.0010 ZZZX=              0.0084
 ZZZY=             -0.0002 XXYY=            -60.0685 XXZZ=            -37.8494 YYZZ=            -29.5179
 XXYZ=              0.0006 YYXZ=             -0.0031 ZZXY=             -1.5430
 N-N= 1.187957459225D+02 E-N=-6.874085773698D+02  KE= 1.915729011201D+02
 1\1\GINC-ROCK\SP\RMP2-FC\CC-pVTZ\C3H6O1\STYLIANAKIS\04-Jun-2016\0\\# m
 p2/cc-pVTZ\\ftrktktku.hin\\0,1\C,0,-1.30489,-1.09062,0.25705\C,0,-1.29
 696,0.36688,-0.16326\O,0,-2.3236,0.93578,-0.4593\C,0,0.04224,1.07805,-
 0.1931\H,0,-1.94125,-1.2216,1.16156\H,0,-1.71477,-1.72056,-0.56479\H,0
 ,-0.27897,-1.45162,0.49605\H,0,-0.07311,2.13832,-0.5147\H,0,0.50114,1.
 06917,0.82152\H,0,0.72802,0.56931,-0.90794\\Version=EM64L-G09RevA.01\S
 tate=1-A\HF=-192.0289005\MP2=-192.7708029\RMSD=9.954e-09\PG=C01 [X(C3H
 6O1)]\\@


 WE DON'T KNOW ONE MILLIONTH OF ONE PERCENT ABOUT
 ANYTHING.
                                     T. A. EDISON.
 Job cpu time:  0 days  0 hours 15 minutes 11.8 seconds.
 File lengths (MBytes):  RWF=     20 Int=      0 D2E=      0 Chk=      3 Scr=      1
 Normal termination of Gaussian 09 at Sat Jun  4 22:00:28 2016.
