 Entering Gaussian System, Link 0=g09
 Input=11.gjf
 Output=11.out
 Initial command:
 /usr/local/g09/l1.exe /home/scratch/stylianakis/Gau-1622.inp -scrdir=/home/scratch/stylianakis/
 Entering Link 1 = /usr/local/g09/l1.exe PID=      1623.
  
 Copyright (c) 1988,1990,1992,1993,1995,1998,2003,2009, Gaussian, Inc.
                  All Rights Reserved.
  
 This is part of the Gaussian(R) 09 program.  It is based on
 the Gaussian(R) 03 system (copyright 2003, Gaussian, Inc.),
 the Gaussian(R) 98 system (copyright 1998, Gaussian, Inc.),
 the Gaussian(R) 94 system (copyright 1995, Gaussian, Inc.),
 the Gaussian 92(TM) system (copyright 1992, Gaussian, Inc.),
 the Gaussian 90(TM) system (copyright 1990, Gaussian, Inc.),
 the Gaussian 88(TM) system (copyright 1988, Gaussian, Inc.),
 the Gaussian 86(TM) system (copyright 1986, Carnegie Mellon
 University), and the Gaussian 82(TM) system (copyright 1983,
 Carnegie Mellon University). Gaussian is a federally registered
 trademark of Gaussian, Inc.
  
 This software contains proprietary and confidential information,
 including trade secrets, belonging to Gaussian, Inc.
  
 This software is provided under written license and may be
 used, copied, transmitted, or stored only in accord with that
 written license.
  
 The following legend is applicable only to US Government
 contracts under FAR:
  
                    RESTRICTED RIGHTS LEGEND
  
 Use, reproduction and disclosure by the US Government is
 subject to restrictions as set forth in subparagraphs (a)
 and (c) of the Commercial Computer Software - Restricted
 Rights clause in FAR 52.227-19.
  
 Gaussian, Inc.
 340 Quinnipiac St., Bldg. 40, Wallingford CT 06492
  
  
 ---------------------------------------------------------------
 Warning -- This program may not be used in any manner that
 competes with the business of Gaussian, Inc. or will provide
 assistance to any competitor of Gaussian, Inc.  The licensee
 of this program is prohibited from giving any competitor of
 Gaussian, Inc. access to this program.  By using this program,
 the user acknowledges that Gaussian, Inc. is engaged in the
 business of creating and licensing software in the field of
 computational chemistry and represents and warrants to the
 licensee that it is not a competitor of Gaussian, Inc. and that
 it will not use this program in any manner prohibited above.
 ---------------------------------------------------------------
  

 Cite this work as:
 Gaussian 09, Revision A.01,
 M. J. Frisch, G. W. Trucks, H. B. Schlegel, G. E. Scuseria, 
 M. A. Robb, J. R. Cheeseman, G. Scalmani, V. Barone, B. Mennucci, 
 G. A. Petersson, H. Nakatsuji, M. Caricato, X. Li, H. P. Hratchian, 
 A. F. Izmaylov, J. Bloino, G. Zheng, J. L. Sonnenberg, M. Hada, 
 M. Ehara, K. Toyota, R. Fukuda, J. Hasegawa, M. Ishida, T. Nakajima, 
 Y. Honda, O. Kitao, H. Nakai, T. Vreven, J. A. Montgomery, Jr., 
 J. E. Peralta, F. Ogliaro, M. Bearpark, J. J. Heyd, E. Brothers, 
 K. N. Kudin, V. N. Staroverov, R. Kobayashi, J. Normand, 
 K. Raghavachari, A. Rendell, J. C. Burant, S. S. Iyengar, J. Tomasi, 
 M. Cossi, N. Rega, J. M. Millam, M. Klene, J. E. Knox, J. B. Cross, 
 V. Bakken, C. Adamo, J. Jaramillo, R. Gomperts, R. E. Stratmann, 
 O. Yazyev, A. J. Austin, R. Cammi, C. Pomelli, J. W. Ochterski, 
 R. L. Martin, K. Morokuma, V. G. Zakrzewski, G. A. Voth, 
 P. Salvador, J. J. Dannenberg, S. Dapprich, A. D. Daniels, 
 O. Farkas, J. B. Foresman, J. V. Ortiz, J. Cioslowski, 
 and D. J. Fox, Gaussian, Inc., Wallingford CT, 2009.
 
 ******************************************
 Gaussian 09:  EM64L-G09RevA.01  8-May-2009
                 4-Jun-2016 
 ******************************************
 %mem=8000Mb
 %nproc=8
 Will use up to    8 processors via shared memory.
 -------------
 # mp2/cc-pVTZ
 -------------
 1/38=1/1;
 2/12=2,17=6,18=5,40=1/2;
 3/5=16,6=1,11=9,16=1,25=1,30=1/1,2,3;
 4//1;
 5/5=2,38=5/2;
 8/10=1/1;
 9/16=-3/6;
 6/7=2,8=2,9=2,10=2/1;
 99/5=1,9=1/99;
 ----------------------------------
 N-Methylo piperidine ch-eq-nlp.hin
 ----------------------------------
 Symbolic Z-matrix:
 Charge =  0 Multiplicity = 1
 C                    -2.49051  -0.57129  -0.92952 
 C                    -2.48258   0.96146  -0.91957 
 C                    -1.74809  -1.08474   0.30929 
 C                    -1.04551   1.49074  -0.81058 
 C                    -0.33609  -0.48562   0.37634 
 N                    -0.36832   0.96781   0.36483 
 C                     0.95675   1.53933   0.52449 
 H                    -1.98567  -0.94435  -1.85245 
 H                    -3.53864  -0.95601  -0.94366 
 H                    -3.08043   1.33101  -0.05212 
 H                    -2.96854   1.35244  -1.84588 
 H                    -1.69341  -2.19991   0.28752 
 H                    -2.31548  -0.80004   1.2277 
 H                    -1.08356   2.60422  -0.74927 
 H                    -0.47523   1.22254  -1.73202 
 H                     0.27299  -0.86188  -0.48021 
 H                     0.15137  -0.83614   1.31686 
 H                     1.62351   1.26757  -0.32655 
 H                     0.89136   2.64907   0.59355 
 H                     1.41755   1.18317   1.4739 
 
                          Input orientation:                          
 ---------------------------------------------------------------------
 Center     Atomic      Atomic             Coordinates (Angstroms)
 Number     Number       Type             X           Y           Z
 ---------------------------------------------------------------------
      1          6           0       -2.490510   -0.571290   -0.929520
      2          6           0       -2.482580    0.961460   -0.919570
      3          6           0       -1.748090   -1.084740    0.309290
      4          6           0       -1.045510    1.490740   -0.810580
      5          6           0       -0.336090   -0.485620    0.376340
      6          7           0       -0.368320    0.967810    0.364830
      7          6           0        0.956750    1.539330    0.524490
      8          1           0       -1.985670   -0.944350   -1.852450
      9          1           0       -3.538640   -0.956010   -0.943660
     10          1           0       -3.080430    1.331010   -0.052120
     11          1           0       -2.968540    1.352440   -1.845880
     12          1           0       -1.693410   -2.199910    0.287520
     13          1           0       -2.315480   -0.800040    1.227700
     14          1           0       -1.083560    2.604220   -0.749270
     15          1           0       -0.475230    1.222540   -1.732020
     16          1           0        0.272990   -0.861880   -0.480210
     17          1           0        0.151370   -0.836140    1.316860
     18          1           0        1.623510    1.267570   -0.326550
     19          1           0        0.891360    2.649070    0.593550
     20          1           0        1.417550    1.183170    1.473900
 ---------------------------------------------------------------------
                    Distance matrix (angstroms):
                    1          2          3          4          5
     1  C    0.000000
     2  C    1.532803   0.000000
     3  C    1.532798   2.497300   0.000000
     4  C    2.520742   1.535313   2.894965   0.000000
     5  C    2.520741   2.894968   1.535313   2.412064   0.000000
     6  N    2.923673   2.473827   2.473825   1.453833   1.453833
     7  C    4.295633   3.774683   3.774681   2.407035   2.407033
     8  H    1.116171   2.179288   2.179283   2.810526   2.810525
     9  H    1.116596   2.189186   2.189184   3.495711   3.495711
    10  H    2.176369   1.116450   2.782372   2.177539   3.318904
    11  H    2.183796   1.116724   3.474781   2.188382   3.904679
    12  H    2.183794   3.474783   1.116722   3.904676   2.188378
    13  H    2.176364   2.782368   1.116451   3.318898   2.177535
    14  H    3.477911   2.164467   3.894942   1.115816   3.372361
    15  H    2.814815   2.181213   3.333266   1.116334   2.717048
    16  H    2.814828   3.333282   2.181225   2.717059   1.116346
    17  H    3.477916   3.894955   2.164474   3.372372   1.115822
    18  H    4.546443   4.159970   4.159969   2.721720   2.721720
    19  H    4.911976   4.064607   4.581358   2.657964   3.373440
    20  H    4.911974   4.581361   4.064604   3.373442   2.657960
                    6          7          8          9         10
     6  N    0.000000
     7  C    1.451874   0.000000
     8  H    3.344923   4.525080   0.000000
     9  H    3.932449   5.347029   1.799375   0.000000
    10  H    2.767906   4.083467   3.101121   2.497050   0.000000
    11  H    3.434578   4.589279   2.498264   2.543218   1.797374
    12  H    3.434573   4.589272   2.498263   2.543219   3.808750
    13  H    2.767900   4.083460   3.101117   2.497049   2.600858
    14  H    2.104905   2.630460   3.824024   4.329023   2.468719
    15  H    2.114970   2.691238   2.644115   3.840843   3.101757
    16  H    2.114979   2.691238   2.644123   3.840855   4.029572
    17  H    2.104917   2.630465   3.824026   4.329029   4.124946
    18  H    2.129612   1.114761   4.499682   5.654461   4.712365
    19  H    2.113230   1.113808   5.212762   5.914771   4.234299
    20  H    2.113232   1.113807   5.212759   5.914770   4.752096
                   11         12         13         14         15
    11  H    0.000000
    12  H    4.335498   0.000000
    13  H    3.808747   1.797372   0.000000
    14  H    2.514489   4.952425   4.124927   0.000000
    15  H    2.499286   4.156401   4.029552   1.801361   0.000000
    16  H    4.156415   2.499292   3.101767   3.731819   2.543947
    17  H    4.952438   2.514483   2.468725   4.198812   3.731817
    18  H    4.837612   4.837609   4.712361   3.048533   2.526279
    19  H    4.746672   5.503390   4.752087   2.388616   3.051366
    20  H    5.503397   4.746662   4.234294   3.635577   3.723183
                   16         17         18         19         20
    16  H    0.000000
    17  H    1.801365   0.000000
    18  H    2.526277   3.048539   0.000000
    19  H    3.723186   3.635581   1.814158   0.000000
    20  H    3.051359   2.388616   1.814156   1.789065   0.000000
 Stoichiometry    C6H13N
 Framework group  C1[X(C6H13N)]
 Deg. of freedom    54
 Full point group                 C1      NOp   1
 Largest Abelian subgroup         C1      NOp   1
 Largest concise Abelian subgroup C1      NOp   1
                         Standard orientation:                         
 ---------------------------------------------------------------------
 Center     Atomic      Atomic             Coordinates (Angstroms)
 Number     Number       Type             X           Y           Z
 ---------------------------------------------------------------------
      1          6           0       -1.891212    0.000004    0.269375
      2          6           0       -1.158628   -1.248650   -0.234278
      3          6           0       -1.158624    1.248650   -0.234279
      4          6           0        0.320313   -1.206033    0.175726
      5          6           0        0.320317    1.206031    0.175722
      6          7           0        0.975837   -0.000002   -0.303241
      7          6           0        2.395903   -0.000002   -0.001002
      8          1           0       -1.911572    0.000006    1.385360
      9          1           0       -2.950485    0.000005   -0.083793
     10          1           0       -1.233397   -1.300432   -1.347018
     11          1           0       -1.645422   -2.167747    0.172375
     12          1           0       -1.645409    2.167751    0.172366
     13          1           0       -1.233390    1.300426   -1.347020
     14          1           0        0.831524   -2.099402   -0.255086
     15          1           0        0.404401   -1.271970    1.286934
     16          1           0        0.404414    1.271977    1.286941
     17          1           0        0.831532    2.099410   -0.255084
     18          1           0        2.578965   -0.000004    1.098625
     19          1           0        2.884787   -0.894535   -0.449748
     20          1           0        2.884788    0.894531   -0.449742
 ---------------------------------------------------------------------
 Rotational constants (GHZ):      4.4365510      2.2872633      1.6571279
 Standard basis: CC-pVTZ (5D, 7F)
 There are   392 symmetry adapted basis functions of A   symmetry.
 Integral buffers will be    131072 words long.
 Raffenetti 1 integral format.
 Two-electron integral symmetry is turned on.
   392 basis functions,   585 primitive gaussians,   440 cartesian basis functions
    28 alpha electrons       28 beta electrons
       nuclear repulsion energy       333.4029085641 Hartrees.
 NAtoms=   20 NActive=   20 NUniq=   20 SFac= 7.50D-01 NAtFMM=   80 NAOKFM=F Big=F
 One-electron integrals computed using PRISM.
 NBasis=   392 RedAO= T  NBF=   392
 NBsUse=   392 1.00D-06 NBFU=   392
 Harris functional with IExCor=  205 diagonalized for initial guess.
 ExpMin= 1.03D-01 ExpMax= 1.14D+04 ExpMxC= 3.89D+02 IAcc=1 IRadAn=         1 AccDes= 0.00D+00
 HarFok:  IExCor=  205 AccDes= 0.00D+00 IRadAn=         1 IDoV= 1
 ScaDFX=  1.000000  1.000000  1.000000  1.000000
 FoFCou: FMM=F IPFlag=           0 FMFlag=      100000 FMFlg1=           0
         NFxFlg=           0 DoJE=T BraDBF=F KetDBF=T FulRan=T
         Omega=  0.000000  0.000000  1.000000  0.000000  0.000000 ICntrl=     500 IOpCl=  0
         NMat0=    1 NMatS0=    1 NMatT0=    0 NMatD0=    1 NMtDS0=    0 NMtDT0=    0
         I1Cent=           4 NGrid=           0.
 Petite list used in FoFCou.
 Initial guess orbital symmetries:
       Occupied  (A) (A) (A) (A) (A) (A) (A) (A) (A) (A) (A) (A)
                 (A) (A) (A) (A) (A) (A) (A) (A) (A) (A) (A) (A)
                 (A) (A) (A) (A)
       Virtual   (A) (A) (A) (A) (A) (A) (A) (A) (A) (A) (A) (A)
                 (A) (A) (A) (A) (A) (A) (A) (A) (A) (A) (A) (A)
                 (A) (A) (A) (A) (A) (A) (A) (A) (A) (A) (A) (A)
                 (A) (A) (A) (A) (A) (A) (A) (A) (A) (A) (A) (A)
                 (A) (A) (A) (A) (A) (A) (A) (A) (A) (A) (A) (A)
                 (A) (A) (A) (A) (A) (A) (A) (A) (A) (A) (A) (A)
                 (A) (A) (A) (A) (A) (A) (A) (A) (A) (A) (A) (A)
                 (A) (A) (A) (A) (A) (A) (A) (A) (A) (A) (A) (A)
                 (A) (A) (A) (A) (A) (A) (A) (A) (A) (A) (A) (A)
                 (A) (A) (A) (A) (A) (A) (A) (A) (A) (A) (A) (A)
                 (A) (A) (A) (A) (A) (A) (A) (A) (A) (A) (A) (A)
                 (A) (A) (A) (A) (A) (A) (A) (A) (A) (A) (A) (A)
                 (A) (A) (A) (A) (A) (A) (A) (A) (A) (A) (A) (A)
                 (A) (A) (A) (A) (A) (A) (A) (A) (A) (A) (A) (A)
                 (A) (A) (A) (A) (A) (A) (A) (A) (A) (A) (A) (A)
                 (A) (A) (A) (A) (A) (A) (A) (A) (A) (A) (A) (A)
                 (A) (A) (A) (A) (A) (A) (A) (A) (A) (A) (A) (A)
                 (A) (A) (A) (A) (A) (A) (A) (A) (A) (A) (A) (A)
                 (A) (A) (A) (A) (A) (A) (A) (A) (A) (A) (A) (A)
                 (A) (A) (A) (A) (A) (A) (A) (A) (A) (A) (A) (A)
                 (A) (A) (A) (A) (A) (A) (A) (A) (A) (A) (A) (A)
                 (A) (A) (A) (A) (A) (A) (A) (A) (A) (A) (A) (A)
                 (A) (A) (A) (A) (A) (A) (A) (A) (A) (A) (A) (A)
                 (A) (A) (A) (A) (A) (A) (A) (A) (A) (A) (A) (A)
                 (A) (A) (A) (A) (A) (A) (A) (A) (A) (A) (A) (A)
                 (A) (A) (A) (A) (A) (A) (A) (A) (A) (A) (A) (A)
                 (A) (A) (A) (A) (A) (A) (A) (A) (A) (A) (A) (A)
                 (A) (A) (A) (A) (A) (A) (A) (A) (A) (A) (A) (A)
                 (A) (A) (A) (A) (A) (A) (A) (A) (A) (A) (A) (A)
                 (A) (A) (A) (A) (A) (A) (A) (A) (A) (A) (A) (A)
                 (A) (A) (A) (A)
 The electronic state of the initial guess is 1-A.
 Requested convergence on RMS density matrix=1.00D-08 within 128 cycles.
 Requested convergence on MAX density matrix=1.00D-06.
 Requested convergence on             energy=1.00D-06.
 No special actions if energy rises.
 Integral accuracy reduced to 1.0D-05 until final iterations.
 Initial convergence to 1.0D-05 achieved.  Increase integral accuracy.
 SCF Done:  E(RHF) =  -289.310710691     A.U. after   11 cycles
             Convg  =    0.7942D-08             -V/T =  2.0026
 ExpMin= 1.03D-01 ExpMax= 1.14D+04 ExpMxC= 3.89D+02 IAcc=1 IRadAn=         1 AccDes= 0.00D+00
 HarFok:  IExCor=  205 AccDes= 0.00D+00 IRadAn=         1 IDoV=-2
 ScaDFX=  1.000000  1.000000  1.000000  1.000000
 Range of M.O.s used for correlation:     8   392
 NBasis=   392 NAE=    28 NBE=    28 NFC=     7 NFV=     0
 NROrb=    385 NOA=    21 NOB=    21 NVA=   364 NVB=   364

 **** Warning!!: The largest alpha MO coefficient is  0.11181319D+02

 Fully direct method using O(OVN) memory.
 JobTyp=1 Pass  1:  I=   1 to  21 NPSUse=  8 ParTrn=T ParDer=T DoDerP=F.
 Spin components of T(2) and E(2):
     alpha-alpha T2 =       0.4770336689D-01 E2=     -0.1442624570D+00
     alpha-beta  T2 =       0.2909378802D+00 E2=     -0.9661527808D+00
     beta-beta   T2 =       0.4770336689D-01 E2=     -0.1442624570D+00
 ANorm=    0.1177431363D+01
 E2 =    -0.1254677695D+01 EUMP2 =    -0.29056538838595D+03

 **********************************************************************

            Population analysis using the SCF density.

 **********************************************************************

 Orbital symmetries:
       Occupied  (A) (A) (A) (A) (A) (A) (A) (A) (A) (A) (A) (A)
                 (A) (A) (A) (A) (A) (A) (A) (A) (A) (A) (A) (A)
                 (A) (A) (A) (A)
       Virtual   (A) (A) (A) (A) (A) (A) (A) (A) (A) (A) (A) (A)
                 (A) (A) (A) (A) (A) (A) (A) (A) (A) (A) (A) (A)
                 (A) (A) (A) (A) (A) (A) (A) (A) (A) (A) (A) (A)
                 (A) (A) (A) (A) (A) (A) (A) (A) (A) (A) (A) (A)
                 (A) (A) (A) (A) (A) (A) (A) (A) (A) (A) (A) (A)
                 (A) (A) (A) (A) (A) (A) (A) (A) (A) (A) (A) (A)
                 (A) (A) (A) (A) (A) (A) (A) (A) (A) (A) (A) (A)
                 (A) (A) (A) (A) (A) (A) (A) (A) (A) (A) (A) (A)
                 (A) (A) (A) (A) (A) (A) (A) (A) (A) (A) (A) (A)
                 (A) (A) (A) (A) (A) (A) (A) (A) (A) (A) (A) (A)
                 (A) (A) (A) (A) (A) (A) (A) (A) (A) (A) (A) (A)
                 (A) (A) (A) (A) (A) (A) (A) (A) (A) (A) (A) (A)
                 (A) (A) (A) (A) (A) (A) (A) (A) (A) (A) (A) (A)
                 (A) (A) (A) (A) (A) (A) (A) (A) (A) (A) (A) (A)
                 (A) (A) (A) (A) (A) (A) (A) (A) (A) (A) (A) (A)
                 (A) (A) (A) (A) (A) (A) (A) (A) (A) (A) (A) (A)
                 (A) (A) (A) (A) (A) (A) (A) (A) (A) (A) (A) (A)
                 (A) (A) (A) (A) (A) (A) (A) (A) (A) (A) (A) (A)
                 (A) (A) (A) (A) (A) (A) (A) (A) (A) (A) (A) (A)
                 (A) (A) (A) (A) (A) (A) (A) (A) (A) (A) (A) (A)
                 (A) (A) (A) (A) (A) (A) (A) (A) (A) (A) (A) (A)
                 (A) (A) (A) (A) (A) (A) (A) (A) (A) (A) (A) (A)
                 (A) (A) (A) (A) (A) (A) (A) (A) (A) (A) (A) (A)
                 (A) (A) (A) (A) (A) (A) (A) (A) (A) (A) (A) (A)
                 (A) (A) (A) (A) (A) (A) (A) (A) (A) (A) (A) (A)
                 (A) (A) (A) (A) (A) (A) (A) (A) (A) (A) (A) (A)
                 (A) (A) (A) (A) (A) (A) (A) (A) (A) (A) (A) (A)
                 (A) (A) (A) (A) (A) (A) (A) (A) (A) (A) (A) (A)
                 (A) (A) (A) (A) (A) (A) (A) (A) (A) (A) (A) (A)
                 (A) (A) (A) (A) (A) (A) (A) (A) (A) (A) (A) (A)
                 (A) (A) (A) (A)
 The electronic state is 1-A.
 Alpha  occ. eigenvalues --  -15.53982 -11.24668 -11.24666 -11.24458 -11.22127
 Alpha  occ. eigenvalues --  -11.22068 -11.22037  -1.22993  -1.06457  -1.00603
 Alpha  occ. eigenvalues --   -0.92677  -0.84028  -0.82346  -0.74539  -0.65150
 Alpha  occ. eigenvalues --   -0.62153  -0.61743  -0.60043  -0.57266  -0.54908
 Alpha  occ. eigenvalues --   -0.52956  -0.52866  -0.49481  -0.48309  -0.46121
 Alpha  occ. eigenvalues --   -0.43924  -0.43717  -0.34833
 Alpha virt. eigenvalues --    0.14128   0.15706   0.16472   0.16606   0.19599
 Alpha virt. eigenvalues --    0.20380   0.21234   0.22396   0.22471   0.23319
 Alpha virt. eigenvalues --    0.24410   0.26207   0.27030   0.27827   0.30812
 Alpha virt. eigenvalues --    0.34962   0.35501   0.36094   0.37443   0.38423
 Alpha virt. eigenvalues --    0.39945   0.41190   0.42809   0.44815   0.47858
 Alpha virt. eigenvalues --    0.49059   0.51382   0.51632   0.55346   0.55504
 Alpha virt. eigenvalues --    0.56729   0.56998   0.59075   0.59695   0.60348
 Alpha virt. eigenvalues --    0.60460   0.62694   0.63349   0.63453   0.63897
 Alpha virt. eigenvalues --    0.64666   0.65667   0.65877   0.66960   0.66961
 Alpha virt. eigenvalues --    0.67838   0.68853   0.69862   0.69934   0.72977
 Alpha virt. eigenvalues --    0.74261   0.75540   0.78866   0.82150   0.87189
 Alpha virt. eigenvalues --    0.87591   0.88603   0.93495   0.94140   0.96353
 Alpha virt. eigenvalues --    0.97119   1.00272   1.01307   1.01929   1.03108
 Alpha virt. eigenvalues --    1.03298   1.07136   1.09347   1.10552   1.11846
 Alpha virt. eigenvalues --    1.12974   1.13264   1.16491   1.17066   1.20179
 Alpha virt. eigenvalues --    1.20861   1.21902   1.24619   1.24843   1.25314
 Alpha virt. eigenvalues --    1.29488   1.29555   1.30323   1.31001   1.32690
 Alpha virt. eigenvalues --    1.33696   1.34620   1.35311   1.37316   1.38645
 Alpha virt. eigenvalues --    1.39974   1.41130   1.41830   1.42054   1.44034
 Alpha virt. eigenvalues --    1.46780   1.47072   1.48746   1.49111   1.49766
 Alpha virt. eigenvalues --    1.50542   1.52153   1.54411   1.54771   1.56032
 Alpha virt. eigenvalues --    1.56314   1.57490   1.59589   1.60655   1.61804
 Alpha virt. eigenvalues --    1.62599   1.63652   1.64666   1.66387   1.68182
 Alpha virt. eigenvalues --    1.69176   1.70846   1.71361   1.73699   1.76756
 Alpha virt. eigenvalues --    1.77164   1.78373   1.80950   1.85608   1.90534
 Alpha virt. eigenvalues --    1.92212   1.93825   1.97792   2.00719   2.03315
 Alpha virt. eigenvalues --    2.13927   2.14927   2.17085   2.24815   2.28762
 Alpha virt. eigenvalues --    2.56251   2.59220   2.61686   2.64038   2.65859
 Alpha virt. eigenvalues --    2.67837   2.72778   2.74929   2.76315   2.80287
 Alpha virt. eigenvalues --    2.81505   2.82325   2.82456   2.85092   2.85558
 Alpha virt. eigenvalues --    2.87497   2.90539   2.92540   2.94692   2.96494
 Alpha virt. eigenvalues --    2.97229   2.98353   3.00110   3.00856   3.01673
 Alpha virt. eigenvalues --    3.02644   3.02900   3.03392   3.07253   3.09971
 Alpha virt. eigenvalues --    3.10153   3.10769   3.14756   3.15483   3.16146
 Alpha virt. eigenvalues --    3.18244   3.21344   3.21654   3.22796   3.27501
 Alpha virt. eigenvalues --    3.27605   3.28306   3.28997   3.31310   3.31369
 Alpha virt. eigenvalues --    3.34625   3.36040   3.36587   3.37330   3.37469
 Alpha virt. eigenvalues --    3.39075   3.41140   3.41304   3.42427   3.43685
 Alpha virt. eigenvalues --    3.45140   3.46502   3.47119   3.48004   3.49378
 Alpha virt. eigenvalues --    3.50026   3.51278   3.52232   3.53129   3.53718
 Alpha virt. eigenvalues --    3.55438   3.56869   3.58097   3.60437   3.60711
 Alpha virt. eigenvalues --    3.62694   3.66491   3.67310   3.69097   3.69687
 Alpha virt. eigenvalues --    3.70749   3.70949   3.72996   3.74403   3.75859
 Alpha virt. eigenvalues --    3.78796   3.79070   3.79851   3.80824   3.83327
 Alpha virt. eigenvalues --    3.85157   3.86972   3.87293   3.89722   3.94542
 Alpha virt. eigenvalues --    3.94812   3.95470   3.97114   3.97606   3.98564
 Alpha virt. eigenvalues --    4.00013   4.01943   4.02014   4.03368   4.04107
 Alpha virt. eigenvalues --    4.05014   4.07349   4.09899   4.10005   4.10592
 Alpha virt. eigenvalues --    4.10979   4.16332   4.18142   4.19539   4.19608
 Alpha virt. eigenvalues --    4.22689   4.23293   4.24464   4.26747   4.27138
 Alpha virt. eigenvalues --    4.28607   4.29446   4.31356   4.32320   4.32618
 Alpha virt. eigenvalues --    4.33995   4.35032   4.36136   4.36740   4.38189
 Alpha virt. eigenvalues --    4.41070   4.41977   4.42282   4.43616   4.45321
 Alpha virt. eigenvalues --    4.46507   4.47344   4.49376   4.50097   4.50593
 Alpha virt. eigenvalues --    4.50716   4.53608   4.55037   4.56262   4.57620
 Alpha virt. eigenvalues --    4.58108   4.61394   4.63884   4.64173   4.67315
 Alpha virt. eigenvalues --    4.68628   4.71426   4.73372   4.74549   4.75859
 Alpha virt. eigenvalues --    4.78044   4.78742   4.82840   4.82969   4.84274
 Alpha virt. eigenvalues --    4.89886   4.95145   4.96649   5.00018   5.03109
 Alpha virt. eigenvalues --    5.04442   5.06433   5.09112   5.11283   5.11777
 Alpha virt. eigenvalues --    5.15101   5.15912   5.19038   5.21180   5.22428
 Alpha virt. eigenvalues --    5.22612   5.26042   5.26509   5.27651   5.30648
 Alpha virt. eigenvalues --    5.33943   5.34769   5.37774   5.37839   5.41544
 Alpha virt. eigenvalues --    5.43840   5.46276   5.48150   5.51235   5.51423
 Alpha virt. eigenvalues --    5.52410   5.54863   5.55197   5.57336   5.61477
 Alpha virt. eigenvalues --    5.61863   5.63549   5.67400   5.67755   5.69254
 Alpha virt. eigenvalues --    5.72266   5.76871   5.77216   5.79305   5.79944
 Alpha virt. eigenvalues --    5.81289   5.83861   5.85582   5.94956   5.97130
 Alpha virt. eigenvalues --    5.97693   6.02622   6.06697   6.07659   6.11636
 Alpha virt. eigenvalues --    6.20590   6.29520   6.30210   6.33828   6.34249
 Alpha virt. eigenvalues --    6.36694   6.38238   6.38402   6.41712   6.43205
 Alpha virt. eigenvalues --    6.48463   6.50175  10.91908  12.46014  12.93740
 Alpha virt. eigenvalues --   13.35738  13.50185  13.51297  14.06835
          Condensed to atoms (all electrons):
              1          2          3          4          5          6
     1  C    4.873427   0.348992   0.348992  -0.040868  -0.040868   0.001662
     2  C    0.348992   4.848854  -0.043079   0.362266  -0.005074  -0.040468
     3  C    0.348992  -0.043079   4.848852  -0.005074   0.362266  -0.040468
     4  C   -0.040868   0.362266  -0.005074   4.729329  -0.045224   0.341479
     5  C   -0.040868  -0.005074   0.362266  -0.045224   4.729329   0.341480
     6  N    0.001662  -0.040468  -0.040468   0.341479   0.341480   6.586878
     7  C   -0.000444   0.005417   0.005417  -0.053195  -0.053196   0.355771
     8  H    0.422890  -0.039738  -0.039738  -0.001247  -0.001247  -0.000153
     9  H    0.433481  -0.036614  -0.036614   0.006155   0.006155  -0.000682
    10  H   -0.038598   0.414676  -0.002813  -0.034664   0.000373   0.003435
    11  H   -0.040027   0.430055   0.006977  -0.035516  -0.000714   0.004028
    12  H   -0.040027   0.006977   0.430055  -0.000714  -0.035516   0.004028
    13  H   -0.038598  -0.002813   0.414676   0.000373  -0.034665   0.003435
    14  H    0.007207  -0.030604  -0.001064   0.427688   0.006472  -0.031139
    15  H   -0.012109  -0.045191   0.000944   0.422818  -0.005866  -0.068228
    16  H   -0.012109   0.000944  -0.045191  -0.005867   0.422816  -0.068228
    17  H    0.007207  -0.001064  -0.030604   0.006472   0.427688  -0.031138
    18  H   -0.000670  -0.000433  -0.000433  -0.009811  -0.009812  -0.066695
    19  H    0.000114   0.000362  -0.000253  -0.007216   0.007777  -0.034887
    20  H    0.000114  -0.000253   0.000362   0.007777  -0.007216  -0.034886
              7          8          9         10         11         12
     1  C   -0.000444   0.422890   0.433481  -0.038598  -0.040027  -0.040027
     2  C    0.005417  -0.039738  -0.036614   0.414676   0.430055   0.006977
     3  C    0.005417  -0.039738  -0.036614  -0.002813   0.006977   0.430055
     4  C   -0.053195  -0.001247   0.006155  -0.034664  -0.035516  -0.000714
     5  C   -0.053196  -0.001247   0.006155   0.000373  -0.000714  -0.035516
     6  N    0.355771  -0.000153  -0.000682   0.003435   0.004028   0.004028
     7  C    4.692620  -0.000066   0.000057  -0.000084  -0.000295  -0.000295
     8  H   -0.000066   0.598506  -0.030839   0.006583  -0.004963  -0.004963
     9  H    0.000057  -0.030839   0.582702  -0.005097  -0.005037  -0.005037
    10  H   -0.000084   0.006583  -0.005097   0.597527  -0.029467   0.000070
    11  H   -0.000295  -0.004963  -0.005037  -0.029467   0.585738  -0.000255
    12  H   -0.000295  -0.004963  -0.005037   0.000070  -0.000255   0.585737
    13  H   -0.000084   0.006583  -0.005097   0.002208   0.000070  -0.029467
    14  H   -0.008253  -0.000093  -0.000264  -0.007338  -0.005049   0.000082
    15  H   -0.006047   0.002368  -0.000439   0.008754  -0.000762   0.000176
    16  H   -0.006047   0.002368  -0.000439   0.000575   0.000176  -0.000762
    17  H   -0.008253  -0.000093  -0.000264  -0.000197   0.000082  -0.005049
    18  H    0.414188   0.000017  -0.000016   0.000167   0.000065   0.000065
    19  H    0.418540   0.000004   0.000000  -0.000106  -0.000048   0.000014
    20  H    0.418540   0.000004   0.000000  -0.000032   0.000014  -0.000048
             13         14         15         16         17         18
     1  C   -0.038598   0.007207  -0.012109  -0.012109   0.007207  -0.000670
     2  C   -0.002813  -0.030604  -0.045191   0.000944  -0.001064  -0.000433
     3  C    0.414676  -0.001064   0.000944  -0.045191  -0.030604  -0.000433
     4  C    0.000373   0.427688   0.422818  -0.005867   0.006472  -0.009811
     5  C   -0.034665   0.006472  -0.005866   0.422816   0.427688  -0.009812
     6  N    0.003435  -0.031139  -0.068228  -0.068228  -0.031138  -0.066695
     7  C   -0.000084  -0.008253  -0.006047  -0.006047  -0.008253   0.414188
     8  H    0.006583  -0.000093   0.002368   0.002368  -0.000093   0.000017
     9  H   -0.005097  -0.000264  -0.000439  -0.000439  -0.000264  -0.000016
    10  H    0.002208  -0.007338   0.008754   0.000575  -0.000197   0.000167
    11  H    0.000070  -0.005049  -0.000762   0.000176   0.000082   0.000065
    12  H   -0.029467   0.000082   0.000176  -0.000762  -0.005049   0.000065
    13  H    0.597529  -0.000197   0.000575   0.008754  -0.007338   0.000167
    14  H   -0.000197   0.598943  -0.044744  -0.000640  -0.000237  -0.002260
    15  H    0.000575  -0.044744   0.666512   0.014005  -0.000640   0.016041
    16  H    0.008754  -0.000640   0.014005   0.666521  -0.044745   0.016041
    17  H   -0.007338  -0.000237  -0.000640  -0.044745   0.598946  -0.002260
    18  H    0.000167  -0.002260   0.016041   0.016041  -0.002260   0.684264
    19  H   -0.000032   0.003510  -0.002475  -0.000869   0.000320  -0.046598
    20  H   -0.000106   0.000320  -0.000869  -0.002475   0.003510  -0.046598
             19         20
     1  C    0.000114   0.000114
     2  C    0.000362  -0.000253
     3  C   -0.000253   0.000362
     4  C   -0.007216   0.007777
     5  C    0.007777  -0.007216
     6  N   -0.034887  -0.034886
     7  C    0.418540   0.418540
     8  H    0.000004   0.000004
     9  H    0.000000   0.000000
    10  H   -0.000106  -0.000032
    11  H   -0.000048   0.000014
    12  H    0.000014  -0.000048
    13  H   -0.000032  -0.000106
    14  H    0.003510   0.000320
    15  H   -0.002475  -0.000869
    16  H   -0.000869  -0.002475
    17  H    0.000320   0.003510
    18  H   -0.046598  -0.046598
    19  H    0.599605  -0.025643
    20  H   -0.025643   0.599604
 Mulliken atomic charges:
              1
     1  C   -0.179769
     2  C   -0.173211
     3  C   -0.173210
     4  C   -0.064961
     5  C   -0.064958
     6  N   -0.225224
     7  C   -0.174292
     8  H    0.083816
     9  H    0.097891
    10  H    0.084029
    11  H    0.094928
    12  H    0.094929
    13  H    0.084029
    14  H    0.087658
    15  H    0.055179
    16  H    0.055173
    17  H    0.087656
    18  H    0.054571
    19  H    0.087882
    20  H    0.087883
 Sum of Mulliken atomic charges =   0.00000
 Mulliken charges with hydrogens summed into heavy atoms:
              1
     1  C    0.001938
     2  C    0.005746
     3  C    0.005748
     4  C    0.077876
     5  C    0.077871
     6  N   -0.225224
     7  C    0.056044
 Sum of Mulliken charges with hydrogens summed into heavy atoms =   0.00000
 Electronic spatial extent (au):  <R**2>=            821.3371
 Charge=              0.0000 electrons
 Dipole moment (field-independent basis, Debye):
    X=             -0.0604    Y=              0.0000    Z=              0.4892  Tot=              0.4929
 Quadrupole moment (field-independent basis, Debye-Ang):
   XX=            -45.6600   YY=            -45.3420   ZZ=            -47.7889
   XY=              0.0000   XZ=              0.2636   YZ=              0.0000
 Traceless Quadrupole moment (field-independent basis, Debye-Ang):
   XX=              0.6036   YY=              0.9216   ZZ=             -1.5252
   XY=              0.0000   XZ=              0.2636   YZ=              0.0000
 Octapole moment (field-independent basis, Debye-Ang**2):
  XXX=              5.1766  YYY=              0.0000  ZZZ=             -0.2535  XYY=              2.1550
  XXY=              0.0000  XXZ=             -2.4747  XZZ=             -1.1835  YZZ=             -0.0001
  YYZ=             -1.7136  XYZ=              0.0000
 Hexadecapole moment (field-independent basis, Debye-Ang**3):
 XXXX=           -673.1599 YYYY=           -356.8468 ZZZZ=           -112.1416 XXXY=              0.0001
 XXXZ=             -4.5337 YYYX=              0.0000 YYYZ=              0.0000 ZZZX=              1.4039
 ZZZY=             -0.0001 XXYY=           -169.9820 XXZZ=           -134.0679 YYZZ=            -80.2191
 XXYZ=              0.0000 YYXZ=             -5.9934 ZZXY=              0.0000
 N-N= 3.334029085641D+02 E-N=-1.340154620277D+03  KE= 2.885497661926D+02
 1\1\GINC-ROCK\SP\RMP2-FC\CC-pVTZ\C6H13N1\STYLIANAKIS\04-Jun-2016\0\\# 
 mp2/cc-pVTZ\\N-Methylo piperidine ch-eq-nlp.hin\\0,1\C,0,-2.49051,-0.5
 7129,-0.92952\C,0,-2.48258,0.96146,-0.91957\C,0,-1.74809,-1.08474,0.30
 929\C,0,-1.04551,1.49074,-0.81058\C,0,-0.33609,-0.48562,0.37634\N,0,-0
 .36832,0.96781,0.36483\C,0,0.95675,1.53933,0.52449\H,0,-1.98567,-0.944
 35,-1.85245\H,0,-3.53864,-0.95601,-0.94366\H,0,-3.08043,1.33101,-0.052
 12\H,0,-2.96854,1.35244,-1.84588\H,0,-1.69341,-2.19991,0.28752\H,0,-2.
 31548,-0.80004,1.2277\H,0,-1.08356,2.60422,-0.74927\H,0,-0.47523,1.222
 54,-1.73202\H,0,0.27299,-0.86188,-0.48021\H,0,0.15137,-0.83614,1.31686
 \H,0,1.62351,1.26757,-0.32655\H,0,0.89136,2.64907,0.59355\H,0,1.41755,
 1.18317,1.4739\\Version=EM64L-G09RevA.01\State=1-A\HF=-289.3107107\MP2
 =-290.5653884\RMSD=7.942e-09\PG=C01 [X(C6H13N1)]\\@


 The mind is not a vessel to be filled but a fire to be kindled.
                                  -- Plutarch
 Job cpu time:  0 days  1 hours 52 minutes 14.4 seconds.
 File lengths (MBytes):  RWF=     86 Int=      0 D2E=      0 Chk=      8 Scr=      1
 Normal termination of Gaussian 09 at Sat Jun  4 17:21:29 2016.
