 Entering Gaussian System, Link 0=g09
 Input=15.gjf
 Output=15.out
 Initial command:
 /usr/local/g09/l1.exe /home/scratch/stylianakis/Gau-5466.inp -scrdir=/home/scratch/stylianakis/
 Entering Link 1 = /usr/local/g09/l1.exe PID=      5467.
  
 Copyright (c) 1988,1990,1992,1993,1995,1998,2003,2009, Gaussian, Inc.
                  All Rights Reserved.
  
 This is part of the Gaussian(R) 09 program.  It is based on
 the Gaussian(R) 03 system (copyright 2003, Gaussian, Inc.),
 the Gaussian(R) 98 system (copyright 1998, Gaussian, Inc.),
 the Gaussian(R) 94 system (copyright 1995, Gaussian, Inc.),
 the Gaussian 92(TM) system (copyright 1992, Gaussian, Inc.),
 the Gaussian 90(TM) system (copyright 1990, Gaussian, Inc.),
 the Gaussian 88(TM) system (copyright 1988, Gaussian, Inc.),
 the Gaussian 86(TM) system (copyright 1986, Carnegie Mellon
 University), and the Gaussian 82(TM) system (copyright 1983,
 Carnegie Mellon University). Gaussian is a federally registered
 trademark of Gaussian, Inc.
  
 This software contains proprietary and confidential information,
 including trade secrets, belonging to Gaussian, Inc.
  
 This software is provided under written license and may be
 used, copied, transmitted, or stored only in accord with that
 written license.
  
 The following legend is applicable only to US Government
 contracts under FAR:
  
                    RESTRICTED RIGHTS LEGEND
  
 Use, reproduction and disclosure by the US Government is
 subject to restrictions as set forth in subparagraphs (a)
 and (c) of the Commercial Computer Software - Restricted
 Rights clause in FAR 52.227-19.
  
 Gaussian, Inc.
 340 Quinnipiac St., Bldg. 40, Wallingford CT 06492
  
  
 ---------------------------------------------------------------
 Warning -- This program may not be used in any manner that
 competes with the business of Gaussian, Inc. or will provide
 assistance to any competitor of Gaussian, Inc.  The licensee
 of this program is prohibited from giving any competitor of
 Gaussian, Inc. access to this program.  By using this program,
 the user acknowledges that Gaussian, Inc. is engaged in the
 business of creating and licensing software in the field of
 computational chemistry and represents and warrants to the
 licensee that it is not a competitor of Gaussian, Inc. and that
 it will not use this program in any manner prohibited above.
 ---------------------------------------------------------------
  

 Cite this work as:
 Gaussian 09, Revision A.01,
 M. J. Frisch, G. W. Trucks, H. B. Schlegel, G. E. Scuseria, 
 M. A. Robb, J. R. Cheeseman, G. Scalmani, V. Barone, B. Mennucci, 
 G. A. Petersson, H. Nakatsuji, M. Caricato, X. Li, H. P. Hratchian, 
 A. F. Izmaylov, J. Bloino, G. Zheng, J. L. Sonnenberg, M. Hada, 
 M. Ehara, K. Toyota, R. Fukuda, J. Hasegawa, M. Ishida, T. Nakajima, 
 Y. Honda, O. Kitao, H. Nakai, T. Vreven, J. A. Montgomery, Jr., 
 J. E. Peralta, F. Ogliaro, M. Bearpark, J. J. Heyd, E. Brothers, 
 K. N. Kudin, V. N. Staroverov, R. Kobayashi, J. Normand, 
 K. Raghavachari, A. Rendell, J. C. Burant, S. S. Iyengar, J. Tomasi, 
 M. Cossi, N. Rega, J. M. Millam, M. Klene, J. E. Knox, J. B. Cross, 
 V. Bakken, C. Adamo, J. Jaramillo, R. Gomperts, R. E. Stratmann, 
 O. Yazyev, A. J. Austin, R. Cammi, C. Pomelli, J. W. Ochterski, 
 R. L. Martin, K. Morokuma, V. G. Zakrzewski, G. A. Voth, 
 P. Salvador, J. J. Dannenberg, S. Dapprich, A. D. Daniels, 
 O. Farkas, J. B. Foresman, J. V. Ortiz, J. Cioslowski, 
 and D. J. Fox, Gaussian, Inc., Wallingford CT, 2009.
 
 ******************************************
 Gaussian 09:  EM64L-G09RevA.01  8-May-2009
                 4-Jun-2016 
 ******************************************
 %mem=8000Mb
 %nproc=8
 Will use up to    8 processors via shared memory.
 -------------
 # mp2/cc-pVTZ
 -------------
 1/38=1/1;
 2/12=2,17=6,18=5,40=1/2;
 3/5=16,6=1,11=9,16=1,25=1,30=1/1,2,3;
 4//1;
 5/5=2,38=5/2;
 8/10=1/1;
 9/16=-3/6;
 6/7=2,8=2,9=2,10=2/1;
 99/5=1,9=1/99;
 ------------------------
 N-Methylazetidine-NI.hin
 ------------------------
 Symbolic Z-matrix:
 Charge =  0 Multiplicity = 1
 N                    -0.44508   0.66035  -0.12496 
 C                    -1.81464  -0.74315  -0.25752 
 C                    -1.84657   0.81248  -0.38565 
 C                    -0.275    -0.75758   0.00079 
 H                    -2.09956  -1.26137  -1.20432 
 H                    -2.4026   -1.11698   0.61476 
 H                    -2.3648    1.34617   0.44441 
 H                     0.34229  -1.17075  -0.83021 
 H                     0.02998  -1.0463    1.03327 
 C                     0.54869   1.6789   -0.02926 
 H                    -2.03152   1.20079  -1.41392 
 H                     1.356     1.3576    0.66688 
 H                     0.09291   2.61936   0.35466 
 H                     0.98333   1.86461  -1.03715 
 
                          Input orientation:                          
 ---------------------------------------------------------------------
 Center     Atomic      Atomic             Coordinates (Angstroms)
 Number     Number       Type             X           Y           Z
 ---------------------------------------------------------------------
      1          7           0       -0.445080    0.660350   -0.124960
      2          6           0       -1.814640   -0.743150   -0.257520
      3          6           0       -1.846570    0.812480   -0.385650
      4          6           0       -0.275000   -0.757580    0.000790
      5          1           0       -2.099560   -1.261370   -1.204320
      6          1           0       -2.402600   -1.116980    0.614760
      7          1           0       -2.364800    1.346170    0.444410
      8          1           0        0.342290   -1.170750   -0.830210
      9          1           0        0.029980   -1.046300    1.033270
     10          6           0        0.548690    1.678900   -0.029260
     11          1           0       -2.031520    1.200790   -1.413920
     12          1           0        1.356000    1.357600    0.666880
     13          1           0        0.092910    2.619360    0.354660
     14          1           0        0.983330    1.864610   -1.037150
 ---------------------------------------------------------------------
                    Distance matrix (angstroms):
                    1          2          3          4          5
     1  N    0.000000
     2  C    1.965472   0.000000
     3  C    1.433624   1.561224   0.000000
     4  C    1.433620   1.561225   2.254830   0.000000
     5  H    2.755963   1.116316   2.243898   2.243906   0.000000
     6  H    2.745537   1.116386   2.243391   2.243392   1.849793
     7  H    2.116567   2.271704   1.114624   2.998304   3.096438
     8  H    2.114298   2.272259   2.986962   1.114593   2.472004
     9  H    2.116562   2.271709   2.998306   1.114624   3.096450
    10  C    1.426247   3.391719   2.571958   2.572120   4.127854
    11  H    2.114305   2.272268   1.114599   2.986968   2.472002
    12  H    2.087357   3.914157   3.414884   2.752785   4.722424
    13  H    2.087388   3.914075   2.752173   3.415305   4.722013
    14  H    2.079107   3.903444   3.088651   3.088138   4.393621
                    6          7          8          9         10
     6  H    0.000000
     7  H    2.469323   0.000000
     8  H    3.102459   3.909972   0.000000
     9  H    2.469330   3.435934   1.893564   0.000000
    10  C    4.116044   2.970437   2.967259   2.970647   0.000000
    11  H    3.102467   1.893568   3.405862   3.909979   2.967045
    12  H    4.500371   3.727462   3.108286   2.769712   1.113371
    13  H    4.500606   2.769369   3.978824   3.728476   1.113371
    14  H    4.804499   3.697807   3.109207   3.697149   1.113213
                   11         12         13         14
    11  H    0.000000
    12  H    3.978644   0.000000
    13  H    3.106995   1.812434   0.000000
    14  H    3.109973   1.816497   1.816488   0.000000
 Stoichiometry    C4H9N
 Framework group  C1[X(C4H9N)]
 Deg. of freedom    36
 Full point group                 C1      NOp   1
 Largest Abelian subgroup         C1      NOp   1
 Largest concise Abelian subgroup C1      NOp   1
                         Standard orientation:                         
 ---------------------------------------------------------------------
 Center     Atomic      Atomic             Coordinates (Angstroms)
 Number     Number       Type             X           Y           Z
 ---------------------------------------------------------------------
      1          7           0       -0.421719   -0.000088   -0.003218
      2          6           0        1.543752    0.000105   -0.004788
      3          6           0        0.463698    1.127415    0.003955
      4          6           0        0.463916   -1.127415    0.003957
      5          1           0        2.176928    0.000174    0.914588
      6          1           0        2.160820    0.000165   -0.935135
      7          1           0        0.386916    1.717958   -0.938250
      8          1           0        0.385680   -1.702935    0.955257
      9          1           0        0.387243   -1.717976   -0.938246
     10          6           0       -1.847965   -0.000038   -0.001612
     11          1           0        0.385343    1.702927    0.955258
     12          1           0       -2.228353   -0.905785   -0.525560
     13          1           0       -2.228334    0.906648   -0.523947
     14          1           0       -2.214622   -0.000961    1.049485
 ---------------------------------------------------------------------
 Rotational constants (GHZ):      9.9173374      4.6254141      3.4564670
 Standard basis: CC-pVTZ (5D, 7F)
 There are   276 symmetry adapted basis functions of A   symmetry.
 Integral buffers will be    131072 words long.
 Raffenetti 1 integral format.
 Two-electron integral symmetry is turned on.
   276 basis functions,   413 primitive gaussians,   310 cartesian basis functions
    20 alpha electrons       20 beta electrons
       nuclear repulsion energy       188.2465510463 Hartrees.
 NAtoms=   14 NActive=   14 NUniq=   14 SFac= 7.50D-01 NAtFMM=   80 NAOKFM=F Big=F
 One-electron integrals computed using PRISM.
 NBasis=   276 RedAO= T  NBF=   276
 NBsUse=   276 1.00D-06 NBFU=   276
 Harris functional with IExCor=  205 diagonalized for initial guess.
 ExpMin= 1.03D-01 ExpMax= 1.14D+04 ExpMxC= 3.89D+02 IAcc=1 IRadAn=         1 AccDes= 0.00D+00
 HarFok:  IExCor=  205 AccDes= 0.00D+00 IRadAn=         1 IDoV= 1
 ScaDFX=  1.000000  1.000000  1.000000  1.000000
 FoFCou: FMM=F IPFlag=           0 FMFlag=      100000 FMFlg1=           0
         NFxFlg=           0 DoJE=T BraDBF=F KetDBF=T FulRan=T
         Omega=  0.000000  0.000000  1.000000  0.000000  0.000000 ICntrl=     500 IOpCl=  0
         NMat0=    1 NMatS0=    1 NMatT0=    0 NMatD0=    1 NMtDS0=    0 NMtDT0=    0
         I1Cent=           4 NGrid=           0.
 Petite list used in FoFCou.
 Initial guess orbital symmetries:
       Occupied  (A) (A) (A) (A) (A) (A) (A) (A) (A) (A) (A) (A)
                 (A) (A) (A) (A) (A) (A) (A) (A)
       Virtual   (A) (A) (A) (A) (A) (A) (A) (A) (A) (A) (A) (A)
                 (A) (A) (A) (A) (A) (A) (A) (A) (A) (A) (A) (A)
                 (A) (A) (A) (A) (A) (A) (A) (A) (A) (A) (A) (A)
                 (A) (A) (A) (A) (A) (A) (A) (A) (A) (A) (A) (A)
                 (A) (A) (A) (A) (A) (A) (A) (A) (A) (A) (A) (A)
                 (A) (A) (A) (A) (A) (A) (A) (A) (A) (A) (A) (A)
                 (A) (A) (A) (A) (A) (A) (A) (A) (A) (A) (A) (A)
                 (A) (A) (A) (A) (A) (A) (A) (A) (A) (A) (A) (A)
                 (A) (A) (A) (A) (A) (A) (A) (A) (A) (A) (A) (A)
                 (A) (A) (A) (A) (A) (A) (A) (A) (A) (A) (A) (A)
                 (A) (A) (A) (A) (A) (A) (A) (A) (A) (A) (A) (A)
                 (A) (A) (A) (A) (A) (A) (A) (A) (A) (A) (A) (A)
                 (A) (A) (A) (A) (A) (A) (A) (A) (A) (A) (A) (A)
                 (A) (A) (A) (A) (A) (A) (A) (A) (A) (A) (A) (A)
                 (A) (A) (A) (A) (A) (A) (A) (A) (A) (A) (A) (A)
                 (A) (A) (A) (A) (A) (A) (A) (A) (A) (A) (A) (A)
                 (A) (A) (A) (A) (A) (A) (A) (A) (A) (A) (A) (A)
                 (A) (A) (A) (A) (A) (A) (A) (A) (A) (A) (A) (A)
                 (A) (A) (A) (A) (A) (A) (A) (A) (A) (A) (A) (A)
                 (A) (A) (A) (A) (A) (A) (A) (A) (A) (A) (A) (A)
                 (A) (A) (A) (A) (A) (A) (A) (A) (A) (A) (A) (A)
                 (A) (A) (A) (A)
 The electronic state of the initial guess is 1-A.
 Requested convergence on RMS density matrix=1.00D-08 within 128 cycles.
 Requested convergence on MAX density matrix=1.00D-06.
 Requested convergence on             energy=1.00D-06.
 No special actions if energy rises.
 Integral accuracy reduced to 1.0D-05 until final iterations.
 Initial convergence to 1.0D-05 achieved.  Increase integral accuracy.
 SCF Done:  E(RHF) =  -211.154080610     A.U. after   11 cycles
             Convg  =    0.7674D-08             -V/T =  2.0020
 ExpMin= 1.03D-01 ExpMax= 1.14D+04 ExpMxC= 3.89D+02 IAcc=1 IRadAn=         1 AccDes= 0.00D+00
 HarFok:  IExCor=  205 AccDes= 0.00D+00 IRadAn=         1 IDoV=-2
 ScaDFX=  1.000000  1.000000  1.000000  1.000000
 Range of M.O.s used for correlation:     6   276
 NBasis=   276 NAE=    20 NBE=    20 NFC=     5 NFV=     0
 NROrb=    271 NOA=    15 NOB=    15 NVA=   256 NVB=   256

 **** Warning!!: The largest alpha MO coefficient is  0.12100359D+02

 Fully direct method using O(OVN) memory.
 JobTyp=1 Pass  1:  I=   1 to  15 NPSUse=  8 ParTrn=T ParDer=T DoDerP=F.
 Spin components of T(2) and E(2):
     alpha-alpha T2 =       0.3343147559D-01 E2=     -0.1031773156D+00
     alpha-beta  T2 =       0.2074237268D+00 E2=     -0.6938478205D+00
     beta-beta   T2 =       0.3343147559D-01 E2=     -0.1031773156D+00
 ANorm=    0.1128843071D+01
 E2 =    -0.9002024517D+00 EUMP2 =    -0.21205428306179D+03

 **********************************************************************

            Population analysis using the SCF density.

 **********************************************************************

 Orbital symmetries:
       Occupied  (A) (A) (A) (A) (A) (A) (A) (A) (A) (A) (A) (A)
                 (A) (A) (A) (A) (A) (A) (A) (A)
       Virtual   (A) (A) (A) (A) (A) (A) (A) (A) (A) (A) (A) (A)
                 (A) (A) (A) (A) (A) (A) (A) (A) (A) (A) (A) (A)
                 (A) (A) (A) (A) (A) (A) (A) (A) (A) (A) (A) (A)
                 (A) (A) (A) (A) (A) (A) (A) (A) (A) (A) (A) (A)
                 (A) (A) (A) (A) (A) (A) (A) (A) (A) (A) (A) (A)
                 (A) (A) (A) (A) (A) (A) (A) (A) (A) (A) (A) (A)
                 (A) (A) (A) (A) (A) (A) (A) (A) (A) (A) (A) (A)
                 (A) (A) (A) (A) (A) (A) (A) (A) (A) (A) (A) (A)
                 (A) (A) (A) (A) (A) (A) (A) (A) (A) (A) (A) (A)
                 (A) (A) (A) (A) (A) (A) (A) (A) (A) (A) (A) (A)
                 (A) (A) (A) (A) (A) (A) (A) (A) (A) (A) (A) (A)
                 (A) (A) (A) (A) (A) (A) (A) (A) (A) (A) (A) (A)
                 (A) (A) (A) (A) (A) (A) (A) (A) (A) (A) (A) (A)
                 (A) (A) (A) (A) (A) (A) (A) (A) (A) (A) (A) (A)
                 (A) (A) (A) (A) (A) (A) (A) (A) (A) (A) (A) (A)
                 (A) (A) (A) (A) (A) (A) (A) (A) (A) (A) (A) (A)
                 (A) (A) (A) (A) (A) (A) (A) (A) (A) (A) (A) (A)
                 (A) (A) (A) (A) (A) (A) (A) (A) (A) (A) (A) (A)
                 (A) (A) (A) (A) (A) (A) (A) (A) (A) (A) (A) (A)
                 (A) (A) (A) (A) (A) (A) (A) (A) (A) (A) (A) (A)
                 (A) (A) (A) (A) (A) (A) (A) (A) (A) (A) (A) (A)
                 (A) (A) (A) (A)
 The electronic state is 1-A.
 Alpha  occ. eigenvalues --  -15.51727 -11.24855 -11.24853 -11.24044 -11.23220
 Alpha  occ. eigenvalues --   -1.24818  -1.01352  -0.92349  -0.85635  -0.72765
 Alpha  occ. eigenvalues --   -0.67077  -0.64398  -0.60044  -0.56506  -0.55496
 Alpha  occ. eigenvalues --   -0.49380  -0.49328  -0.47181  -0.43299  -0.31441
 Alpha virt. eigenvalues --    0.13623   0.15905   0.18384   0.18440   0.20937
 Alpha virt. eigenvalues --    0.20954   0.22449   0.23889   0.24796   0.25800
 Alpha virt. eigenvalues --    0.30145   0.30162   0.32991   0.33542   0.40997
 Alpha virt. eigenvalues --    0.41962   0.43690   0.44414   0.45755   0.53790
 Alpha virt. eigenvalues --    0.54842   0.55582   0.56228   0.57555   0.60381
 Alpha virt. eigenvalues --    0.61004   0.61851   0.62312   0.63705   0.64488
 Alpha virt. eigenvalues --    0.64579   0.65660   0.67527   0.69935   0.71748
 Alpha virt. eigenvalues --    0.71922   0.75514   0.80783   0.81916   0.82931
 Alpha virt. eigenvalues --    0.89997   0.94320   0.95339   0.98271   0.99639
 Alpha virt. eigenvalues --    1.03839   1.04814   1.05989   1.11325   1.11998
 Alpha virt. eigenvalues --    1.12164   1.16135   1.17364   1.18424   1.21173
 Alpha virt. eigenvalues --    1.21854   1.22751   1.23331   1.25515   1.28229
 Alpha virt. eigenvalues --    1.28671   1.33088   1.35057   1.35903   1.36025
 Alpha virt. eigenvalues --    1.39927   1.40430   1.43835   1.44429   1.44813
 Alpha virt. eigenvalues --    1.48770   1.49820   1.50977   1.51381   1.53045
 Alpha virt. eigenvalues --    1.53270   1.54230   1.58223   1.59593   1.62551
 Alpha virt. eigenvalues --    1.65287   1.65456   1.69054   1.73184   1.73899
 Alpha virt. eigenvalues --    1.75255   1.77829   1.79756   1.86896   1.99804
 Alpha virt. eigenvalues --    2.04898   2.07271   2.11275   2.18702   2.19125
 Alpha virt. eigenvalues --    2.42455   2.54601   2.57053   2.66220   2.69313
 Alpha virt. eigenvalues --    2.69754   2.77812   2.81101   2.81946   2.82445
 Alpha virt. eigenvalues --    2.85331   2.89322   2.91658   2.93477   2.95767
 Alpha virt. eigenvalues --    2.96749   3.01253   3.02708   3.03713   3.06146
 Alpha virt. eigenvalues --    3.07291   3.11077   3.13700   3.14636   3.15110
 Alpha virt. eigenvalues --    3.15930   3.19347   3.22874   3.23737   3.26013
 Alpha virt. eigenvalues --    3.28140   3.31767   3.32565   3.33432   3.36298
 Alpha virt. eigenvalues --    3.36749   3.37996   3.38583   3.41203   3.42142
 Alpha virt. eigenvalues --    3.42802   3.46160   3.47056   3.48760   3.51281
 Alpha virt. eigenvalues --    3.54839   3.59939   3.60812   3.64029   3.65368
 Alpha virt. eigenvalues --    3.66385   3.68195   3.68948   3.71028   3.73341
 Alpha virt. eigenvalues --    3.73559   3.75190   3.75321   3.77786   3.79973
 Alpha virt. eigenvalues --    3.81726   3.83097   3.83963   3.85256   3.88612
 Alpha virt. eigenvalues --    3.90441   3.95078   3.96260   3.97845   3.97902
 Alpha virt. eigenvalues --    4.00297   4.00351   4.04774   4.08164   4.11147
 Alpha virt. eigenvalues --    4.12138   4.16066   4.18457   4.21116   4.22348
 Alpha virt. eigenvalues --    4.23029   4.25774   4.25850   4.29703   4.30216
 Alpha virt. eigenvalues --    4.31838   4.36821   4.37819   4.37981   4.40837
 Alpha virt. eigenvalues --    4.43196   4.43649   4.46772   4.48028   4.48744
 Alpha virt. eigenvalues --    4.49529   4.49585   4.50865   4.55208   4.56423
 Alpha virt. eigenvalues --    4.57640   4.59965   4.65149   4.69676   4.72754
 Alpha virt. eigenvalues --    4.74943   4.78420   4.84942   4.85401   4.94965
 Alpha virt. eigenvalues --    5.00102   5.01819   5.07972   5.08268   5.11326
 Alpha virt. eigenvalues --    5.19500   5.20091   5.21257   5.21961   5.24456
 Alpha virt. eigenvalues --    5.25571   5.26574   5.33371   5.35168   5.36591
 Alpha virt. eigenvalues --    5.39306   5.40154   5.45462   5.46103   5.48100
 Alpha virt. eigenvalues --    5.51978   5.55056   5.56073   5.58919   5.61268
 Alpha virt. eigenvalues --    5.67303   5.67915   5.70812   5.75615   5.79555
 Alpha virt. eigenvalues --    5.86978   5.92482   5.94422   5.98857   6.01516
 Alpha virt. eigenvalues --    6.11425   6.14697   6.19460   6.21701   6.22974
 Alpha virt. eigenvalues --    6.30232   6.35622   6.39838   6.42099   6.55121
 Alpha virt. eigenvalues --    6.55595  11.71990  12.57022  13.10186  13.80207
 Alpha virt. eigenvalues --   14.09682
          Condensed to atoms (all electrons):
              1          2          3          4          5          6
     1  N    6.616746  -0.166860   0.382151   0.382128   0.007898   0.007954
     2  C   -0.166860   4.927344   0.334126   0.334151   0.413353   0.413409
     3  C    0.382151   0.334126   4.747927  -0.077714  -0.031885  -0.031403
     4  C    0.382128   0.334151  -0.077714   4.747882  -0.031885  -0.031404
     5  H    0.007898   0.413353  -0.031885  -0.031885   0.577412  -0.023030
     6  H    0.007954   0.413409  -0.031403  -0.031404  -0.023030   0.576103
     7  H   -0.063515  -0.024681   0.415256   0.005641   0.003035  -0.006081
     8  H   -0.066542  -0.027805   0.005898   0.411914  -0.005319   0.003308
     9  H   -0.063517  -0.024680   0.005642   0.415261   0.003035  -0.006081
    10  C    0.346344   0.027445  -0.063789  -0.063771  -0.001437  -0.001454
    11  H   -0.066546  -0.027800   0.411916   0.005897  -0.005319   0.003308
    12  H   -0.042245  -0.000390   0.005987  -0.008038   0.000031   0.000058
    13  H   -0.042174  -0.000389  -0.008050   0.005990   0.000031   0.000058
    14  H   -0.074175  -0.001173  -0.000682  -0.000700   0.000137   0.000052
              7          8          9         10         11         12
     1  N   -0.063515  -0.066542  -0.063517   0.346344  -0.066546  -0.042245
     2  C   -0.024681  -0.027805  -0.024680   0.027445  -0.027800  -0.000390
     3  C    0.415256   0.005898   0.005642  -0.063789   0.411916   0.005987
     4  C    0.005641   0.411914   0.415261  -0.063771   0.005897  -0.008038
     5  H    0.003035  -0.005319   0.003035  -0.001437  -0.005319   0.000031
     6  H   -0.006081   0.003308  -0.006081  -0.001454   0.003308   0.000058
     7  H    0.662946  -0.002880   0.004235  -0.004090  -0.066838   0.001594
     8  H   -0.002880   0.674885  -0.066830  -0.000309   0.005095  -0.004354
     9  H    0.004235  -0.066830   0.662923  -0.004087  -0.002880   0.007607
    10  C   -0.004090  -0.000309  -0.004087   4.682385  -0.000308   0.406740
    11  H   -0.066838   0.005095  -0.002880  -0.000308   0.674901  -0.001372
    12  H    0.001594  -0.004354   0.007607   0.406740  -0.001372   0.630136
    13  H    0.007592  -0.001368   0.001586   0.406759  -0.004351  -0.017964
    14  H   -0.003064   0.008449  -0.003067   0.425169   0.008439  -0.053015
             13         14
     1  N   -0.042174  -0.074175
     2  C   -0.000389  -0.001173
     3  C   -0.008050  -0.000682
     4  C    0.005990  -0.000700
     5  H    0.000031   0.000137
     6  H    0.000058   0.000052
     7  H    0.007592  -0.003064
     8  H   -0.001368   0.008449
     9  H    0.001586  -0.003067
    10  C    0.406759   0.425169
    11  H   -0.004351   0.008439
    12  H   -0.017964  -0.053015
    13  H    0.629970  -0.052957
    14  H   -0.052957   0.679616
 Mulliken atomic charges:
              1
     1  N   -0.157649
     2  C   -0.176048
     3  C   -0.095378
     4  C   -0.095353
     5  H    0.093945
     6  H    0.095201
     7  H    0.070850
     8  H    0.065858
     9  H    0.070852
    10  C   -0.155595
    11  H    0.065856
    12  H    0.075224
    13  H    0.075267
    14  H    0.066970
 Sum of Mulliken atomic charges =   0.00000
 Mulliken charges with hydrogens summed into heavy atoms:
              1
     1  N   -0.157649
     2  C    0.013098
     3  C    0.041328
     4  C    0.041357
    10  C    0.061866
 Sum of Mulliken charges with hydrogens summed into heavy atoms =   0.00000
 Electronic spatial extent (au):  <R**2>=            426.9904
 Charge=              0.0000 electrons
 Dipole moment (field-independent basis, Debye):
    X=              0.1175    Y=              0.0003    Z=             -0.0970  Tot=              0.1524
 Quadrupole moment (field-independent basis, Debye-Ang):
   XX=            -33.4167   YY=            -32.9229   ZZ=            -32.4454
   XY=             -0.0012   XZ=              0.2742   YZ=              0.0000
 Traceless Quadrupole moment (field-independent basis, Debye-Ang):
   XX=             -0.4883   YY=              0.0055   ZZ=              0.4829
   XY=             -0.0012   XZ=              0.2742   YZ=              0.0000
 Octapole moment (field-independent basis, Debye-Ang**2):
  XXX=             -1.8180  YYY=              0.0013  ZZZ=              0.2023  XYY=             -1.6184
  XXY=              0.0028  XXZ=             -0.9791  XZZ=              1.2197  YZZ=             -0.0010
  YYZ=             -0.6968  XYZ=              0.0001
 Hexadecapole moment (field-independent basis, Debye-Ang**3):
 XXXX=           -367.4070 YYYY=           -184.7406 ZZZZ=            -65.1915 XXXY=             -0.0079
 XXXZ=              2.5802 YYYX=             -0.0055 YYYZ=             -0.0002 ZZZX=             -0.6555
 ZZZY=              0.0001 XXYY=            -89.6672 XXZZ=            -68.3334 YYZZ=            -38.4747
 XXYZ=             -0.0001 YYXZ=              1.3079 ZZXY=              0.0023
 N-N= 1.882465510463D+02 E-N=-8.685392576476D+02  KE= 2.107333620456D+02
 1\1\GINC-ROCK\SP\RMP2-FC\CC-pVTZ\C4H9N1\STYLIANAKIS\04-Jun-2016\0\\# m
 p2/cc-pVTZ\\N-Methylazetidine-NI.hin\\0,1\N,0,-0.44508,0.66035,-0.1249
 6\C,0,-1.81464,-0.74315,-0.25752\C,0,-1.84657,0.81248,-0.38565\C,0,-0.
 275,-0.75758,0.00079\H,0,-2.09956,-1.26137,-1.20432\H,0,-2.4026,-1.116
 98,0.61476\H,0,-2.3648,1.34617,0.44441\H,0,0.34229,-1.17075,-0.83021\H
 ,0,0.02998,-1.0463,1.03327\C,0,0.54869,1.6789,-0.02926\H,0,-2.03152,1.
 20079,-1.41392\H,0,1.356,1.3576,0.66688\H,0,0.09291,2.61936,0.35466\H,
 0,0.98333,1.86461,-1.03715\\Version=EM64L-G09RevA.01\State=1-A\HF=-211
 .1540806\MP2=-212.0542831\RMSD=7.674e-09\PG=C01 [X(C4H9N1)]\\@


 In the beginning the Universe was created.
 This has made a lot of people very angry
 and been widely regarded as a bad move.
                               -D.Adams
 Job cpu time:  0 days  0 hours 33 minutes 38.3 seconds.
 File lengths (MBytes):  RWF=     46 Int=      0 D2E=      0 Chk=      4 Scr=      1
 Normal termination of Gaussian 09 at Sat Jun  4 18:02:15 2016.
