 Entering Gaussian System, Link 0=g09
 Input=20.gjf
 Output=20.out
 Initial command:
 /usr/local/g09/l1.exe /home/scratch/stylianakis/Gau-21624.inp -scrdir=/home/scratch/stylianakis/
 Entering Link 1 = /usr/local/g09/l1.exe PID=     21625.
  
 Copyright (c) 1988,1990,1992,1993,1995,1998,2003,2009, Gaussian, Inc.
                  All Rights Reserved.
  
 This is part of the Gaussian(R) 09 program.  It is based on
 the Gaussian(R) 03 system (copyright 2003, Gaussian, Inc.),
 the Gaussian(R) 98 system (copyright 1998, Gaussian, Inc.),
 the Gaussian(R) 94 system (copyright 1995, Gaussian, Inc.),
 the Gaussian 92(TM) system (copyright 1992, Gaussian, Inc.),
 the Gaussian 90(TM) system (copyright 1990, Gaussian, Inc.),
 the Gaussian 88(TM) system (copyright 1988, Gaussian, Inc.),
 the Gaussian 86(TM) system (copyright 1986, Carnegie Mellon
 University), and the Gaussian 82(TM) system (copyright 1983,
 Carnegie Mellon University). Gaussian is a federally registered
 trademark of Gaussian, Inc.
  
 This software contains proprietary and confidential information,
 including trade secrets, belonging to Gaussian, Inc.
  
 This software is provided under written license and may be
 used, copied, transmitted, or stored only in accord with that
 written license.
  
 The following legend is applicable only to US Government
 contracts under FAR:
  
                    RESTRICTED RIGHTS LEGEND
  
 Use, reproduction and disclosure by the US Government is
 subject to restrictions as set forth in subparagraphs (a)
 and (c) of the Commercial Computer Software - Restricted
 Rights clause in FAR 52.227-19.
  
 Gaussian, Inc.
 340 Quinnipiac St., Bldg. 40, Wallingford CT 06492
  
  
 ---------------------------------------------------------------
 Warning -- This program may not be used in any manner that
 competes with the business of Gaussian, Inc. or will provide
 assistance to any competitor of Gaussian, Inc.  The licensee
 of this program is prohibited from giving any competitor of
 Gaussian, Inc. access to this program.  By using this program,
 the user acknowledges that Gaussian, Inc. is engaged in the
 business of creating and licensing software in the field of
 computational chemistry and represents and warrants to the
 licensee that it is not a competitor of Gaussian, Inc. and that
 it will not use this program in any manner prohibited above.
 ---------------------------------------------------------------
  

 Cite this work as:
 Gaussian 09, Revision A.01,
 M. J. Frisch, G. W. Trucks, H. B. Schlegel, G. E. Scuseria, 
 M. A. Robb, J. R. Cheeseman, G. Scalmani, V. Barone, B. Mennucci, 
 G. A. Petersson, H. Nakatsuji, M. Caricato, X. Li, H. P. Hratchian, 
 A. F. Izmaylov, J. Bloino, G. Zheng, J. L. Sonnenberg, M. Hada, 
 M. Ehara, K. Toyota, R. Fukuda, J. Hasegawa, M. Ishida, T. Nakajima, 
 Y. Honda, O. Kitao, H. Nakai, T. Vreven, J. A. Montgomery, Jr., 
 J. E. Peralta, F. Ogliaro, M. Bearpark, J. J. Heyd, E. Brothers, 
 K. N. Kudin, V. N. Staroverov, R. Kobayashi, J. Normand, 
 K. Raghavachari, A. Rendell, J. C. Burant, S. S. Iyengar, J. Tomasi, 
 M. Cossi, N. Rega, J. M. Millam, M. Klene, J. E. Knox, J. B. Cross, 
 V. Bakken, C. Adamo, J. Jaramillo, R. Gomperts, R. E. Stratmann, 
 O. Yazyev, A. J. Austin, R. Cammi, C. Pomelli, J. W. Ochterski, 
 R. L. Martin, K. Morokuma, V. G. Zakrzewski, G. A. Voth, 
 P. Salvador, J. J. Dannenberg, S. Dapprich, A. D. Daniels, 
 O. Farkas, J. B. Foresman, J. V. Ortiz, J. Cioslowski, 
 and D. J. Fox, Gaussian, Inc., Wallingford CT, 2009.
 
 ******************************************
 Gaussian 09:  EM64L-G09RevA.01  8-May-2009
                 4-Jun-2016 
 ******************************************
 %mem=8000Mb
 %nproc=8
 Will use up to    8 processors via shared memory.
 -------------
 # mp2/cc-pVTZ
 -------------
 1/38=1/1;
 2/12=2,17=6,18=5,40=1/2;
 3/5=16,6=1,11=9,16=1,25=1,30=1/1,2,3;
 4//1;
 5/5=2,38=5/2;
 8/10=1/1;
 9/16=-3/6;
 6/7=2,8=2,9=2,10=2/1;
 99/5=1,9=1/99;
 ---------------------
 N-Me-Acetamide-ts.hin
 ---------------------
 Symbolic Z-matrix:
 Charge =  0 Multiplicity = 1
 C                    -0.94036  -1.46584  -1.04539 
 C                    -1.43446  -0.45425  -0.0287 
 N                    -0.46722   0.33738   0.55226 
 C                    -0.10382   1.60372  -0.03312 
 O                    -2.60524  -0.35659   0.25098 
 H                    -0.43552  -0.9449   -1.89061 
 H                    -0.21674  -2.16515  -0.56809 
 H                    -1.78387  -2.06454  -1.45902 
 H                    -0.02699  -0.00603   1.40828 
 H                    -0.69859   1.82536  -0.94892 
 H                    -0.27535   2.41065   0.71418 
 H                     0.97661   1.58163  -0.30001 
 
                          Input orientation:                          
 ---------------------------------------------------------------------
 Center     Atomic      Atomic             Coordinates (Angstroms)
 Number     Number       Type             X           Y           Z
 ---------------------------------------------------------------------
      1          6           0       -0.940360   -1.465840   -1.045390
      2          6           0       -1.434460   -0.454250   -0.028700
      3          7           0       -0.467220    0.337380    0.552260
      4          6           0       -0.103820    1.603720   -0.033120
      5          8           0       -2.605240   -0.356590    0.250980
      6          1           0       -0.435520   -0.944900   -1.890610
      7          1           0       -0.216740   -2.165150   -0.568090
      8          1           0       -1.783870   -2.064540   -1.459020
      9          1           0       -0.026990   -0.006030    1.408280
     10          1           0       -0.698590    1.825360   -0.948920
     11          1           0       -0.275350    2.410650    0.714180
     12          1           0        0.976610    1.581630   -0.300010
 ---------------------------------------------------------------------
                    Distance matrix (angstroms):
                    1          2          3          4          5
     1  C    0.000000
     2  C    1.516940   0.000000
     3  N    2.455188   1.378313   0.000000
     4  C    3.338666   2.450686   1.441647   0.000000
     5  O    2.383870   1.207677   2.267927   3.190710   0.000000
     6  H    1.113840   2.169177   2.759141   3.171082   3.104867
     7  H    1.113766   2.168170   2.753285   3.808323   3.105913
     8  H    1.114020   2.181957   3.398240   4.279239   2.552615
     9  H    2.997630   2.060773   1.022009   2.162136   2.847737
    10  H    3.301478   2.566112   2.126301   1.114255   3.136237
    11  H    4.308770   3.178531   2.088416   1.113111   3.646993
    12  H    3.676607   3.167282   2.087862   1.113125   4.109737
                    6          7          8          9         10
     6  H    0.000000
     7  H    1.812715   0.000000
     8  H    1.804969   1.805485   0.000000
     9  H    3.454135   2.933231   3.942778   0.000000
    10  H    2.937742   4.037497   4.070547   3.059645   0.000000
    11  H    4.250918   4.752431   5.198630   2.526618   1.813173
    12  H    3.302646   3.941359   4.717850   2.538923   1.812949
                   11         12
    11  H    0.000000
    12  H    1.811977   0.000000
 Stoichiometry    C3H7NO
 Framework group  C1[X(C3H7NO)]
 Deg. of freedom    30
 Full point group                 C1      NOp   1
 Largest Abelian subgroup         C1      NOp   1
 Largest concise Abelian subgroup C1      NOp   1
                         Standard orientation:                         
 ---------------------------------------------------------------------
 Center     Atomic      Atomic             Coordinates (Angstroms)
 Number     Number       Type             X           Y           Z
 ---------------------------------------------------------------------
      1          6           0       -1.368045   -1.026970   -0.087865
      2          6           0       -0.524261    0.221301    0.088074
      3          7           0        0.752968    0.022366    0.566462
      4          6           0        1.853664   -0.188228   -0.340437
      5          8           0       -0.953723    1.319010   -0.174764
      6          1           0       -0.883072   -1.718533   -0.813937
      7          1           0       -1.483560   -1.550851    0.888188
      8          1           0       -2.383141   -0.774937   -0.471402
      9          1           0        0.885262    0.034773    1.579797
     10          1           0        1.529069   -0.149532   -1.405663
     11          1           0        2.621446    0.598822   -0.167004
     12          1           0        2.304852   -1.185008   -0.135729
 ---------------------------------------------------------------------
 Rotational constants (GHZ):      8.2133342      3.9924803      3.1086542
 Standard basis: CC-pVTZ (5D, 7F)
 There are   248 symmetry adapted basis functions of A   symmetry.
 Integral buffers will be    131072 words long.
 Raffenetti 1 integral format.
 Two-electron integral symmetry is turned on.
   248 basis functions,   379 primitive gaussians,   280 cartesian basis functions
    20 alpha electrons       20 beta electrons
       nuclear repulsion energy       179.3850835000 Hartrees.
 NAtoms=   12 NActive=   12 NUniq=   12 SFac= 7.50D-01 NAtFMM=   80 NAOKFM=F Big=F
 One-electron integrals computed using PRISM.
 NBasis=   248 RedAO= T  NBF=   248
 NBsUse=   248 1.00D-06 NBFU=   248
 Harris functional with IExCor=  205 diagonalized for initial guess.
 ExpMin= 1.03D-01 ExpMax= 1.53D+04 ExpMxC= 5.22D+02 IAcc=1 IRadAn=         1 AccDes= 0.00D+00
 HarFok:  IExCor=  205 AccDes= 0.00D+00 IRadAn=         1 IDoV= 1
 ScaDFX=  1.000000  1.000000  1.000000  1.000000
 FoFCou: FMM=F IPFlag=           0 FMFlag=      100000 FMFlg1=           0
         NFxFlg=           0 DoJE=T BraDBF=F KetDBF=T FulRan=T
         Omega=  0.000000  0.000000  1.000000  0.000000  0.000000 ICntrl=     500 IOpCl=  0
         NMat0=    1 NMatS0=    1 NMatT0=    0 NMatD0=    1 NMtDS0=    0 NMtDT0=    0
         I1Cent=           4 NGrid=           0.
 Petite list used in FoFCou.
 Initial guess orbital symmetries:
       Occupied  (A) (A) (A) (A) (A) (A) (A) (A) (A) (A) (A) (A)
                 (A) (A) (A) (A) (A) (A) (A) (A)
       Virtual   (A) (A) (A) (A) (A) (A) (A) (A) (A) (A) (A) (A)
                 (A) (A) (A) (A) (A) (A) (A) (A) (A) (A) (A) (A)
                 (A) (A) (A) (A) (A) (A) (A) (A) (A) (A) (A) (A)
                 (A) (A) (A) (A) (A) (A) (A) (A) (A) (A) (A) (A)
                 (A) (A) (A) (A) (A) (A) (A) (A) (A) (A) (A) (A)
                 (A) (A) (A) (A) (A) (A) (A) (A) (A) (A) (A) (A)
                 (A) (A) (A) (A) (A) (A) (A) (A) (A) (A) (A) (A)
                 (A) (A) (A) (A) (A) (A) (A) (A) (A) (A) (A) (A)
                 (A) (A) (A) (A) (A) (A) (A) (A) (A) (A) (A) (A)
                 (A) (A) (A) (A) (A) (A) (A) (A) (A) (A) (A) (A)
                 (A) (A) (A) (A) (A) (A) (A) (A) (A) (A) (A) (A)
                 (A) (A) (A) (A) (A) (A) (A) (A) (A) (A) (A) (A)
                 (A) (A) (A) (A) (A) (A) (A) (A) (A) (A) (A) (A)
                 (A) (A) (A) (A) (A) (A) (A) (A) (A) (A) (A) (A)
                 (A) (A) (A) (A) (A) (A) (A) (A) (A) (A) (A) (A)
                 (A) (A) (A) (A) (A) (A) (A) (A) (A) (A) (A) (A)
                 (A) (A) (A) (A) (A) (A) (A) (A) (A) (A) (A) (A)
                 (A) (A) (A) (A) (A) (A) (A) (A) (A) (A) (A) (A)
                 (A) (A) (A) (A) (A) (A) (A) (A) (A) (A) (A) (A)
 The electronic state of the initial guess is 1-A.
 Requested convergence on RMS density matrix=1.00D-08 within 128 cycles.
 Requested convergence on MAX density matrix=1.00D-06.
 Requested convergence on             energy=1.00D-06.
 No special actions if energy rises.
 Keep R1 ints in memory in canonical form, NReq=785188994.
 SCF Done:  E(RHF) =  -247.054974811     A.U. after   14 cycles
             Convg  =    0.3905D-08             -V/T =  2.0018
 ExpMin= 1.03D-01 ExpMax= 1.53D+04 ExpMxC= 5.22D+02 IAcc=1 IRadAn=         1 AccDes= 0.00D+00
 HarFok:  IExCor=  205 AccDes= 0.00D+00 IRadAn=         1 IDoV=-2
 ScaDFX=  1.000000  1.000000  1.000000  1.000000
 Range of M.O.s used for correlation:     6   248
 NBasis=   248 NAE=    20 NBE=    20 NFC=     5 NFV=     0
 NROrb=    243 NOA=    15 NOB=    15 NVA=   228 NVB=   228

 **** Warning!!: The largest alpha MO coefficient is  0.10572705D+02

 Fully direct method using O(OVN) memory.
 JobTyp=1 Pass  1:  I=   1 to  15 NPSUse=  8 ParTrn=T ParDer=T DoDerP=F.
 Spin components of T(2) and E(2):
     alpha-alpha T2 =       0.3400508749D-01 E2=     -0.1134027745D+00
     alpha-beta  T2 =       0.2033054899D+00 E2=     -0.7212291691D+00
     beta-beta   T2 =       0.3400508749D-01 E2=     -0.1134027745D+00
 ANorm=    0.1127526348D+01
 E2 =    -0.9480347181D+00 EUMP2 =    -0.24800300952889D+03

 **********************************************************************

            Population analysis using the SCF density.

 **********************************************************************

 Orbital symmetries:
       Occupied  (A) (A) (A) (A) (A) (A) (A) (A) (A) (A) (A) (A)
                 (A) (A) (A) (A) (A) (A) (A) (A)
       Virtual   (A) (A) (A) (A) (A) (A) (A) (A) (A) (A) (A) (A)
                 (A) (A) (A) (A) (A) (A) (A) (A) (A) (A) (A) (A)
                 (A) (A) (A) (A) (A) (A) (A) (A) (A) (A) (A) (A)
                 (A) (A) (A) (A) (A) (A) (A) (A) (A) (A) (A) (A)
                 (A) (A) (A) (A) (A) (A) (A) (A) (A) (A) (A) (A)
                 (A) (A) (A) (A) (A) (A) (A) (A) (A) (A) (A) (A)
                 (A) (A) (A) (A) (A) (A) (A) (A) (A) (A) (A) (A)
                 (A) (A) (A) (A) (A) (A) (A) (A) (A) (A) (A) (A)
                 (A) (A) (A) (A) (A) (A) (A) (A) (A) (A) (A) (A)
                 (A) (A) (A) (A) (A) (A) (A) (A) (A) (A) (A) (A)
                 (A) (A) (A) (A) (A) (A) (A) (A) (A) (A) (A) (A)
                 (A) (A) (A) (A) (A) (A) (A) (A) (A) (A) (A) (A)
                 (A) (A) (A) (A) (A) (A) (A) (A) (A) (A) (A) (A)
                 (A) (A) (A) (A) (A) (A) (A) (A) (A) (A) (A) (A)
                 (A) (A) (A) (A) (A) (A) (A) (A) (A) (A) (A) (A)
                 (A) (A) (A) (A) (A) (A) (A) (A) (A) (A) (A) (A)
                 (A) (A) (A) (A) (A) (A) (A) (A) (A) (A) (A) (A)
                 (A) (A) (A) (A) (A) (A) (A) (A) (A) (A) (A) (A)
                 (A) (A) (A) (A) (A) (A) (A) (A) (A) (A) (A) (A)
 The electronic state is 1-A.
 Alpha  occ. eigenvalues --  -20.53987 -15.54372 -11.34885 -11.27089 -11.23807
 Alpha  occ. eigenvalues --   -1.39409  -1.21227  -0.99862  -0.92561  -0.77241
 Alpha  occ. eigenvalues --   -0.68029  -0.64457  -0.64102  -0.58511  -0.57675
 Alpha  occ. eigenvalues --   -0.55988  -0.53907  -0.48818  -0.42949  -0.37113
 Alpha virt. eigenvalues --    0.12073   0.15126   0.16147   0.17812   0.20901
 Alpha virt. eigenvalues --    0.21570   0.22236   0.23493   0.28122   0.29896
 Alpha virt. eigenvalues --    0.34503   0.38059   0.38865   0.40365   0.42605
 Alpha virt. eigenvalues --    0.48078   0.51683   0.54242   0.54829   0.58297
 Alpha virt. eigenvalues --    0.59475   0.60613   0.61777   0.62118   0.63408
 Alpha virt. eigenvalues --    0.63705   0.64684   0.67655   0.70030   0.71476
 Alpha virt. eigenvalues --    0.71820   0.75343   0.77386   0.81289   0.83804
 Alpha virt. eigenvalues --    0.85042   0.86761   0.90827   0.93506   1.00389
 Alpha virt. eigenvalues --    1.03751   1.04696   1.06517   1.09882   1.13091
 Alpha virt. eigenvalues --    1.13951   1.16767   1.17312   1.19180   1.21756
 Alpha virt. eigenvalues --    1.22581   1.25492   1.28798   1.29588   1.31573
 Alpha virt. eigenvalues --    1.35435   1.37503   1.38405   1.41014   1.44307
 Alpha virt. eigenvalues --    1.46329   1.48327   1.50251   1.51372   1.52579
 Alpha virt. eigenvalues --    1.53273   1.56866   1.57705   1.61758   1.64924
 Alpha virt. eigenvalues --    1.69996   1.72322   1.73201   1.79997   1.81552
 Alpha virt. eigenvalues --    1.83191   1.90194   1.96720   2.04290   2.07290
 Alpha virt. eigenvalues --    2.19723   2.21641   2.28326   2.44392   2.44998
 Alpha virt. eigenvalues --    2.51342   2.54104   2.56816   2.60866   2.65046
 Alpha virt. eigenvalues --    2.68615   2.70194   2.76557   2.85708   2.86152
 Alpha virt. eigenvalues --    2.93695   2.95469   2.97432   3.04234   3.04573
 Alpha virt. eigenvalues --    3.08083   3.08997   3.09567   3.10733   3.12130
 Alpha virt. eigenvalues --    3.16398   3.17894   3.21210   3.22361   3.24050
 Alpha virt. eigenvalues --    3.26274   3.27588   3.27986   3.30553   3.32407
 Alpha virt. eigenvalues --    3.35362   3.38254   3.39808   3.41241   3.46507
 Alpha virt. eigenvalues --    3.51080   3.54101   3.59251   3.60002   3.60873
 Alpha virt. eigenvalues --    3.63216   3.63361   3.64534   3.66973   3.68773
 Alpha virt. eigenvalues --    3.70491   3.72768   3.74748   3.77378   3.78556
 Alpha virt. eigenvalues --    3.80562   3.84138   3.87702   3.90565   3.92154
 Alpha virt. eigenvalues --    3.94522   3.98999   4.00560   4.03255   4.04673
 Alpha virt. eigenvalues --    4.08191   4.10528   4.14823   4.16869   4.17631
 Alpha virt. eigenvalues --    4.21126   4.24212   4.25090   4.25377   4.29077
 Alpha virt. eigenvalues --    4.33852   4.34179   4.35666   4.37681   4.38944
 Alpha virt. eigenvalues --    4.42499   4.45723   4.48525   4.49106   4.55040
 Alpha virt. eigenvalues --    4.58731   4.59317   4.60715   4.64078   4.69547
 Alpha virt. eigenvalues --    4.73144   4.77784   4.85522   4.85951   4.90169
 Alpha virt. eigenvalues --    4.96125   5.04430   5.09552   5.11837   5.14598
 Alpha virt. eigenvalues --    5.18030   5.19904   5.20272   5.31292   5.35605
 Alpha virt. eigenvalues --    5.38493   5.39386   5.43977   5.45768   5.47636
 Alpha virt. eigenvalues --    5.48800   5.51014   5.55569   5.57434   5.57672
 Alpha virt. eigenvalues --    5.60693   5.62971   5.68018   5.69622   5.71833
 Alpha virt. eigenvalues --    5.77137   5.79947   5.82215   5.93082   6.02419
 Alpha virt. eigenvalues --    6.09825   6.14106   6.19729   6.21897   6.22750
 Alpha virt. eigenvalues --    6.24759   6.30831   6.38967   6.55115   6.74620
 Alpha virt. eigenvalues --    6.76101   6.91817   6.94233   7.00454   7.28666
 Alpha virt. eigenvalues --    7.36967   7.56515   7.58369   9.73351  12.89405
 Alpha virt. eigenvalues --   13.58201  13.86215  13.93504
          Condensed to atoms (all electrons):
              1          2          3          4          5          6
     1  C    4.888214   0.389166  -0.114548   0.001038  -0.098911   0.393993
     2  C    0.389166   4.388274   0.310995  -0.032036   0.756684  -0.023409
     3  N   -0.114548   0.310995   6.663571   0.300048  -0.128130  -0.000274
     4  C    0.001038  -0.032036   0.300048   4.640628   0.002257   0.000833
     5  O   -0.098911   0.756684  -0.128130   0.002257   7.792998   0.001465
     6  H    0.393993  -0.023409  -0.000274   0.000833   0.001465   0.589703
     7  H    0.388792  -0.029257   0.007384   0.000201   0.002208  -0.028358
     8  H    0.407388  -0.041743   0.008224  -0.000272   0.006317  -0.026013
     9  H    0.005850  -0.015399   0.379178  -0.031818   0.001678   0.000189
    10  H   -0.000647   0.000152  -0.030256   0.411529   0.001050  -0.000602
    11  H   -0.000672  -0.001091  -0.047771   0.432943   0.000763   0.000094
    12  H    0.000795   0.003811  -0.058899   0.420875  -0.000382  -0.000385
              7          8          9         10         11         12
     1  C    0.388792   0.407388   0.005850  -0.000647  -0.000672   0.000795
     2  C   -0.029257  -0.041743  -0.015399   0.000152  -0.001091   0.003811
     3  N    0.007384   0.008224   0.379178  -0.030256  -0.047771  -0.058899
     4  C    0.000201  -0.000272  -0.031818   0.411529   0.432943   0.420875
     5  O    0.002208   0.006317   0.001678   0.001050   0.000763  -0.000382
     6  H   -0.028358  -0.026013   0.000189  -0.000602   0.000094  -0.000385
     7  H    0.595468  -0.023433  -0.000948   0.000108  -0.000001  -0.000063
     8  H   -0.023433   0.558448  -0.000444  -0.000167   0.000069  -0.000114
     9  H   -0.000948  -0.000444   0.488177   0.005371  -0.004727  -0.001719
    10  H    0.000108  -0.000167   0.005371   0.575587  -0.026414  -0.031517
    11  H   -0.000001   0.000069  -0.004727  -0.026414   0.596733  -0.047138
    12  H   -0.000063  -0.000114  -0.001719  -0.031517  -0.047138   0.634416
 Mulliken atomic charges:
              1
     1  C   -0.260458
     2  C    0.293852
     3  N   -0.289522
     4  C   -0.146227
     5  O   -0.337997
     6  H    0.092762
     7  H    0.087899
     8  H    0.111740
     9  H    0.174612
    10  H    0.095806
    11  H    0.097210
    12  H    0.080321
 Sum of Mulliken atomic charges =   0.00000
 Mulliken charges with hydrogens summed into heavy atoms:
              1
     1  C    0.031943
     2  C    0.293852
     3  N   -0.114910
     4  C    0.127111
     5  O   -0.337997
 Sum of Mulliken charges with hydrogens summed into heavy atoms =   0.00000
 Electronic spatial extent (au):  <R**2>=            450.7645
 Charge=              0.0000 electrons
 Dipole moment (field-independent basis, Debye):
    X=              1.4852    Y=             -2.9063    Z=              0.8477  Tot=              3.3721
 Quadrupole moment (field-independent basis, Debye-Ang):
   XX=            -30.3310   YY=            -35.7721   ZZ=            -27.7926
   XY=              3.0843   XZ=             -0.2675   YZ=              0.7995
 Traceless Quadrupole moment (field-independent basis, Debye-Ang):
   XX=              0.9675   YY=             -4.4735   ZZ=              3.5060
   XY=              3.0843   XZ=             -0.2675   YZ=              0.7995
 Octapole moment (field-independent basis, Debye-Ang**2):
  XXX=              1.4218  YYY=             -1.9310  ZZZ=              5.8494  XYY=              3.0184
  XXY=             -1.5535  XXZ=              1.4738  XZZ=              1.7235  YZZ=              0.8756
  YYZ=              0.6307  XYZ=             -0.4434
 Hexadecapole moment (field-independent basis, Debye-Ang**3):
 XXXX=           -354.0436 YYYY=           -168.8806 ZZZZ=            -57.6179 XXXY=              2.0103
 XXXZ=              4.7289 YYYX=             -0.1328 YYYZ=              0.3858 ZZZX=              4.3196
 ZZZY=             -0.5878 XXYY=            -90.0607 XXZZ=            -69.3456 YYZZ=            -38.0198
 XXYZ=              0.0353 YYXZ=             -0.8493 ZZXY=             -0.3752
 N-N= 1.793850835000D+02 E-N=-9.379733815861D+02  KE= 2.466130105867D+02
 1\1\GINC-ROCK\SP\RMP2-FC\CC-pVTZ\C3H7N1O1\STYLIANAKIS\04-Jun-2016\0\\#
  mp2/cc-pVTZ\\N-Me-Acetamide-ts.hin\\0,1\C,0,-0.94036,-1.46584,-1.0453
 9\C,0,-1.43446,-0.45425,-0.0287\N,0,-0.46722,0.33738,0.55226\C,0,-0.10
 382,1.60372,-0.03312\O,0,-2.60524,-0.35659,0.25098\H,0,-0.43552,-0.944
 9,-1.89061\H,0,-0.21674,-2.16515,-0.56809\H,0,-1.78387,-2.06454,-1.459
 02\H,0,-0.02699,-0.00603,1.40828\H,0,-0.69859,1.82536,-0.94892\H,0,-0.
 27535,2.41065,0.71418\H,0,0.97661,1.58163,-0.30001\\Version=EM64L-G09R
 evA.01\State=1-A\HF=-247.0549748\MP2=-248.0030095\RMSD=3.905e-09\PG=C0
 1 [X(C3H7N1O1)]\\@


 IT IS DOUBTED WHETHER A MAN EVER BRINGS HIS FACULTIES TO BEAR WITH THEIR FULL FORCE
 ON A SUBJECT UNTIL HE WRITES UPON IT.

                          -- CICERO
 Job cpu time:  0 days  0 hours 17 minutes 23.9 seconds.
 File lengths (MBytes):  RWF=     27 Int=      0 D2E=      0 Chk=      4 Scr=      1
 Normal termination of Gaussian 09 at Sat Jun  4 21:51:26 2016.
