 Entering Gaussian System, Link 0=g09
 Input=7.gjf
 Output=7.out
 Initial command:
 /usr/local/g09/l1.exe /home/scratch/stylianakis/Gau-10774.inp -scrdir=/home/scratch/stylianakis/
 Entering Link 1 = /usr/local/g09/l1.exe PID=     10775.
  
 Copyright (c) 1988,1990,1992,1993,1995,1998,2003,2009, Gaussian, Inc.
                  All Rights Reserved.
  
 This is part of the Gaussian(R) 09 program.  It is based on
 the Gaussian(R) 03 system (copyright 2003, Gaussian, Inc.),
 the Gaussian(R) 98 system (copyright 1998, Gaussian, Inc.),
 the Gaussian(R) 94 system (copyright 1995, Gaussian, Inc.),
 the Gaussian 92(TM) system (copyright 1992, Gaussian, Inc.),
 the Gaussian 90(TM) system (copyright 1990, Gaussian, Inc.),
 the Gaussian 88(TM) system (copyright 1988, Gaussian, Inc.),
 the Gaussian 86(TM) system (copyright 1986, Carnegie Mellon
 University), and the Gaussian 82(TM) system (copyright 1983,
 Carnegie Mellon University). Gaussian is a federally registered
 trademark of Gaussian, Inc.
  
 This software contains proprietary and confidential information,
 including trade secrets, belonging to Gaussian, Inc.
  
 This software is provided under written license and may be
 used, copied, transmitted, or stored only in accord with that
 written license.
  
 The following legend is applicable only to US Government
 contracts under FAR:
  
                    RESTRICTED RIGHTS LEGEND
  
 Use, reproduction and disclosure by the US Government is
 subject to restrictions as set forth in subparagraphs (a)
 and (c) of the Commercial Computer Software - Restricted
 Rights clause in FAR 52.227-19.
  
 Gaussian, Inc.
 340 Quinnipiac St., Bldg. 40, Wallingford CT 06492
  
  
 ---------------------------------------------------------------
 Warning -- This program may not be used in any manner that
 competes with the business of Gaussian, Inc. or will provide
 assistance to any competitor of Gaussian, Inc.  The licensee
 of this program is prohibited from giving any competitor of
 Gaussian, Inc. access to this program.  By using this program,
 the user acknowledges that Gaussian, Inc. is engaged in the
 business of creating and licensing software in the field of
 computational chemistry and represents and warrants to the
 licensee that it is not a competitor of Gaussian, Inc. and that
 it will not use this program in any manner prohibited above.
 ---------------------------------------------------------------
  

 Cite this work as:
 Gaussian 09, Revision A.01,
 M. J. Frisch, G. W. Trucks, H. B. Schlegel, G. E. Scuseria, 
 M. A. Robb, J. R. Cheeseman, G. Scalmani, V. Barone, B. Mennucci, 
 G. A. Petersson, H. Nakatsuji, M. Caricato, X. Li, H. P. Hratchian, 
 A. F. Izmaylov, J. Bloino, G. Zheng, J. L. Sonnenberg, M. Hada, 
 M. Ehara, K. Toyota, R. Fukuda, J. Hasegawa, M. Ishida, T. Nakajima, 
 Y. Honda, O. Kitao, H. Nakai, T. Vreven, J. A. Montgomery, Jr., 
 J. E. Peralta, F. Ogliaro, M. Bearpark, J. J. Heyd, E. Brothers, 
 K. N. Kudin, V. N. Staroverov, R. Kobayashi, J. Normand, 
 K. Raghavachari, A. Rendell, J. C. Burant, S. S. Iyengar, J. Tomasi, 
 M. Cossi, N. Rega, J. M. Millam, M. Klene, J. E. Knox, J. B. Cross, 
 V. Bakken, C. Adamo, J. Jaramillo, R. Gomperts, R. E. Stratmann, 
 O. Yazyev, A. J. Austin, R. Cammi, C. Pomelli, J. W. Ochterski, 
 R. L. Martin, K. Morokuma, V. G. Zakrzewski, G. A. Voth, 
 P. Salvador, J. J. Dannenberg, S. Dapprich, A. D. Daniels, 
 O. Farkas, J. B. Foresman, J. V. Ortiz, J. Cioslowski, 
 and D. J. Fox, Gaussian, Inc., Wallingford CT, 2009.
 
 ******************************************
 Gaussian 09:  EM64L-G09RevA.01  8-May-2009
                 4-Jun-2016 
 ******************************************
 %mem=8000Mb
 %nproc=8
 Will use up to    8 processors via shared memory.
 -------------
 # mp2/cc-pVTZ
 -------------
 1/38=1/1;
 2/12=2,17=6,18=5,40=1/2;
 3/5=16,6=1,11=9,16=1,25=1,30=1/1,2,3;
 4//1;
 5/5=2,38=5/2;
 8/10=1/1;
 9/16=-3/6;
 6/7=2,8=2,9=2,10=2/1;
 99/5=1,9=1/99;
 --------------------------
 N-methylpyrrolidine-lp.hin
 --------------------------
 Symbolic Z-matrix:
 Charge =  0 Multiplicity = 1
 C                     0.85433  -0.11314   0.39592 
 C                    -0.00334  -1.38272   0.23432 
 C                    -1.30065  -0.87853  -0.41887 
 C                    -0.02574   1.00987  -0.17706 
 N                    -1.37938   0.51297  -0.01518 
 C                    -2.37235   1.27671  -0.74437 
 H                    -0.22287  -1.8307    1.23322 
 H                     0.49912  -2.15738  -0.39269 
 H                    -2.19973  -1.45031  -0.08638 
 H                    -1.21681  -0.95737  -1.52997 
 H                     0.2087    1.15523  -1.25951 
 H                     0.11738   1.98134   0.3536 
 H                    -2.1681    1.27905  -1.84024 
 H                    -3.38629   0.84667  -0.57306 
 H                    -2.3841    2.33107  -0.38308 
 H                     1.82871  -0.18792  -0.14325 
 H                     1.06654   0.07529   1.4758 
 Xx                   -1.52099   0.53364   0.56997 
 
                          Input orientation:                          
 ---------------------------------------------------------------------
 Center     Atomic      Atomic             Coordinates (Angstroms)
 Number     Number       Type             X           Y           Z
 ---------------------------------------------------------------------
      1          6           0        0.854330   -0.113140    0.395920
      2          6           0       -0.003340   -1.382720    0.234320
      3          6           0       -1.300650   -0.878530   -0.418870
      4          6           0       -0.025740    1.009870   -0.177060
      5          7           0       -1.379380    0.512970   -0.015180
      6          6           0       -2.372350    1.276710   -0.744370
      7          1           0       -0.222870   -1.830700    1.233220
      8          1           0        0.499120   -2.157380   -0.392690
      9          1           0       -2.199730   -1.450310   -0.086380
     10          1           0       -1.216810   -0.957370   -1.529970
     11          1           0        0.208700    1.155230   -1.259510
     12          1           0        0.117380    1.981340    0.353600
     13          1           0       -2.168100    1.279050   -1.840240
     14          1           0       -3.386290    0.846670   -0.573060
     15          1           0       -2.384100    2.331070   -0.383080
     16          1           0        1.828710   -0.187920   -0.143250
     17          1           0        1.066540    0.075290    1.475800
 ---------------------------------------------------------------------
                    Distance matrix (angstroms):
                    1          2          3          4          5
     1  C    0.000000
     2  C    1.540632   0.000000
     3  C    2.427683   1.537491   0.000000
     4  C    1.537524   2.427802   2.291271   0.000000
     5  N    2.355945   2.355712   1.451012   1.451019   0.000000
     6  C    3.693698   3.693590   2.428899   2.428914   1.449485
     7  H    2.193500   1.116549   2.190351   3.177513   2.896344
     8  H    2.219684   1.116112   2.208011   3.217677   3.286646
     9  H    3.368667   2.220708   1.116166   3.284348   2.128970
    10  H    2.951508   2.183152   1.117044   2.668154   2.117290
    11  H    2.183128   2.952572   2.668519   1.117045   2.117275
    12  H    2.220750   3.368338   3.284262   1.116171   2.128943
    13  H    4.009200   4.009365   2.725420   2.725497   2.130681
    14  H    4.454550   4.131149   2.711085   3.387735   2.109567
    15  H    4.131396   4.454373   3.387724   2.711065   2.109573
    16  H    1.116115   2.219575   3.216489   2.207901   3.286258
    17  H    1.116548   2.193561   3.178543   2.190539   2.897777
                    6          7          8          9         10
     6  C    0.000000
     7  H    4.264636   0.000000
     8  H    4.490211   1.808749   0.000000
     9  H    2.810585   2.407076   2.806700   0.000000
    10  H    2.635062   3.063632   2.382823   1.814683   0.000000
    11  H    2.634757   3.913532   3.436438   3.737059   2.562871
    12  H    2.810836   3.926977   4.222757   4.163989   3.736832
    13  H    1.114744   4.785459   4.584595   3.244446   2.450060
    14  H    1.114610   4.520861   4.914597   2.630760   2.979409
    15  H    1.114605   4.960209   5.334720   3.797480   3.673113
    16  H    4.489476   2.966880   2.389310   4.221989   3.433692
    17  H    4.265973   2.313919   2.966148   3.928916   3.913404
                   11         12         13         14         15
    11  H    0.000000
    12  H    1.814641   0.000000
    13  H    2.449848   3.244929   0.000000
    14  H    3.672925   3.797615   1.810161   0.000000
    15  H    2.978815   2.631047   1.810171   1.801089   0.000000
    16  H    2.382125   2.807347   4.583259   5.333980   4.914326
    17  H    3.063345   2.406920   4.786236   4.961910   4.522267
                   16         17
    16  H    0.000000
    17  H    1.808730   0.000000
 Stoichiometry    C5H11N
 Framework group  C1[X(C5H11N)]
 Deg. of freedom    45
 Full point group                 C1      NOp   1
 Largest Abelian subgroup         C1      NOp   1
 Largest concise Abelian subgroup C1      NOp   1
                         Standard orientation:                         
 ---------------------------------------------------------------------
 Center     Atomic      Atomic             Coordinates (Angstroms)
 Number     Number       Type             X           Y           Z
 ---------------------------------------------------------------------
      1          6           0       -1.493389    0.770263   -0.051003
      2          6           0       -1.493253   -0.770368   -0.051723
      3          6           0       -0.016445   -1.145576    0.153546
      4          6           0       -0.016428    1.145695    0.153006
      5          7           0        0.711578   -0.000071   -0.359520
      6          6           0        2.118896   -0.000011   -0.012441
      7          1           0       -1.856700   -1.156541   -1.034300
      8          1           0       -2.141372   -1.195219    0.751488
      9          1           0        0.267728   -2.082126   -0.383060
     10          1           0        0.188581   -1.280908    1.243242
     11          1           0        0.189210    1.281962    1.242471
     12          1           0        0.267359    2.081862   -0.384482
     13          1           0        2.271534    0.000173    1.091804
     14          1           0        2.617575   -0.900640   -0.439691
     15          1           0        2.617591    0.900449   -0.440014
     16          1           0       -2.140541    1.194090    0.753533
     17          1           0       -1.858305    1.157377   -1.032664
 ---------------------------------------------------------------------
 Rotational constants (GHZ):      6.6758438      3.1463117      2.3514981
 Standard basis: CC-pVTZ (5D, 7F)
 There are   334 symmetry adapted basis functions of A   symmetry.
 Integral buffers will be    131072 words long.
 Raffenetti 1 integral format.
 Two-electron integral symmetry is turned on.
   334 basis functions,   499 primitive gaussians,   375 cartesian basis functions
    24 alpha electrons       24 beta electrons
       nuclear repulsion energy       258.1866093665 Hartrees.
 NAtoms=   17 NActive=   17 NUniq=   17 SFac= 7.50D-01 NAtFMM=   80 NAOKFM=F Big=F
 One-electron integrals computed using PRISM.
 NBasis=   334 RedAO= T  NBF=   334
 NBsUse=   334 1.00D-06 NBFU=   334
 Harris functional with IExCor=  205 diagonalized for initial guess.
 ExpMin= 1.03D-01 ExpMax= 1.14D+04 ExpMxC= 3.89D+02 IAcc=1 IRadAn=         1 AccDes= 0.00D+00
 HarFok:  IExCor=  205 AccDes= 0.00D+00 IRadAn=         1 IDoV= 1
 ScaDFX=  1.000000  1.000000  1.000000  1.000000
 FoFCou: FMM=F IPFlag=           0 FMFlag=      100000 FMFlg1=           0
         NFxFlg=           0 DoJE=T BraDBF=F KetDBF=T FulRan=T
         Omega=  0.000000  0.000000  1.000000  0.000000  0.000000 ICntrl=     500 IOpCl=  0
         NMat0=    1 NMatS0=    1 NMatT0=    0 NMatD0=    1 NMtDS0=    0 NMtDT0=    0
         I1Cent=           4 NGrid=           0.
 Petite list used in FoFCou.
 Initial guess orbital symmetries:
       Occupied  (A) (A) (A) (A) (A) (A) (A) (A) (A) (A) (A) (A)
                 (A) (A) (A) (A) (A) (A) (A) (A) (A) (A) (A) (A)
       Virtual   (A) (A) (A) (A) (A) (A) (A) (A) (A) (A) (A) (A)
                 (A) (A) (A) (A) (A) (A) (A) (A) (A) (A) (A) (A)
                 (A) (A) (A) (A) (A) (A) (A) (A) (A) (A) (A) (A)
                 (A) (A) (A) (A) (A) (A) (A) (A) (A) (A) (A) (A)
                 (A) (A) (A) (A) (A) (A) (A) (A) (A) (A) (A) (A)
                 (A) (A) (A) (A) (A) (A) (A) (A) (A) (A) (A) (A)
                 (A) (A) (A) (A) (A) (A) (A) (A) (A) (A) (A) (A)
                 (A) (A) (A) (A) (A) (A) (A) (A) (A) (A) (A) (A)
                 (A) (A) (A) (A) (A) (A) (A) (A) (A) (A) (A) (A)
                 (A) (A) (A) (A) (A) (A) (A) (A) (A) (A) (A) (A)
                 (A) (A) (A) (A) (A) (A) (A) (A) (A) (A) (A) (A)
                 (A) (A) (A) (A) (A) (A) (A) (A) (A) (A) (A) (A)
                 (A) (A) (A) (A) (A) (A) (A) (A) (A) (A) (A) (A)
                 (A) (A) (A) (A) (A) (A) (A) (A) (A) (A) (A) (A)
                 (A) (A) (A) (A) (A) (A) (A) (A) (A) (A) (A) (A)
                 (A) (A) (A) (A) (A) (A) (A) (A) (A) (A) (A) (A)
                 (A) (A) (A) (A) (A) (A) (A) (A) (A) (A) (A) (A)
                 (A) (A) (A) (A) (A) (A) (A) (A) (A) (A) (A) (A)
                 (A) (A) (A) (A) (A) (A) (A) (A) (A) (A) (A) (A)
                 (A) (A) (A) (A) (A) (A) (A) (A) (A) (A) (A) (A)
                 (A) (A) (A) (A) (A) (A) (A) (A) (A) (A) (A) (A)
                 (A) (A) (A) (A) (A) (A) (A) (A) (A) (A) (A) (A)
                 (A) (A) (A) (A) (A) (A) (A) (A) (A) (A) (A) (A)
                 (A) (A) (A) (A) (A) (A) (A) (A) (A) (A) (A) (A)
                 (A) (A) (A) (A) (A) (A) (A) (A) (A) (A) (A) (A)
                 (A) (A) (A) (A) (A) (A) (A) (A) (A) (A)
 The electronic state of the initial guess is 1-A.
 Requested convergence on RMS density matrix=1.00D-08 within 128 cycles.
 Requested convergence on MAX density matrix=1.00D-06.
 Requested convergence on             energy=1.00D-06.
 No special actions if energy rises.
 Integral accuracy reduced to 1.0D-05 until final iterations.
 Initial convergence to 1.0D-05 achieved.  Increase integral accuracy.
 SCF Done:  E(RHF) =  -250.257144802     A.U. after   11 cycles
             Convg  =    0.8476D-08             -V/T =  2.0025
 ExpMin= 1.03D-01 ExpMax= 1.14D+04 ExpMxC= 3.89D+02 IAcc=1 IRadAn=         1 AccDes= 0.00D+00
 HarFok:  IExCor=  205 AccDes= 0.00D+00 IRadAn=         1 IDoV=-2
 ScaDFX=  1.000000  1.000000  1.000000  1.000000
 Range of M.O.s used for correlation:     7   334
 NBasis=   334 NAE=    24 NBE=    24 NFC=     6 NFV=     0
 NROrb=    328 NOA=    18 NOB=    18 NVA=   310 NVB=   310

 **** Warning!!: The largest alpha MO coefficient is  0.14368566D+02

 Fully direct method using O(OVN) memory.
 JobTyp=1 Pass  1:  I=   1 to  18 NPSUse=  8 ParTrn=T ParDer=T DoDerP=F.
 Spin components of T(2) and E(2):
     alpha-alpha T2 =       0.4076707184D-01 E2=     -0.1240356258D+00
     alpha-beta  T2 =       0.2491375921D+00 E2=     -0.8298811316D+00
     beta-beta   T2 =       0.4076707184D-01 E2=     -0.1240356258D+00
 ANorm=    0.1153547457D+01
 E2 =    -0.1077952383D+01 EUMP2 =    -0.25133509718534D+03

 **********************************************************************

            Population analysis using the SCF density.

 **********************************************************************

 Orbital symmetries:
       Occupied  (A) (A) (A) (A) (A) (A) (A) (A) (A) (A) (A) (A)
                 (A) (A) (A) (A) (A) (A) (A) (A) (A) (A) (A) (A)
       Virtual   (A) (A) (A) (A) (A) (A) (A) (A) (A) (A) (A) (A)
                 (A) (A) (A) (A) (A) (A) (A) (A) (A) (A) (A) (A)
                 (A) (A) (A) (A) (A) (A) (A) (A) (A) (A) (A) (A)
                 (A) (A) (A) (A) (A) (A) (A) (A) (A) (A) (A) (A)
                 (A) (A) (A) (A) (A) (A) (A) (A) (A) (A) (A) (A)
                 (A) (A) (A) (A) (A) (A) (A) (A) (A) (A) (A) (A)
                 (A) (A) (A) (A) (A) (A) (A) (A) (A) (A) (A) (A)
                 (A) (A) (A) (A) (A) (A) (A) (A) (A) (A) (A) (A)
                 (A) (A) (A) (A) (A) (A) (A) (A) (A) (A) (A) (A)
                 (A) (A) (A) (A) (A) (A) (A) (A) (A) (A) (A) (A)
                 (A) (A) (A) (A) (A) (A) (A) (A) (A) (A) (A) (A)
                 (A) (A) (A) (A) (A) (A) (A) (A) (A) (A) (A) (A)
                 (A) (A) (A) (A) (A) (A) (A) (A) (A) (A) (A) (A)
                 (A) (A) (A) (A) (A) (A) (A) (A) (A) (A) (A) (A)
                 (A) (A) (A) (A) (A) (A) (A) (A) (A) (A) (A) (A)
                 (A) (A) (A) (A) (A) (A) (A) (A) (A) (A) (A) (A)
                 (A) (A) (A) (A) (A) (A) (A) (A) (A) (A) (A) (A)
                 (A) (A) (A) (A) (A) (A) (A) (A) (A) (A) (A) (A)
                 (A) (A) (A) (A) (A) (A) (A) (A) (A) (A) (A) (A)
                 (A) (A) (A) (A) (A) (A) (A) (A) (A) (A) (A) (A)
                 (A) (A) (A) (A) (A) (A) (A) (A) (A) (A) (A) (A)
                 (A) (A) (A) (A) (A) (A) (A) (A) (A) (A) (A) (A)
                 (A) (A) (A) (A) (A) (A) (A) (A) (A) (A) (A) (A)
                 (A) (A) (A) (A) (A) (A) (A) (A) (A) (A) (A) (A)
                 (A) (A) (A) (A) (A) (A) (A) (A) (A) (A) (A) (A)
                 (A) (A) (A) (A) (A) (A) (A) (A) (A) (A)
 The electronic state is 1-A.
 Alpha  occ. eigenvalues --  -15.54007 -11.24555 -11.24553 -11.24544 -11.22236
 Alpha  occ. eigenvalues --  -11.22178  -1.24066  -1.04446  -0.96918  -0.90477
 Alpha  occ. eigenvalues --   -0.77880  -0.77708  -0.66314  -0.65019  -0.59826
 Alpha  occ. eigenvalues --   -0.58834  -0.55502  -0.52379  -0.49540  -0.49290
 Alpha  occ. eigenvalues --   -0.47219  -0.46546  -0.44974  -0.35279
 Alpha virt. eigenvalues --    0.13846   0.15938   0.17201   0.17512   0.20420
 Alpha virt. eigenvalues --    0.20818   0.21333   0.22055   0.24492   0.25724
 Alpha virt. eigenvalues --    0.27344   0.27717   0.30941   0.32101   0.33468
 Alpha virt. eigenvalues --    0.38101   0.38895   0.41272   0.41810   0.43275
 Alpha virt. eigenvalues --    0.43478   0.48299   0.50142   0.52250   0.54547
 Alpha virt. eigenvalues --    0.55992   0.57440   0.57503   0.59276   0.60680
 Alpha virt. eigenvalues --    0.60764   0.61696   0.61974   0.63200   0.63247
 Alpha virt. eigenvalues --    0.64022   0.65308   0.66548   0.67522   0.68165
 Alpha virt. eigenvalues --    0.68319   0.70933   0.71666   0.71925   0.78311
 Alpha virt. eigenvalues --    0.80917   0.83722   0.87083   0.88417   0.92177
 Alpha virt. eigenvalues --    0.92266   0.97620   0.99236   1.03586   1.06123
 Alpha virt. eigenvalues --    1.06132   1.09048   1.10216   1.11352   1.13086
 Alpha virt. eigenvalues --    1.15285   1.15879   1.17910   1.19885   1.19902
 Alpha virt. eigenvalues --    1.21316   1.22746   1.25107   1.25337   1.27164
 Alpha virt. eigenvalues --    1.28465   1.29032   1.33420   1.34086   1.35537
 Alpha virt. eigenvalues --    1.35850   1.36452   1.38294   1.39822   1.40236
 Alpha virt. eigenvalues --    1.41513   1.44038   1.44867   1.44965   1.48649
 Alpha virt. eigenvalues --    1.49404   1.51007   1.53441   1.54175   1.54734
 Alpha virt. eigenvalues --    1.56168   1.56390   1.59009   1.59396   1.60269
 Alpha virt. eigenvalues --    1.60411   1.63891   1.68576   1.69286   1.70347
 Alpha virt. eigenvalues --    1.72614   1.74916   1.79621   1.82443   1.83838
 Alpha virt. eigenvalues --    1.85606   1.87598   1.89418   1.93788   1.96498
 Alpha virt. eigenvalues --    2.04961   2.07220   2.13080   2.20754   2.23345
 Alpha virt. eigenvalues --    2.44942   2.56424   2.63656   2.65054   2.70514
 Alpha virt. eigenvalues --    2.70987   2.71645   2.73955   2.77767   2.79808
 Alpha virt. eigenvalues --    2.82621   2.82811   2.86550   2.89425   2.92410
 Alpha virt. eigenvalues --    2.93038   2.95055   2.97585   2.99189   3.01232
 Alpha virt. eigenvalues --    3.01351   3.03653   3.07036   3.08362   3.09195
 Alpha virt. eigenvalues --    3.10476   3.11753   3.13180   3.14663   3.15371
 Alpha virt. eigenvalues --    3.17666   3.20256   3.20439   3.24175   3.25634
 Alpha virt. eigenvalues --    3.25719   3.27229   3.32085   3.32737   3.33713
 Alpha virt. eigenvalues --    3.34270   3.36953   3.38205   3.38395   3.40775
 Alpha virt. eigenvalues --    3.41093   3.43586   3.43785   3.45029   3.45372
 Alpha virt. eigenvalues --    3.47779   3.48282   3.50581   3.50754   3.54967
 Alpha virt. eigenvalues --    3.56638   3.56977   3.57307   3.61772   3.62245
 Alpha virt. eigenvalues --    3.63934   3.64910   3.67788   3.68892   3.70073
 Alpha virt. eigenvalues --    3.71003   3.71703   3.74169   3.76953   3.78254
 Alpha virt. eigenvalues --    3.81568   3.83976   3.84502   3.87255   3.87336
 Alpha virt. eigenvalues --    3.88761   3.89387   3.92733   3.93642   3.94070
 Alpha virt. eigenvalues --    3.96611   3.96620   3.98878   4.01903   4.03199
 Alpha virt. eigenvalues --    4.05022   4.06510   4.07372   4.12073   4.12722
 Alpha virt. eigenvalues --    4.13838   4.14404   4.17728   4.18771   4.18992
 Alpha virt. eigenvalues --    4.20756   4.24104   4.26937   4.27831   4.28010
 Alpha virt. eigenvalues --    4.29769   4.30542   4.33489   4.33995   4.34613
 Alpha virt. eigenvalues --    4.35427   4.39236   4.39312   4.43811   4.45245
 Alpha virt. eigenvalues --    4.45267   4.45950   4.48141   4.49214   4.52900
 Alpha virt. eigenvalues --    4.53142   4.53680   4.58102   4.58939   4.61854
 Alpha virt. eigenvalues --    4.64412   4.64878   4.67397   4.67792   4.68965
 Alpha virt. eigenvalues --    4.72935   4.73079   4.75262   4.78831   4.82035
 Alpha virt. eigenvalues --    4.83763   4.88733   4.89759   4.95175   4.95932
 Alpha virt. eigenvalues --    4.96065   5.03298   5.03546   5.10293   5.11866
 Alpha virt. eigenvalues --    5.13238   5.16034   5.17209   5.18333   5.24130
 Alpha virt. eigenvalues --    5.27684   5.27855   5.29892   5.31822   5.33101
 Alpha virt. eigenvalues --    5.34771   5.40010   5.42962   5.43954   5.45386
 Alpha virt. eigenvalues --    5.46993   5.47671   5.50180   5.52628   5.52955
 Alpha virt. eigenvalues --    5.56817   5.57239   5.59964   5.63310   5.64924
 Alpha virt. eigenvalues --    5.66545   5.70290   5.72380   5.77546   5.81288
 Alpha virt. eigenvalues --    5.82614   5.87908   5.92032   5.95630   5.99184
 Alpha virt. eigenvalues --    6.00078   6.13100   6.15293   6.17884   6.20123
 Alpha virt. eigenvalues --    6.27349   6.27735   6.31560   6.32912   6.35869
 Alpha virt. eigenvalues --    6.38525   6.43678   6.44727   6.52220  10.75086
 Alpha virt. eigenvalues --   11.67464  12.63213  13.41334  13.83339  13.97947
          Condensed to atoms (all electrons):
              1          2          3          4          5          6
     1  C    4.877340   0.332993  -0.057006   0.360310  -0.046059   0.006473
     2  C    0.332993   4.876963   0.360457  -0.057077  -0.046069   0.006464
     3  C   -0.057006   0.360457   4.739574  -0.058870   0.344147  -0.049981
     4  C    0.360310  -0.057077  -0.058870   4.739540   0.344187  -0.050010
     5  N   -0.046059  -0.046069   0.344147   0.344187   6.598991   0.348229
     6  C    0.006473   0.006464  -0.049981  -0.050010   0.348229   4.680636
     7  H   -0.037739   0.426230  -0.037162   0.005765   0.001977  -0.000359
     8  H   -0.036051   0.427110  -0.035556   0.005126   0.003731  -0.000255
     9  H    0.005530  -0.024052   0.424074   0.006873  -0.031092  -0.002758
    10  H    0.000276  -0.055008   0.429016  -0.004702  -0.069699  -0.008209
    11  H   -0.055175   0.000393  -0.004795   0.429228  -0.069714  -0.008209
    12  H   -0.024017   0.005506   0.006889   0.424021  -0.031091  -0.002754
    13  H   -0.000562  -0.000547  -0.010724  -0.010687  -0.066038   0.417415
    14  H   -0.000287   0.000133  -0.005738   0.007604  -0.034148   0.417774
    15  H    0.000136  -0.000290   0.007611  -0.005744  -0.034141   0.417768
    16  H    0.427069  -0.036018   0.005102  -0.035542   0.003730  -0.000255
    17  H    0.426245  -0.037727   0.005774  -0.037161   0.001971  -0.000359
              7          8          9         10         11         12
     1  C   -0.037739  -0.036051   0.005530   0.000276  -0.055175  -0.024017
     2  C    0.426230   0.427110  -0.024052  -0.055008   0.000393   0.005506
     3  C   -0.037162  -0.035556   0.424074   0.429016  -0.004795   0.006889
     4  C    0.005765   0.005126   0.006873  -0.004702   0.429228   0.424021
     5  N    0.001977   0.003731  -0.031092  -0.069699  -0.069714  -0.031091
     6  C   -0.000359  -0.000255  -0.002758  -0.008209  -0.008209  -0.002754
     7  H    0.590866  -0.031683  -0.008562   0.007090  -0.000115  -0.000334
     8  H   -0.031683   0.581928   0.000611  -0.004354   0.000999  -0.000312
     9  H   -0.008562   0.000611   0.592861  -0.049533  -0.001012  -0.000068
    10  H    0.007090  -0.004354  -0.049533   0.677771   0.013727  -0.001013
    11  H   -0.000115   0.000999  -0.001012   0.013727   0.677754  -0.049555
    12  H   -0.000334  -0.000312  -0.000068  -0.001013  -0.049555   0.592916
    13  H    0.000038   0.000103  -0.001940   0.016820   0.016822  -0.001938
    14  H   -0.000048  -0.000037   0.002573  -0.002952  -0.000642   0.000017
    15  H    0.000020   0.000015   0.000017  -0.000642  -0.002956   0.002574
    16  H    0.004354  -0.008148  -0.000312   0.001003  -0.004383   0.000626
    17  H   -0.011569   0.004339  -0.000333  -0.000117   0.007080  -0.008561
             13         14         15         16         17
     1  C   -0.000562  -0.000287   0.000136   0.427069   0.426245
     2  C   -0.000547   0.000133  -0.000290  -0.036018  -0.037727
     3  C   -0.010724  -0.005738   0.007611   0.005102   0.005774
     4  C   -0.010687   0.007604  -0.005744  -0.035542  -0.037161
     5  N   -0.066038  -0.034148  -0.034141   0.003730   0.001971
     6  C    0.417415   0.417774   0.417768  -0.000255  -0.000359
     7  H    0.000038  -0.000048   0.000020   0.004354  -0.011569
     8  H    0.000103  -0.000037   0.000015  -0.008148   0.004339
     9  H   -0.001940   0.002573   0.000017  -0.000312  -0.000333
    10  H    0.016820  -0.002952  -0.000642   0.001003  -0.000117
    11  H    0.016822  -0.000642  -0.002956  -0.004383   0.007080
    12  H   -0.001938   0.000017   0.002574   0.000626  -0.008561
    13  H    0.680192  -0.046216  -0.046211   0.000103   0.000037
    14  H   -0.046216   0.596829  -0.024466   0.000015   0.000020
    15  H   -0.046211  -0.024466   0.596821  -0.000037  -0.000048
    16  H    0.000103   0.000015  -0.000037   0.581975  -0.031690
    17  H    0.000037   0.000020  -0.000048  -0.031690   0.590817
 Mulliken atomic charges:
              1
     1  C   -0.179475
     2  C   -0.179461
     3  C   -0.062812
     4  C   -0.062862
     5  N   -0.218911
     6  C   -0.171610
     7  H    0.091234
     8  H    0.092433
     9  H    0.087123
    10  H    0.050526
    11  H    0.050554
    12  H    0.087094
    13  H    0.053332
    14  H    0.089570
    15  H    0.089573
    16  H    0.092410
    17  H    0.091281
 Sum of Mulliken atomic charges =   0.00000
 Mulliken charges with hydrogens summed into heavy atoms:
              1
     1  C    0.004216
     2  C    0.004205
     3  C    0.074838
     4  C    0.074786
     5  N   -0.218911
     6  C    0.060866
 Sum of Mulliken charges with hydrogens summed into heavy atoms =   0.00000
 Electronic spatial extent (au):  <R**2>=            601.6946
 Charge=              0.0000 electrons
 Dipole moment (field-independent basis, Debye):
    X=             -0.0858    Y=              0.0000    Z=              0.6098  Tot=              0.6158
 Quadrupole moment (field-independent basis, Debye-Ang):
   XX=            -38.9317   YY=            -38.7917   ZZ=            -40.7782
   XY=             -0.0001   XZ=              0.0337   YZ=             -0.0011
 Traceless Quadrupole moment (field-independent basis, Debye-Ang):
   XX=              0.5688   YY=              0.7089   ZZ=             -1.2777
   XY=             -0.0001   XZ=              0.0337   YZ=             -0.0011
 Octapole moment (field-independent basis, Debye-Ang**2):
  XXX=              4.5588  YYY=             -0.0033  ZZZ=              0.2269  XYY=              1.9422
  XXY=             -0.0015  XXZ=             -1.0781  XZZ=             -2.1677  YZZ=              0.0025
  YYZ=             -2.8108  XYZ=              0.0014
 Hexadecapole moment (field-independent basis, Debye-Ang**3):
 XXXX=           -505.7475 YYYY=           -248.9111 ZZZZ=            -89.3460 XXXY=              0.0035
 XXXZ=             -7.2121 YYYX=             -0.0034 YYYZ=             -0.0049 ZZZX=              1.5789
 ZZZY=              0.0018 XXYY=           -125.1092 XXZZ=            -96.5153 YYZZ=            -55.2068
 XXYZ=             -0.0074 YYXZ=             -3.3752 ZZXY=             -0.0008
 N-N= 2.581866093665D+02 E-N=-1.099043057685D+03  KE= 2.496413679298D+02
 1\1\GINC-ROCK\SP\RMP2-FC\CC-pVTZ\C5H11N1\STYLIANAKIS\04-Jun-2016\0\\# 
 mp2/cc-pVTZ\\N-methylpyrrolidine-lp.hin\\0,1\C,0,0.85433,-0.11314,0.39
 592\C,0,-0.00334,-1.38272,0.23432\C,0,-1.30065,-0.87853,-0.41887\C,0,-
 0.02574,1.00987,-0.17706\N,0,-1.37938,0.51297,-0.01518\C,0,-2.37235,1.
 27671,-0.74437\H,0,-0.22287,-1.8307,1.23322\H,0,0.49912,-2.15738,-0.39
 269\H,0,-2.19973,-1.45031,-0.08638\H,0,-1.21681,-0.95737,-1.52997\H,0,
 0.2087,1.15523,-1.25951\H,0,0.11738,1.98134,0.3536\H,0,-2.1681,1.27905
 ,-1.84024\H,0,-3.38629,0.84667,-0.57306\H,0,-2.3841,2.33107,-0.38308\H
 ,0,1.82871,-0.18792,-0.14325\H,0,1.06654,0.07529,1.4758\X,0,-1.52099,0
 .53364,0.56997\\Version=EM64L-G09RevA.01\State=1-A\HF=-250.2571448\MP2
 =-251.3350972\RMSD=8.476e-09\PG=C01 [X(C5H11N1)]\\@


 I HAVE NOT FAILED, I HAVE ONLY DISCOVERED 10,000
 WAYS THAT DIDN'T WORK.  -- THOMAS A. EDISON
 Job cpu time:  0 days  1 hours  3 minutes 54.8 seconds.
 File lengths (MBytes):  RWF=     64 Int=      0 D2E=      0 Chk=      6 Scr=      1
 Normal termination of Gaussian 09 at Sat Jun  4 03:37:58 2016.
