 Entering Link 1 = C:\G03W\l1.exe PID=      3288.
  
 Copyright (c) 1988,1990,1992,1993,1995,1998,2003,2004, Gaussian, Inc.
                  All Rights Reserved.
  
 This is the Gaussian(R) 03 program.  It is based on the
 the Gaussian(R) 98 system (copyright 1998, Gaussian, Inc.),
 the Gaussian(R) 94 system (copyright 1995, Gaussian, Inc.),
 the Gaussian 92(TM) system (copyright 1992, Gaussian, Inc.),
 the Gaussian 90(TM) system (copyright 1990, Gaussian, Inc.),
 the Gaussian 88(TM) system (copyright 1988, Gaussian, Inc.),
 the Gaussian 86(TM) system (copyright 1986, Carnegie Mellon
 University), and the Gaussian 82(TM) system (copyright 1983,
 Carnegie Mellon University). Gaussian is a federally registered
 trademark of Gaussian, Inc.
  
 This software contains proprietary and confidential information,
 including trade secrets, belonging to Gaussian, Inc.
  
 This software is provided under written license and may be
 used, copied, transmitted, or stored only in accord with that
 written license.
  
 The following legend is applicable only to US Government
 contracts under FAR:
  
                    RESTRICTED RIGHTS LEGEND
  
 Use, reproduction and disclosure by the US Government is
 subject to restrictions as set forth in subparagraphs (a)
 and (c) of the Commercial Computer Software - Restricted
 Rights clause in FAR 52.227-19.
  
 Gaussian, Inc.
 340 Quinnipiac St., Bldg. 40, Wallingford CT 06492
  
  
 ---------------------------------------------------------------
 Warning -- This program may not be used in any manner that
 competes with the business of Gaussian, Inc. or will provide
 assistance to any competitor of Gaussian, Inc.  The licensee
 of this program is prohibited from giving any competitor of
 Gaussian, Inc. access to this program.  By using this program,
 the user acknowledges that Gaussian, Inc. is engaged in the
 business of creating and licensing software in the field of
 computational chemistry and represents and warrants to the
 licensee that it is not a competitor of Gaussian, Inc. and that
 it will not use this program in any manner prohibited above.
 ---------------------------------------------------------------
  

 Cite this work as:
 Gaussian 03, Revision D.01,
 M. J. Frisch, G. W. Trucks, H. B. Schlegel, G. E. Scuseria, 
 M. A. Robb, J. R. Cheeseman, J. A. Montgomery, Jr., T. Vreven, 
 K. N. Kudin, J. C. Burant, J. M. Millam, S. S. Iyengar, J. Tomasi, 
 V. Barone, B. Mennucci, M. Cossi, G. Scalmani, N. Rega, 
 G. A. Petersson, H. Nakatsuji, M. Hada, M. Ehara, K. Toyota, 
 R. Fukuda, J. Hasegawa, M. Ishida, T. Nakajima, Y. Honda, O. Kitao, 
 H. Nakai, M. Klene, X. Li, J. E. Knox, H. P. Hratchian, J. B. Cross, 
 V. Bakken, C. Adamo, J. Jaramillo, R. Gomperts, R. E. Stratmann, 
 O. Yazyev, A. J. Austin, R. Cammi, C. Pomelli, J. W. Ochterski, 
 P. Y. Ayala, K. Morokuma, G. A. Voth, P. Salvador, J. J. Dannenberg, 
 V. G. Zakrzewski, S. Dapprich, A. D. Daniels, M. C. Strain, 
 O. Farkas, D. K. Malick, A. D. Rabuck, K. Raghavachari, 
 J. B. Foresman, J. V. Ortiz, Q. Cui, A. G. Baboul, S. Clifford, 
 J. Cioslowski, B. B. Stefanov, G. Liu, A. Liashenko, P. Piskorz, 
 I. Komaromi, R. L. Martin, D. J. Fox, T. Keith, M. A. Al-Laham, 
 C. Y. Peng, A. Nanayakkara, M. Challacombe, P. M. W. Gill, 
 B. Johnson, W. Chen, M. W. Wong, C. Gonzalez, and J. A. Pople, 
 Gaussian, Inc., Wallingford CT, 2004.
 
 ******************************************
 Gaussian 03:  IA32W-G03RevD.01 13-Oct-2005
                11-Mar-2008 
 ******************************************
 --------------
 # opt dreiding
 --------------
 1/6=10,10=10,14=-1,18=4000020,38=1,56=1,64=1/1,3;
 2/9=110,17=6,18=5,40=1/2;
 3/5=30,11=9,16=1,25=1,30=1/1;
 4/20=9,22=1001,24=3/2;
 7/44=-1/16;
 1/6=10,10=10,14=-1,18=4000020,64=1/3(2);
 2/9=110/2;
 99//99;
 2/9=110/2;
 3/5=30,11=9,16=1,25=1,30=1/1;
 4/16=2,20=9,22=1001,24=3/2;
 7/44=-1/16;
 1/6=10,10=10,14=-1,18=4000020,64=1/3(-4);
 2/9=110/2;
 99//99;
 ------------------------------
 2,5-dimethyl-1,3-dioxane-eq,ax
 ------------------------------
 Symbolic Z-matrix:
 Charge =  0 Multiplicity = 1
 C                    -1.08019  -0.75391   0.85623 
 C                    -1.08019   0.78309   0.85623 
 C                     0.38081   1.26109   0.85623 
 O                    -0.33019  -1.21591  -0.27077 
 O                     1.05381   0.69209  -0.27077 
 C                     1.01881  -0.73891  -0.19177 
 C                     1.83181  -1.32891  -1.35877 
 C                    -1.80019   1.30509  -0.40177 
 H                    -2.10419  -1.12091   0.78923 
 H                    -0.62319  -1.11991   1.77523 
 H                    -1.59019   1.15309   1.74623 
 H                     0.87081   0.94009   1.77523 
 H                     0.41181   2.34909   0.78923 
 H                     1.45681  -1.05591   0.75423 
 H                     1.38881  -1.01991  -2.30477 
 H                     2.85981  -0.96891  -1.30377 
 H                     1.82481  -2.41691  -1.29277 
 H                    -1.29719   0.92709  -1.29177 
 H                    -2.83519   0.96309  -0.39577 
 H                    -1.77719   2.39509  -0.40677 
 
 Include all MM classes
 MMInit generated parameter data with length LenPar=  2173.

 GradGradGradGradGradGradGradGradGradGradGradGradGradGradGradGradGradGrad
 Berny optimization.
 Initialization pass.
 No Z-matrix variables, so optimization will use Cartesian coordinates.
 Trust Radius=1.00D-01 FncErr=1.00D-07 GrdErr=1.00D-07
 Number of steps in this run=   2 maximum allowed number of steps=   2.
 GradGradGradGradGradGradGradGradGradGradGradGradGradGradGradGradGradGrad

                          Input orientation:                          
 ---------------------------------------------------------------------
 Center     Atomic     Atomic              Coordinates (Angstroms)
 Number     Number      Type              X           Y           Z
 ---------------------------------------------------------------------
    1          6      10061003       -1.080188   -0.753906    0.856234
    2          6      10061003       -1.080188    0.783094    0.856234
    3          6      10061003        0.380813    1.261094    0.856234
    4          8      10081003       -0.330188   -1.215906   -0.270766
    5          8      10081003        1.053813    0.692094   -0.270766
    6          6      10061003        1.018813   -0.738906   -0.191766
    7          6      10061003        1.831813   -1.328906   -1.358766
    8          6      10061003       -1.800188    1.305094   -0.401766
    9          1      10011000       -2.104188   -1.120906    0.789234
   10          1      10011000       -0.623188   -1.119906    1.775234
   11          1      10011000       -1.590188    1.153094    1.746234
   12          1      10011000        0.870813    0.940094    1.775234
   13          1      10011000        0.411813    2.349094    0.789234
   14          1      10011000        1.456813   -1.055906    0.754234
   15          1      10011000        1.388813   -1.019906   -2.304766
   16          1      10011000        2.859813   -0.968906   -1.303766
   17          1      10011000        1.824813   -2.416906   -1.292766
   18          1      10011000       -1.297188    0.927094   -1.291766
   19          1      10011000       -2.835188    0.963094   -0.395766
   20          1      10011000       -1.777188    2.395094   -0.406766
 ---------------------------------------------------------------------
                    Distance matrix (angstroms):
                    1          2          3          4          5
     1  C    0.000000
     2  C    1.537000   0.000000
     3  C    2.488925   1.537207   0.000000
     4  O    1.430410   2.414256   2.812682   0.000000
     5  O    2.813361   2.415029   1.430671   2.357100   0.000000
     6  C    2.346131   2.796532   2.346348   1.433029   1.433606
     7  C    3.703592   4.224513   3.704015   2.422965   2.423524
     8  C    2.518024   1.540600   2.518186   2.921216   2.922028
     9  H    1.089841   2.162933   3.442911   2.068744   3.792563
    10  H    1.089663   2.162133   2.742579   2.069101   3.206523
    11  H    2.165375   1.090459   2.165319   3.356792   3.357312
    12  H    2.742371   2.162316   1.089817   3.205753   2.069084
    13  H    3.443713   2.164003   1.090502   3.792544   2.069158
    14  H    2.556947   3.135075   2.556691   2.066300   2.066044
    15  H    4.019781   4.397578   4.026282   2.670306   2.679613
    16  H    4.498380   4.822728   3.972901   3.362172   2.662263
    17  H    3.977788   4.826720   4.497891   2.670376   3.362262
    18  H    2.736193   2.163730   2.746114   2.563197   2.573882
    19  H    2.756015   2.163314   3.463952   3.322453   3.900434
    20  H    3.463694   2.163220   2.745558   3.892509   3.306549
                    6          7          8          9         10
     6  C    0.000000
     7  C    1.539792   0.000000
     8  C    3.488380   4.587508   0.000000
     9  H    3.295666   4.488793   2.719627   0.000000
    10  H    2.590447   3.986560   3.464864   1.779202   0.000000
    11  H    3.760637   5.245134   2.163587   2.520143   2.470316
    12  H    2.590373   3.986708   3.465082   3.751072   2.544727
    13  H    3.296446   4.489765   2.720544   4.286159   3.751984
    14  H    1.089610   2.163313   4.185535   3.561765   2.317960
    15  H    2.163476   1.089333   4.381410   4.667342   4.550225
    16  H    2.163036   1.090600   5.263106   5.389346   4.651272
    17  H    2.162758   1.090022   5.271413   4.631564   4.133707
    18  H    3.057681   3.858065   1.089951   3.029210   3.748463
    19  H    4.218025   5.287866   1.090057   2.506320   3.734310
    20  H    4.205448   5.272510   1.090254   3.728217   4.295121
                   11         12         13         14         15
    11  H    0.000000
    12  H    2.470371   0.000000
    13  H    2.520768   1.779932   0.000000
    14  H    3.892037   2.317294   3.561920   0.000000
    15  H    5.477862   4.555911   4.677342   3.059967   0.000000
    16  H    5.797231   4.132873   4.624119   2.492256   1.780012
    17  H    5.800228   4.646740   5.389439   2.485549   1.779283
    18  H    3.060452   3.755913   3.045214   3.962691   3.468656
    19  H    2.484812   4.295137   3.724007   4.880587   5.041701
    20  H    2.492577   3.726936   2.494845   4.869916   5.028736
                   16         17         18         19         20
    16  H    0.000000
    17  H    1.779902   0.000000
    18  H    4.568983   4.574847   0.000000
    19  H    6.081950   5.826200   1.780325   0.000000
    20  H    5.798523   6.075750   1.780070   1.780480   0.000000
 Stoichiometry    C6H12O2
 Framework group  C1[X(C6H12O2)]
 Deg. of freedom    54
 Full point group                 C1
 Largest Abelian subgroup         C1      NOp   1
 Largest concise Abelian subgroup C1      NOp   1
                         Standard orientation:                         
 ---------------------------------------------------------------------
 Center     Atomic     Atomic              Coordinates (Angstroms)
 Number     Number      Type              X           Y           Z
 ---------------------------------------------------------------------
    1          6      10061003        0.708548   -1.244326   -0.646475
    2          6      10061003        1.551672   -0.000126   -0.324798
    3          6      10061003        0.708727    1.244598   -0.645906
    4          8      10081003       -0.513675   -1.178186    0.093708
    5          8      10081003       -0.513946    1.178914    0.094079
    6          6      10061003       -1.244306   -0.000014   -0.269142
    7          6      10061003       -2.598648   -0.000509    0.463467
    8          6      10061003        1.934519   -0.000530    1.167474
    9          1      10011000        1.257952   -2.142637   -0.365500
   10          1      10011000        0.489457   -1.272116   -1.713523
   11          1      10011000        2.457458    0.000125   -0.931964
   12          1      10011000        0.489358    1.272611   -1.713049
   13          1      10011000        1.258234    2.143522   -0.364531
   14          1      10011000       -1.412528    0.000711   -1.345688
   15          1      10011000       -2.431033   -0.010646    1.539779
   16          1      10011000       -3.159193    0.894481    0.191087
   17          1      10011000       -3.166666   -0.885342    0.176108
   18          1      10011000        1.029639   -0.011367    1.774985
   19          1      10011000        2.531963   -0.885048    1.388641
   20          1      10011000        2.513261    0.895327    1.393641
 ---------------------------------------------------------------------
 Rotational constants (GHZ):      3.4355438      1.7104691      1.4734443
 Standard basis: Dummy (5D, 7F)
 There are    20 symmetry adapted basis functions of A   symmetry.
 Integral buffers will be    262144 words long.
 Raffenetti 1 integral format.
 Two-electron integral symmetry is turned on.
    20 basis functions,    20 primitive gaussians,    20 cartesian basis functions
    14 alpha electrons       14 beta electrons
       nuclear repulsion energy        78.6231522363 Hartrees.
 NAtoms=   20 NActive=   20 NUniq=   20 SFac= 7.50D-01 NAtFMM=   80 NAOKFM=F Big=F
 Dreiding calculation of energy and first derivatives.
 MO and density RWFs will be updated without deorthogonalization.
 NRF= 0 NRA=   0 NVA=  20 HaveQM=F
 Convergence limit is  0.750E-04 MaxStp=  5000 StMxLn= 1.00D-04 StpMin= 1.00D-06.
 Convergence criteria           0.00011250 0.00007500 0.00045000 0.00030000
  Step  NS  ND Rises OKQ   Scale  Max. Force  RMS Force Max. Disp.  RMS Disp.     Energy   Flag
     1   0   0   F    T  1.00D+00 0.01486777 0.00470714 0.01486777 0.00470714    0.0330536 ----
     2   0   0   F    F  1.64D+00 0.01486777 0.00470714 0.01486777 0.00470714    0.0319776 ----
     3   0   0   F    T  1.84D+00 0.01575376 0.00475680 0.02759333 0.00676270    0.0313024 ----
     4   0   0   F    F  8.91D-01 0.01575376 0.00475680 0.05079624 0.01244937    0.0294735 ----
     5   0   0   F    T  3.89D+00 0.01047744 0.00389192 0.02273955 0.00605902    0.0289570 ----
     6   0   0   F    F -2.00D-01 0.01047744 0.00389192 0.08836482 0.02354506    0.0276411 ----
     7   0   0   F    T  3.91D+00 0.01000972 0.00300680 0.01488593 0.00481619    0.0275545 ----
     8   0   0   F    F -3.51D-01 0.01000972 0.00300680 0.05820091 0.01883031    0.0270673 ----
     9   0   0   F    T  3.41D+00 0.00642919 0.00225453 0.00937047 0.00358543    0.0268678 ----
    10   0   0   F    F  6.06D-03 0.00642919 0.00225453 0.03193861 0.01222068    0.0263452 ----
    11   0   0   F    T  3.48D+00 0.00655064 0.00201762 0.00791353 0.00353619    0.0263451 ----
    12   0   0   F    F  9.01D-02 0.00655064 0.00201762 0.02751401 0.01229473    0.0258862 ----
    13   0   0   F    T  3.63D+00 0.00593699 0.00190452 0.00865866 0.00368752    0.0258831 ----
    14   0   0   F    F -3.93D-02 0.00593699 0.00190452 0.03146939 0.01340206    0.0255041 ----
    15   0   0   F    T  3.58D+00 0.00537643 0.00175910 0.00788664 0.00360118    0.0255035 ----
    16   0   0   F    F -1.48D-01 0.00537643 0.00175910 0.02819609 0.01287485    0.0252283 ----
    17   0   0   F    T  5.60D+00 0.00307810 0.00117196 0.00448654 0.00195987    0.0252197 ----
    18   0   0   F    F -4.73D-01 0.00307810 0.00117196 0.02512514 0.01097551    0.0251956 ----
    19   0   0   F    T  2.65D+00 0.00331162 0.00114354 0.00530399 0.00218721    0.0250981 ----
    20   0   0   F    F  1.03D-01 0.00331162 0.00114354 0.01403740 0.00578860    0.0249849 ----
    21   0   0   F    T  5.47D+00 0.00208065 0.00073195 0.00383430 0.00116823    0.0249839 ----
    22   0   0   F    F -4.56D-01 0.00208065 0.00073195 0.02095447 0.00638437    0.0249697 ----
    23   0   0   F    T  4.32D+00 0.00147748 0.00052704 0.00308833 0.00080465    0.0249361 ----
    24   0   0   F    F -2.85D-01 0.00147748 0.00052704 0.01333047 0.00347319    0.0249144 ----
    25   0   0   F    T  2.84D+00 0.00152156 0.00049867 0.00346380 0.00087552    0.0249103 ----
    26   0   0   F    F  6.55D-01 0.00152156 0.00049867 0.00982978 0.00248459    0.0248808 ----
    27   0   0   F    T  5.93D+00 0.00117317 0.00040091 0.00236754 0.00069343    0.0248753 ----
    28   0   0   T    F  4.78D-01 0.00117317 0.00040091 0.01403607 0.00411104    0.0248779 ----
    29   0   0   F    T  2.79D+00 0.00105310 0.00037246 0.00181510 0.00070450    0.0248616 ----
    30   0   0   F    F  6.19D-02 0.00105310 0.00037246 0.00506280 0.00196504    0.0248494 ----
    31   0   0   F    T  4.57D+00 0.00080682 0.00026934 0.00111497 0.00045629    0.0248493 ----
    32   0   0   F    F -2.59D-01 0.00080682 0.00026934 0.00509870 0.00208658    0.0248428 ----
    33   0   0   F    T  2.15D+00 0.00092867 0.00031994 0.00198221 0.00071893    0.0248419 ----
    34   0   0   F    F  9.32D-01 0.00092867 0.00031994 0.00426321 0.00154623    0.0248321 ----
    35   0   0   F    T  1.50D+01 0.00033895 0.00014049 0.00052649 0.00019857    0.0248292 ---+
    36   0   0   T    F  1.80D-01 0.00033895 0.00014049 0.00791889 0.00298663    0.0248610 ----
    37   0   0   F    T  2.36D+00 0.00043442 0.00013484 0.00076108 0.00022726    0.0248276 ---+
    38   0   0   F    F  8.87D-01 0.00043442 0.00013484 0.00179621 0.00053635    0.0248257 ----
    39   0   0   F    T  4.85D+00 0.00034596 0.00011745 0.00070592 0.00020859    0.0248252 ---+
    40   0   0   F    F -2.86D-01 0.00034596 0.00011745 0.00342570 0.00101224    0.0248240 ----
    41   0   0   F    T  2.52D+00 0.00059992 0.00013012 0.00094742 0.00028716    0.0248237 ---+
    42   0   0   F    F  6.84D-01 0.00059992 0.00013012 0.00238521 0.00072297    0.0248219 ----
    43   0   0   F    T  2.76D+00 0.00047893 0.00015583 0.00134382 0.00044056    0.0248216 ----
    44   0   0   F    F  4.11D-01 0.00047893 0.00015583 0.00371263 0.00121714    0.0248190 ----
    45   0   0   F    T  5.03D+00 0.00050706 0.00013172 0.00086485 0.00034144    0.0248187 ----
    46   0   0   F    F -1.27D-01 0.00050706 0.00013172 0.00435049 0.00171754    0.0248165 ----
    47   0   0   F    T  5.40D+00 0.00035569 0.00011348 0.00072446 0.00027781    0.0248164 ---+
    48   0   0   F    T  3.09D+00 0.00050789 0.00014660 0.00140959 0.00048565    0.0248144 ----
    49   0   0   F    F -2.56D-01 0.00050789 0.00014660 0.00435123 0.00149913    0.0248130 ----
    50   0   0   F    T  6.14D+00 0.00028793 0.00008376 0.00049482 0.00018164    0.0248129 ---+
    51   0   0   F    F -1.19D-01 0.00028793 0.00008376 0.00303792 0.00111517    0.0248118 ----
    52   0   0   F    T  1.64D+00 0.00041860 0.00014981 0.00168676 0.00059959    0.0248117 ----
    53   0   0   F    F  2.62D+00 0.00041860 0.00014981 0.00276506 0.00098290    0.0248098 ----
    54   0   0   F    T  7.52D+00 0.00042077 0.00013038 0.00137239 0.00047342    0.0248077 ----
    55   0   0   T    F  4.57D-01 0.00042077 0.00013038 0.01032715 0.00356247    0.0248085 ----
    56   0   0   F    T  1.98D+00 0.00045993 0.00016977 0.00236221 0.00082056    0.0248060 ----
    57   0   0   F    F  2.62D+00 0.00045993 0.00016977 0.00468251 0.00162656    0.0248030 ----
    58   0   0   F    T  5.03D+00 0.00050336 0.00020102 0.00353796 0.00116812    0.0247998 ----
    59   0   0   F    F -3.73D-01 0.00050336 0.00020102 0.01781179 0.00588085    0.0247973 ----
    60   0   0   F    T  4.38D+00 0.00046294 0.00016927 0.00242658 0.00084125    0.0247960 ----
    61   0   0   F    F -3.97D-01 0.00046294 0.00016927 0.01062914 0.00368495    0.0247947 ----
    62   0   0   F    T  9.68D+00 0.00025667 0.00008555 0.00055945 0.00022965    0.0247937 ---+
    63   0   0   T    F  2.75D-01 0.00025667 0.00008555 0.00541356 0.00222221    0.0247971 ----
    64   0   0   F    T  2.68D+00 0.00025841 0.00008242 0.00053155 0.00022853    0.0247931 ---+
    65   0   0   F    F  3.06D-01 0.00025841 0.00008242 0.00142390 0.00061217    0.0247924 ----
    66   0   0   F    T  5.60D+00 0.00017021 0.00006188 0.00034282 0.00014285    0.0247924 -+++
    67   0   0   F    F -4.91D-01 0.00017021 0.00006188 0.00191898 0.00079964    0.0247924 -+--
    68   0   0   F    T  6.60D+00 0.00012105 0.00003651 0.00013969 0.00006171    0.0247921 -+++
    69   0   0   T    F  3.93D-01 0.00012105 0.00003651 0.00092179 0.00040725    0.0247922 -+--
    70   0   0   F    T  4.96D+00 0.00007409 0.00002240 0.00007784 0.00003227    0.0247920 ====
 Energy=    0.024791951762 NIter=   0.
 Dipole moment=       0.000000       0.000000       0.000000
 ***** Axes restored to original set *****
 -------------------------------------------------------------------
 Center     Atomic                   Forces (Hartrees/Bohr)
 Number     Number              X              Y              Z
 -------------------------------------------------------------------
    1          6           0.000043250   -0.000002793   -0.000037140
    2          6           0.000016412   -0.000016681    0.000007702
    3          6          -0.000001404   -0.000018218   -0.000016980
    4          8          -0.000047224    0.000003570    0.000001500
    5          8          -0.000009807    0.000041202   -0.000025019
    6          6           0.000021530   -0.000001295    0.000014524
    7          6           0.000016665   -0.000041377   -0.000016589
    8          6           0.000011929   -0.000017966    0.000071586
    9          1          -0.000044942   -0.000002496    0.000024424
   10          1          -0.000002111    0.000006746   -0.000006529
   11          1          -0.000030209    0.000022493   -0.000017355
   12          1          -0.000007226   -0.000003896   -0.000002306
   13          1          -0.000007539    0.000020694    0.000029165
   14          1           0.000005101   -0.000011343    0.000011390
   15          1          -0.000002267   -0.000000938   -0.000053199
   16          1           0.000012922    0.000021119    0.000016432
   17          1           0.000006048    0.000002338    0.000022887
   18          1          -0.000003881   -0.000013261   -0.000019409
   19          1          -0.000007233   -0.000005063    0.000006149
   20          1           0.000029986    0.000017164   -0.000011231
 -------------------------------------------------------------------
 Cartesian Forces:  Max     0.000071586 RMS     0.000022397

 GradGradGradGradGradGradGradGradGradGradGradGradGradGradGradGradGradGrad
 Berny optimization.
 Search for a local minimum.
 Step number   1 out of a maximum of   2
 All quantities printed in internal units (Hartrees-Bohrs-Radians)
 Second derivative matrix not updated -- unit matrix used.
 RFO step:  Lambda=-3.00982229D-08.
 Linear search not attempted -- first point.
 TrRot=  0.000000  0.000000  0.000000  0.000000  0.000000  0.000000
 Variable       Old X    -DE/DX   Delta X   Delta X   Delta X     New X
                                 (Linear)    (Quad)   (Total)
    X1       -2.05929   0.00004   0.00000   0.00004   0.00004  -2.05925
    Y1       -1.43428   0.00000   0.00000   0.00000   0.00000  -1.43428
    Z1        1.60037  -0.00004   0.00000  -0.00004  -0.00004   1.60033
    X2       -2.07193   0.00002   0.00000   0.00002   0.00002  -2.07192
    Y2        1.50412  -0.00002   0.00000  -0.00002  -0.00002   1.50411
    Z2        1.57000   0.00001   0.00000   0.00001   0.00001   1.57001
    X3        0.72474   0.00000   0.00000   0.00000   0.00000   0.72474
    Y3        2.40612  -0.00002   0.00000  -0.00002  -0.00002   2.40610
    Z3        1.59531  -0.00002   0.00000  -0.00002  -0.00002   1.59530
    X4       -0.47751  -0.00005   0.00000  -0.00005  -0.00005  -0.47756
    Y4       -2.44044   0.00000   0.00000   0.00000   0.00000  -2.44044
    Z4       -0.37568   0.00000   0.00000   0.00000   0.00000  -0.37567
    X5        2.17112  -0.00001   0.00000  -0.00001  -0.00001   2.17111
    Y5        1.21174   0.00004   0.00000   0.00004   0.00004   1.21178
    Z5       -0.37970  -0.00003   0.00000  -0.00003  -0.00003  -0.37973
    X6        2.09065   0.00002   0.00000   0.00002   0.00002   2.09067
    Y6       -1.51634   0.00000   0.00000   0.00000   0.00000  -1.51634
    Z6       -0.28602   0.00001   0.00000   0.00001   0.00001  -0.28600
    X7        3.53252   0.00002   0.00000   0.00002   0.00002   3.53253
    Y7       -2.56485  -0.00004   0.00000  -0.00004  -0.00004  -2.56489
    Z7       -2.58678  -0.00002   0.00000  -0.00002  -0.00002  -2.58680
    X8       -3.54982   0.00001   0.00000   0.00001   0.00001  -3.54981
    Y8        2.57263  -0.00002   0.00000  -0.00002  -0.00002   2.57261
    Z8       -0.72974   0.00007   0.00000   0.00007   0.00007  -0.72967
    X9       -3.97334  -0.00004   0.00000  -0.00004  -0.00004  -3.97338
    Y9       -2.15667   0.00000   0.00000   0.00000   0.00000  -2.15667
    Z9        1.33179   0.00002   0.00000   0.00002   0.00002   1.33181
   X10       -1.39873   0.00000   0.00000   0.00000   0.00000  -1.39873
   Y10       -2.12121   0.00001   0.00000   0.00001   0.00001  -2.12120
   Z10        3.43608  -0.00001   0.00000  -0.00001  -0.00001   3.43607
   X11       -3.00173  -0.00003   0.00000  -0.00003  -0.00003  -3.00176
   Y11        2.18019   0.00002   0.00000   0.00002   0.00002   2.18021
   Z11        3.28957  -0.00002   0.00000  -0.00002  -0.00002   3.28955
   X12        1.58509  -0.00001   0.00000  -0.00001  -0.00001   1.58508
   Y12        1.99579   0.00000   0.00000   0.00000   0.00000   1.99578
   Z12        3.43089   0.00000   0.00000   0.00000   0.00000   3.43089
   X13        0.81548  -0.00001   0.00000  -0.00001  -0.00001   0.81547
   Y13        4.44944   0.00002   0.00000   0.00002   0.00002   4.44946
   Z13        1.32237   0.00003   0.00000   0.00003   0.00003   1.32240
   X14        3.03470   0.00001   0.00000   0.00001   0.00001   3.03471
   Y14       -2.19903  -0.00001   0.00000  -0.00001  -0.00001  -2.19904
   Z14        1.42641   0.00001   0.00000   0.00001   0.00001   1.42642
   X15        2.64751   0.00000   0.00000   0.00000   0.00000   2.64750
   Y15       -1.92090   0.00000   0.00000   0.00000   0.00000  -1.92090
   Z15       -4.33552  -0.00005   0.00000  -0.00005  -0.00005  -4.33557
   X16        5.49055   0.00001   0.00000   0.00001   0.00001   5.49056
   Y16       -1.91618   0.00002   0.00000   0.00002   0.00002  -1.91615
   Z16       -2.55211   0.00002   0.00000   0.00002   0.00002  -2.55209
   X17        3.51810   0.00001   0.00000   0.00001   0.00001   3.51811
   Y17       -4.62755   0.00000   0.00000   0.00000   0.00000  -4.62755
   Z17       -2.55249   0.00002   0.00000   0.00002   0.00002  -2.55246
   X18       -2.69752   0.00000   0.00000   0.00000   0.00000  -2.69752
   Y18        1.95961  -0.00001   0.00000  -0.00001  -0.00001   1.95959
   Z18       -2.50624  -0.00002   0.00000  -0.00002  -0.00002  -2.50626
   X19       -5.50884  -0.00001   0.00000  -0.00001  -0.00001  -5.50884
   Y19        1.92687  -0.00001   0.00000  -0.00001  -0.00001   1.92686
   Z19       -0.68118   0.00001   0.00000   0.00001   0.00001  -0.68118
   X20       -3.55468   0.00003   0.00000   0.00003   0.00003  -3.55465
   Y20        4.63523   0.00002   0.00000   0.00002   0.00002   4.63524
   Z20       -0.67811  -0.00001   0.00000  -0.00001  -0.00001  -0.67812
         Item               Value     Threshold  Converged?
 Maximum Force            0.000072     0.000450     YES
 RMS     Force            0.000022     0.000300     YES
 Maximum Displacement     0.000072     0.001800     YES
 RMS     Displacement     0.000022     0.001200     YES
 Predicted change in Energy=-1.504911D-08
 Optimization completed.
    -- Stationary point found.
 GradGradGradGradGradGradGradGradGradGradGradGradGradGradGradGradGradGrad

                          Input orientation:                          
 ---------------------------------------------------------------------
 Center     Atomic     Atomic              Coordinates (Angstroms)
 Number     Number      Type              X           Y           Z
 ---------------------------------------------------------------------
    1          6      10061003       -1.089729   -0.758988    0.846878
    2          6      10061003       -1.096420    0.795948    0.830810
    3          6      10061003        0.383516    1.273264    0.844204
    4          8      10081003       -0.252686   -1.291426   -0.198799
    5          8      10081003        1.148906    0.641224   -0.200931
    6          6      10061003        1.106324   -0.802414   -0.151355
    7          6      10061003        1.869328   -1.357258   -1.368865
    8          6      10061003       -1.878486    1.361376   -0.386162
    9          1      10011000       -2.102599   -1.141260    0.704752
   10          1      10011000       -0.740176   -1.122494    1.818293
   11          1      10011000       -1.588448    1.153706    1.740764
   12          1      10011000        0.838793    1.056125    1.815550
   13          1      10011000        0.431532    2.354542    0.699767
   14          1      10011000        1.605895   -1.163674    0.754825
   15          1      10011000        1.401000   -1.016494   -2.294257
   16          1      10011000        2.905472   -1.013997   -1.350517
   17          1      10011000        1.861700   -2.448795   -1.350717
   18          1      10011000       -1.427466    1.036979   -1.326246
   19          1      10011000       -2.915150    1.019655   -0.360467
   20          1      10011000       -1.881055    2.452856   -0.358839
 ---------------------------------------------------------------------
                    Distance matrix (angstroms):
                    1          2          3          4          5
     1  C    0.000000
     2  C    1.555034   0.000000
     3  C    2.510081   1.555063   0.000000
     4  O    1.441378   2.475704   2.840817   0.000000
     5  O    2.840771   2.475867   1.441389   2.387383   0.000000
     6  C    2.412675   2.893353   2.412887   1.445093   1.445116
     7  C    3.744791   4.274404   3.744991   2.424115   2.424254
     8  C    2.576523   1.553177   2.576474   3.117000   3.117375
     9  H    1.091897   2.186564   3.468449   2.064251   3.817040
    10  H    1.094518   2.186882   2.819785   2.082028   3.279725
    11  H    2.169366   1.094577   2.169506   3.394824   3.394984
    12  H    2.819957   2.186883   1.094505   3.280232   2.081948
    13  H    3.468421   2.186555   1.091938   3.816891   2.064302
    14  H    2.727385   3.338922   2.727795   2.092855   2.092837
    15  H    4.017060   4.391822   4.015994   2.683508   2.682088
    16  H    4.566749   4.904001   4.050756   3.373038   2.673355
    17  H    4.049173   4.902846   4.566884   2.671526   3.373174
    18  H    2.839372   2.195582   2.836607   2.841253   2.839128
    19  H    2.820180   2.185627   3.520901   3.529298   4.084753
    20  H    3.520780   2.185466   2.822593   4.086177   3.533781
                    6          7          8          9         10
     6  C    0.000000
     7  C    1.540246   0.000000
     8  C    3.694078   4.733158   0.000000
     9  H    3.338402   4.485839   2.739253   0.000000
    10  H    2.718736   4.125845   3.510696   1.759694   0.000000
    11  H    3.829923   5.284973   2.156633   2.569930   2.430362
    12  H    2.719274   4.126368   3.510601   3.835905   2.690638
    13  H    3.338581   4.485973   2.738942   4.317693   3.835854
    14  H    1.096012   2.148704   4.451813   3.708900   2.576181
    15  H    2.173637   1.091697   4.477737   4.613549   4.637773
    16  H    2.172485   1.091677   5.427580   5.414896   4.831550
    17  H    2.172472   1.091714   5.425566   4.652985   4.309461
    18  H    3.344223   4.074683   1.091976   3.053766   3.876057
    19  H    4.419945   5.436710   1.091836   2.542535   3.750508
    20  H    4.423151   5.440817   1.091824   3.754727   4.338737
                   11         12         13         14         15
    11  H    0.000000
    12  H    2.430353   0.000000
    13  H    2.570214   1.759750   0.000000
    14  H    4.067696   2.577031   3.709448   0.000000
    15  H    5.470646   4.637062   4.611717   3.059501   0.000000
    16  H    5.869435   4.310515   4.655223   2.478663   1.775975
    17  H    5.868457   4.832809   5.414971   2.479975   1.775950
    18  H    3.073450   3.873911   3.049028   4.286608   3.626847
    19  H    2.488630   4.339179   3.755835   5.143019   5.149233
    20  H    2.486312   3.751853   2.545264   5.145712   5.153069
                   16         17         18         19         20
    16  H    0.000000
    17  H    1.774290   0.000000
    18  H    4.793896   4.792686   0.000000
    19  H    6.244644   5.985736   1.773763   0.000000
    20  H    5.992773   6.246456   1.773788   1.767320   0.000000
 Stoichiometry    C6H12O2
 Framework group  C1[X(C6H12O2)]
 Deg. of freedom    54
 Full point group                 C1
 Largest Abelian subgroup         C1      NOp   1
 Largest concise Abelian subgroup C1      NOp   1
                         Standard orientation:                         
 ---------------------------------------------------------------------
 Center     Atomic     Atomic              Coordinates (Angstroms)
 Number     Number      Type              X           Y           Z
 ---------------------------------------------------------------------
    1          6      10061003        0.709768   -1.254901   -0.631904
    2          6      10061003        1.571932   -0.000017   -0.315568
    3          6      10061003        0.709983    1.255180   -0.631392
    4          8      10081003       -0.569411   -1.193607    0.029544
    5          8      10081003       -0.569494    1.193776    0.029495
    6          6      10061003       -1.321247    0.000038   -0.283899
    7          6      10061003       -2.612824   -0.000116    0.555258
    8          6      10061003        2.082662   -0.000291    1.151235
    9          1      10011000        1.225093   -2.158848   -0.300907
   10          1      10011000        0.560754   -1.344847   -1.712494
   11          1      10011000        2.445881   -0.000060   -0.974591
   12          1      10011000        0.561316    1.345791   -1.711960
   13          1      10011000        1.225403    2.158845   -0.299639
   14          1      10011000       -1.605142    0.000037   -1.342505
   15          1      10011000       -2.370499    0.001650    1.619719
   16          1      10011000       -3.208311    0.886023    0.327419
   17          1      10011000       -3.206368   -0.888264    0.330001
   18          1      10011000        1.248638    0.002712    1.856080
   19          1      10011000        2.693897   -0.885530    1.337921
   20          1      10011000        2.698933    0.881782    1.336267
 ---------------------------------------------------------------------
 Rotational constants (GHZ):      3.3746974      1.6194055      1.3980160
 1|1|UNPC-UNK|FOpt|Dreiding|ZDO|C6H12O2|PCUSER|11-Mar-2008|0||# opt dre
 iding||2,5-dimethyl-1,3-dioxane-eq,ax||0,1|C,-1.0897286746,-0.75898804
 47,0.8468780036|C,-1.0964199588,0.7959481153,0.8308102704|C,0.38351587
 31,1.2732638935,0.8442038792|O,-0.2526863828,-1.2914259102,-0.19879864
 91|O,1.1489055329,0.6412238667,-0.2009306326|C,1.1063241651,-0.8024135
 938,-0.1513548445|C,1.869328035,-1.3572578052,-1.3688647404|C,-1.87848
 60041,1.361376372,-0.3861620358|H,-2.1025993389,-1.1412600403,0.704751
 6777|H,-0.7401759247,-1.1224940668,1.818292806|H,-1.5884479164,1.15370
 55731,1.7407640536|H,0.8387934351,1.0561246365,1.8155500771|H,0.431531
 5678,2.3545417548,0.6997674974|H,1.6058947016,-1.1636743194,0.75482467
 6|H,1.4010000813,-1.0164941986,-2.2942574839|H,2.9054715342,-1.0139967
 083,-1.3505173495|H,1.8617003631,-2.4487948089,-1.3507172049|H,-1.4274
 659821,1.0369794449,-1.3262462761|H,-2.9151501256,1.0196550586,-0.3604
 668798|H,-1.8810549814,2.4528557809,-0.3588394244||Version=IA32W-G03Re
 vD.01|HF=0.024792|RMSD=0.000e+000|RMSF=2.240e-005|Thermal=0.|Dipole=0.
 ,0.,0.|PG=C01 [X(C6H12O2)]||@


 A DANDELION FROM A LOVER MEANS MORE THAN AN ORCHID FROM A FRIEND.
 Job cpu time:  0 days  0 hours  0 minutes  3.0 seconds.
 File lengths (MBytes):  RWF=     11 Int=      0 D2E=      0 Chk=      4 Scr=      1
 Normal termination of Gaussian 03 at Tue Mar 11 14:02:12 2008.
