 Entering Link 1 = C:\G03W\l1.exe PID=      3604.
  
 Copyright (c) 1988,1990,1992,1993,1995,1998,2003,2004, Gaussian, Inc.
                  All Rights Reserved.
  
 This is the Gaussian(R) 03 program.  It is based on the
 the Gaussian(R) 98 system (copyright 1998, Gaussian, Inc.),
 the Gaussian(R) 94 system (copyright 1995, Gaussian, Inc.),
 the Gaussian 92(TM) system (copyright 1992, Gaussian, Inc.),
 the Gaussian 90(TM) system (copyright 1990, Gaussian, Inc.),
 the Gaussian 88(TM) system (copyright 1988, Gaussian, Inc.),
 the Gaussian 86(TM) system (copyright 1986, Carnegie Mellon
 University), and the Gaussian 82(TM) system (copyright 1983,
 Carnegie Mellon University). Gaussian is a federally registered
 trademark of Gaussian, Inc.
  
 This software contains proprietary and confidential information,
 including trade secrets, belonging to Gaussian, Inc.
  
 This software is provided under written license and may be
 used, copied, transmitted, or stored only in accord with that
 written license.
  
 The following legend is applicable only to US Government
 contracts under FAR:
  
                    RESTRICTED RIGHTS LEGEND
  
 Use, reproduction and disclosure by the US Government is
 subject to restrictions as set forth in subparagraphs (a)
 and (c) of the Commercial Computer Software - Restricted
 Rights clause in FAR 52.227-19.
  
 Gaussian, Inc.
 340 Quinnipiac St., Bldg. 40, Wallingford CT 06492
  
  
 ---------------------------------------------------------------
 Warning -- This program may not be used in any manner that
 competes with the business of Gaussian, Inc. or will provide
 assistance to any competitor of Gaussian, Inc.  The licensee
 of this program is prohibited from giving any competitor of
 Gaussian, Inc. access to this program.  By using this program,
 the user acknowledges that Gaussian, Inc. is engaged in the
 business of creating and licensing software in the field of
 computational chemistry and represents and warrants to the
 licensee that it is not a competitor of Gaussian, Inc. and that
 it will not use this program in any manner prohibited above.
 ---------------------------------------------------------------
  

 Cite this work as:
 Gaussian 03, Revision D.01,
 M. J. Frisch, G. W. Trucks, H. B. Schlegel, G. E. Scuseria, 
 M. A. Robb, J. R. Cheeseman, J. A. Montgomery, Jr., T. Vreven, 
 K. N. Kudin, J. C. Burant, J. M. Millam, S. S. Iyengar, J. Tomasi, 
 V. Barone, B. Mennucci, M. Cossi, G. Scalmani, N. Rega, 
 G. A. Petersson, H. Nakatsuji, M. Hada, M. Ehara, K. Toyota, 
 R. Fukuda, J. Hasegawa, M. Ishida, T. Nakajima, Y. Honda, O. Kitao, 
 H. Nakai, M. Klene, X. Li, J. E. Knox, H. P. Hratchian, J. B. Cross, 
 V. Bakken, C. Adamo, J. Jaramillo, R. Gomperts, R. E. Stratmann, 
 O. Yazyev, A. J. Austin, R. Cammi, C. Pomelli, J. W. Ochterski, 
 P. Y. Ayala, K. Morokuma, G. A. Voth, P. Salvador, J. J. Dannenberg, 
 V. G. Zakrzewski, S. Dapprich, A. D. Daniels, M. C. Strain, 
 O. Farkas, D. K. Malick, A. D. Rabuck, K. Raghavachari, 
 J. B. Foresman, J. V. Ortiz, Q. Cui, A. G. Baboul, S. Clifford, 
 J. Cioslowski, B. B. Stefanov, G. Liu, A. Liashenko, P. Piskorz, 
 I. Komaromi, R. L. Martin, D. J. Fox, T. Keith, M. A. Al-Laham, 
 C. Y. Peng, A. Nanayakkara, M. Challacombe, P. M. W. Gill, 
 B. Johnson, W. Chen, M. W. Wong, C. Gonzalez, and J. A. Pople, 
 Gaussian, Inc., Wallingford CT, 2004.
 
 ******************************************
 Gaussian 03:  IA32W-G03RevD.01 13-Oct-2005
                13-Dec-2007 
 ******************************************
 --------------
 # opt dreiding
 --------------
 1/6=10,10=10,14=-1,18=4000020,38=1,56=1,64=1/1,3;
 2/9=110,17=6,18=5,40=1/2;
 3/5=30,11=9,16=1,25=1,30=1/1;
 4/20=9,22=1001,24=3/2;
 7/44=-1/16;
 1/6=10,10=10,14=-1,18=4000020,64=1/3(2);
 2/9=110/2;
 99//99;
 2/9=110/2;
 3/5=30,11=9,16=1,25=1,30=1/1;
 4/16=2,20=9,22=1001,24=3/2;
 7/44=-1/16;
 1/6=10,10=10,14=-1,18=4000020,64=1/3(-4);
 2/9=110/2;
 99//99;
 ---------------
 2-butanone-skew
 ---------------
 Symbolic Z-matrix:
 Charge =  0 Multiplicity = 1
 C                     0.69708  -1.16303   0.9303 
 C                     0.39108  -0.38303  -0.3347 
 C                    -0.05493   1.06298  -0.1827 
 C                    -1.36393   1.20398   0.6033 
 O                     0.52608  -0.88803  -1.4267 
 H                     1.21408  -2.12102   0.6933 
 H                     1.35808  -0.57003   1.6013 
 H                    -0.24693  -1.40503   1.4693 
 H                     0.76008   1.62998   0.3243 
 H                    -0.18493   1.50998  -1.1967 
 H                    -2.17893   0.60798   0.1313 
 H                    -1.24993   0.85998   1.6573 
 H                    -1.69593   2.26698   0.6363 
 
 Include all MM classes
 MMInit generated parameter data with length LenPar=  1261.

 GradGradGradGradGradGradGradGradGradGradGradGradGradGradGradGradGradGrad
 Berny optimization.
 Initialization pass.
 No Z-matrix variables, so optimization will use Cartesian coordinates.
 Trust Radius=1.00D-01 FncErr=1.00D-07 GrdErr=1.00D-07
 Number of steps in this run=   2 maximum allowed number of steps=   2.
 GradGradGradGradGradGradGradGradGradGradGradGradGradGradGradGradGradGrad

                          Input orientation:                          
 ---------------------------------------------------------------------
 Center     Atomic     Atomic              Coordinates (Angstroms)
 Number     Number      Type              X           Y           Z
 ---------------------------------------------------------------------
    1          6      10061003        0.697075   -1.163025    0.930300
    2          6      10061002        0.391075   -0.383025   -0.334700
    3          6      10061003       -0.054925    1.062975   -0.182700
    4          6      10061003       -1.363925    1.203975    0.603300
    5          8      10081002        0.526075   -0.888025   -1.426700
    6          1      10011000        1.214075   -2.121025    0.693300
    7          1      10011000        1.358075   -0.570025    1.601300
    8          1      10011000       -0.246925   -1.405025    1.469300
    9          1      10011000        0.760075    1.629975    0.324300
   10          1      10011000       -0.184925    1.509975   -1.196700
   11          1      10011000       -2.178925    0.607975    0.131300
   12          1      10011000       -1.249925    0.859975    1.657300
   13          1      10011000       -1.695925    2.266975    0.636300
 ---------------------------------------------------------------------
                    Distance matrix (angstroms):
                    1          2          3          4          5
     1  C    0.000000
     2  C    1.517320   0.000000
     3  C    2.599875   1.520834   0.000000
     4  C    3.155525   2.545278   1.533349   0.000000
     5  O    2.379142   1.210667   2.385686   3.474113   0.000000
     6  H    1.114101   2.180541   3.537738   4.208302   2.547162
     7  H    1.113019   2.172131   2.801056   3.398877   3.156285
     8  H    1.113652   2.169319   2.976070   2.967242   3.041650
     9  H    2.858680   2.150026   1.114793   2.184192   3.075887
    10  H    3.528028   2.158302   1.115753   2.173402   2.511737
    11  H    3.470766   2.793589   2.194766   1.114551   3.461561
    12  H    2.900322   2.864611   2.203369   1.114562   3.964938
    13  H    4.192587   3.510115   2.193914   1.114128   4.375760
                    6          7          8          9         10
     6  H    0.000000
     7  H    1.802998   0.000000
     8  H    1.802596   1.814021   0.000000
     9  H    3.796351   2.613108   3.396513   0.000000
    10  H    4.325906   3.812618   3.950775   1.794677   0.000000
    11  H    4.390414   4.007362   3.094356   3.117604   2.559927
    12  H    3.985844   2.974845   2.484266   2.531776   3.114810
    13  H    5.265538   4.278634   4.034486   2.556374   2.493203
                   11         12         13
    11  H    0.000000
    12  H    1.804223   0.000000
    13  H    1.800165   1.794716   0.000000
 Stoichiometry    C4H8O
 Framework group  C1[X(C4H8O)]
 Deg. of freedom    33
 Full point group                 C1
 Largest Abelian subgroup         C1      NOp   1
 Largest concise Abelian subgroup C1      NOp   1
                         Standard orientation:                         
 ---------------------------------------------------------------------
 Center     Atomic     Atomic              Coordinates (Angstroms)
 Number     Number      Type              X           Y           Z
 ---------------------------------------------------------------------
    1          6      10061003       -1.097374    1.223239    0.058781
    2          6      10061002       -0.603611   -0.211473    0.051037
    3          6      10061003        0.818370   -0.471882    0.523363
    4          6      10061003        1.871997    0.232566   -0.339643
    5          8      10081002       -1.328288   -1.118505   -0.292257
    6          1      10011000       -2.199921    1.266755   -0.095222
    7          1      10011000       -0.864799    1.708236    1.033203
    8          1      10011000       -0.611887    1.800214   -0.760745
    9          1      10011000        0.903117   -0.135840    1.582918
   10          1      10011000        1.008110   -1.571313    0.510883
   11          1      10011000        1.772734   -0.061788   -1.410030
   12          1      10011000        1.781110    1.341601   -0.276164
   13          1      10011000        2.901544   -0.034528   -0.008017
 ---------------------------------------------------------------------
 Rotational constants (GHZ):      7.6535767      3.8148640      2.9163198
 Standard basis: Dummy (5D, 7F)
 There are    13 symmetry adapted basis functions of A   symmetry.
 Integral buffers will be    262144 words long.
 Raffenetti 1 integral format.
 Two-electron integral symmetry is turned on.
    13 basis functions,    13 primitive gaussians,    13 cartesian basis functions
     9 alpha electrons        9 beta electrons
       nuclear repulsion energy        35.7752190918 Hartrees.
 NAtoms=   13 NActive=   13 NUniq=   13 SFac= 7.50D-01 NAtFMM=   80 NAOKFM=F Big=F
 Dreiding calculation of energy and first derivatives.
 MO and density RWFs will be updated without deorthogonalization.
 NRF= 0 NRA=   0 NVA=  13 HaveQM=F
 Convergence limit is  0.750E-04 MaxStp=  5000 StMxLn= 1.00D-04 StpMin= 1.00D-06.
 Convergence criteria           0.00011250 0.00007500 0.00045000 0.00030000
  Step  NS  ND Rises OKQ   Scale  Max. Force  RMS Force Max. Disp.  RMS Disp.     Energy   Flag
     1   0   0   F    T  1.00D+00 0.05343781 0.01631285 0.05343781 0.01631285    0.0185532 ----
     2   0   0   F    F -9.96D-02 0.05343781 0.01631285 0.05343781 0.01631285    0.0139478 ----
     3   0   0   F    T  1.81D+00 0.02523361 0.00737870 0.02305005 0.00809843    0.0138909 ----
     4   0   0   F    F  3.12D-01 0.02523361 0.00737870 0.04180463 0.01468769    0.0115076 ----
     5   0   0   F    T  2.67D+00 0.01482783 0.00555604 0.01564065 0.00721956    0.0113649 ----
     6   0   0   F    F -3.98D-01 0.01482783 0.00555604 0.04174109 0.01926724    0.0108225 ----
     7   0   0   F    T  5.15D+00 0.00526247 0.00203145 0.00642231 0.00225133    0.0103980 ----
     8   0   0   F    F -2.49D-01 0.00526247 0.00203145 0.03306819 0.01159202    0.0101215 ----
     9   0   0   F    T  2.65D+00 0.00655586 0.00213482 0.00996373 0.00328020    0.0100877 ----
    10   0   0   F    F  8.92D-02 0.00655586 0.00213482 0.02645213 0.00870840    0.0098320 ----
    11   0   0   F    T  5.41D+00 0.00393514 0.00128785 0.00556000 0.00175345    0.0098303 ----
    12   0   0   T    F  3.56D-01 0.00393514 0.00128785 0.03007615 0.00948510    0.0099718 ----
    13   0   0   F    T  2.59D+00 0.00292024 0.00093181 0.00380476 0.00130428    0.0097680 ----
    14   0   0   F    F -1.16D-01 0.00292024 0.00093181 0.00984990 0.00337658    0.0097299 ----
    15   0   0   F    T  2.79D+00 0.00226977 0.00072338 0.00269271 0.00106855    0.0097292 ----
    16   0   0   F    F -4.13D-01 0.00226977 0.00072338 0.00752318 0.00298542    0.0097208 ----
    17   0   0   F    T  1.64D+00 0.00193658 0.00064418 0.00317874 0.00106464    0.0097125 ----
    18   0   0   F    F  1.81D+00 0.00193658 0.00064418 0.00522879 0.00175126    0.0096906 ----
    19   0   0   F    T  5.32D+00 0.00125867 0.00054026 0.00302560 0.00092521    0.0096751 ----
    20   0   0   T    F  4.23D-01 0.00125867 0.00054026 0.01609080 0.00492048    0.0096862 ----
    21   0   0   F    T  2.74D+00 0.00103294 0.00044120 0.00237139 0.00075949    0.0096624 ----
    22   0   0   F    F  3.79D+00 0.00103294 0.00044120 0.00649612 0.00208051    0.0096437 ----
    23   0   0   F    T  5.24D+00 0.00182893 0.00067571 0.00540317 0.00190332    0.0096125 ----
    24   0   0   T    F  4.46D-01 0.00182893 0.00067571 0.02831801 0.00997533    0.0096235 ----
    25   0   0   F    T  2.83D+00 0.00166568 0.00059012 0.00453058 0.00157583    0.0095917 ----
    26   0   0   F    F -4.61D-01 0.00166568 0.00059012 0.01280275 0.00445305    0.0095889 ----
    27   0   0   F    T  2.52D+00 0.00107919 0.00043262 0.00296919 0.00095394    0.0095814 ----
    28   0   0   F    F  5.15D-01 0.00107919 0.00043262 0.00747118 0.00240033    0.0095691 ----
    29   0   0   F    T  2.45D+00 0.00121220 0.00052162 0.00453511 0.00148285    0.0095675 ----
    30   0   0   F    F  1.04D-01 0.00121220 0.00052162 0.01111955 0.00363578    0.0095532 ----
    31   0   0   F    T  6.89D+00 0.00068360 0.00030218 0.00159073 0.00058232    0.0095531 ----
    32   0   0   T    F  4.75D-01 0.00068360 0.00030218 0.01096414 0.00401369    0.0095544 ----
    33   0   0   F    T  1.99D+00 0.00100385 0.00037193 0.00255651 0.00095695    0.0095473 ----
    34   0   0   F    F  1.41D+00 0.00100385 0.00037193 0.00508974 0.00190518    0.0095387 ----
    35   0   0   F    T  5.60D+00 0.00087981 0.00032845 0.00194208 0.00082036    0.0095343 ----
    36   0   0   F    F -3.20D-01 0.00087981 0.00032845 0.01088049 0.00459607    0.0095281 ----
    37   0   0   F    T  1.95D+00 0.00131953 0.00044942 0.00394953 0.00160160    0.0095263 ----
    38   0   0   F    F  2.89D+00 0.00131953 0.00044942 0.00770891 0.00312609    0.0095129 ----
    39   0   0   F    T  3.75D+00 0.00144931 0.00063771 0.00779031 0.00323909    0.0094961 ----
    40   0   0   T    F  4.11D-01 0.00144931 0.00063771 0.02924478 0.01215954    0.0095089 ----
    41   0   0   F    T  2.58D+00 0.00131327 0.00049024 0.00473431 0.00194200    0.0094839 ----
    42   0   0   F    F  2.54D-01 0.00131327 0.00049024 0.01219589 0.00500272    0.0094694 ----
    43   0   0   F    T  1.53D+00 0.00206055 0.00070562 0.01027373 0.00410747    0.0094688 ----
    44   0   0   F    F  3.11D+00 0.00206055 0.00070562 0.01569354 0.00627433    0.0094428 ----
    45   0   0   F    F -1.84D-02 0.00206055 0.00070562 0.04875454 0.01949224    0.0094086 ----
    46   0   0   F    T  7.04D+00 0.00171008 0.00060847 0.00921201 0.00360870    0.0094086 ----
    47   0   0   T    F  3.08D-01 0.00171008 0.00060847 0.06485699 0.02540700    0.0094732 ----
    48   0   0   F    T  3.03D+00 0.00146346 0.00051134 0.00670773 0.00258311    0.0093929 ----
    49   0   0   F    F  4.44D-01 0.00146346 0.00051134 0.02032729 0.00782792    0.0093726 ----
    50   0   0   F    T  2.06D+00 0.00213586 0.00074644 0.01416093 0.00548756    0.0093705 ----
    51   0   0   F    F -2.96D-01 0.00213586 0.00074644 0.02916532 0.01130198    0.0093575 ----
    52   0   0   F    T  7.01D+00 0.00103440 0.00033379 0.00323457 0.00113393    0.0093548 ----
    53   0   0   T    F  4.51D-01 0.00103440 0.00033379 0.02268387 0.00795217    0.0093580 ----
    54   0   0   F    T  2.66D+00 0.00073576 0.00035624 0.00382783 0.00135099    0.0093479 ----
    55   0   0   F    F  5.69D-02 0.00073576 0.00035624 0.01017181 0.00359003    0.0093410 ----
    56   0   0   F    T  6.30D+00 0.00075427 0.00022677 0.00154740 0.00060266    0.0093410 ----
    57   0   0   T    F  2.84D-01 0.00075427 0.00022677 0.00974250 0.00379435    0.0093506 ----
    58   0   0   F    T  1.81D+00 0.00051395 0.00021741 0.00153647 0.00059466    0.0093392 ----
    59   0   0   F    F  1.06D+00 0.00051395 0.00021741 0.00278059 0.00107616    0.0093367 ----
    60   0   0   F    T  2.42D+00 0.00097671 0.00026488 0.00252714 0.00091918    0.0093357 ----
    61   0   0   F    F -2.74D-02 0.00097671 0.00026488 0.00610963 0.00222222    0.0093325 ----
    62   0   0   F    T  3.20D+00 0.00050303 0.00022146 0.00202254 0.00067503    0.0093325 ----
    63   0   0   F    F  2.88D-01 0.00050303 0.00022146 0.00647584 0.00216135    0.0093288 ----
    64   0   0   F    T  3.50D+00 0.00052629 0.00023512 0.00245540 0.00079615    0.0093286 ----
    65   0   0   F    F  1.55D-02 0.00052629 0.00023512 0.00858284 0.00278296    0.0093248 ----
    66   0   0   F    T  1.89D+00 0.00107396 0.00031826 0.00454462 0.00149821    0.0093248 ----
    67   0   0   F    F  2.43D-02 0.00107396 0.00031826 0.00857290 0.00282620    0.0093209 ----
    68   0   0   F    T  3.16D+00 0.00049667 0.00024318 0.00252325 0.00091529    0.0093209 ----
    69   0   0   F    F -4.90D-02 0.00049667 0.00024318 0.00798050 0.00289485    0.0093175 ----
    70   0   0   F    T  3.16D+00 0.00063591 0.00023267 0.00225532 0.00086988    0.0093175 ----
    71   0   0   F    F  2.98D-01 0.00063591 0.00023267 0.00713735 0.00275287    0.0093134 ----
    72   0   0   F    T  3.12D+00 0.00068069 0.00026379 0.00292983 0.00114584    0.0093131 ----
    73   0   0   F    F -1.64D-01 0.00068069 0.00026379 0.00913641 0.00357318    0.0093097 ----
    74   0   0   F    T  2.91D+00 0.00052306 0.00024622 0.00273196 0.00102764    0.0093096 ----
    75   0   0   F    F -2.26D-01 0.00052306 0.00024622 0.00794483 0.00298849    0.0093072 ----
    76   0   0   F    T  2.10D+00 0.00061974 0.00025146 0.00306236 0.00110075    0.0093069 ----
    77   0   0   F    F  1.06D-01 0.00061974 0.00025146 0.00643384 0.00231261    0.0093041 ----
    78   0   0   F    T  3.53D+00 0.00045954 0.00020097 0.00208600 0.00072497    0.0093041 ----
    79   0   0   F    F  8.24D-01 0.00045954 0.00020097 0.00735853 0.00255740    0.0093000 ----
    80   0   0   F    T  3.16D+00 0.00065565 0.00028471 0.00385644 0.00147825    0.0092990 ----
    81   0   0   F    F -2.62D-01 0.00065565 0.00028471 0.01217209 0.00466579    0.0092958 ----
    82   0   0   F    T  4.00D+00 0.00058210 0.00021202 0.00220038 0.00086028    0.0092953 ----
    83   0   0   F    F -4.28D-01 0.00058210 0.00021202 0.00880470 0.00344237    0.0092945 ----
    84   0   0   F    T  1.54D+00 0.00071096 0.00025541 0.00338958 0.00127736    0.0092933 ----
    85   0   0   F    F  1.05D+00 0.00071096 0.00025541 0.00522422 0.00196874    0.0092904 ----
    86   0   0   F    T  1.05D+01 0.00044901 0.00013518 0.00110586 0.00038454    0.0092893 ----
    87   0   0   T    F  1.44D-01 0.00044901 0.00013518 0.01161442 0.00403864    0.0093079 ----
    88   0   0   F    T  4.49D+00 0.00018131 0.00007158 0.00045643 0.00012911    0.0092888 -+-+
    89   0   0   F    F  4.05D-01 0.00018131 0.00007158 0.00205070 0.00058009    0.0092882 -+--
    90   0   0   F    T  1.81D+00 0.00034331 0.00013089 0.00160048 0.00045106    0.0092881 ----
    91   0   0   F    F  1.24D-01 0.00034331 0.00013089 0.00289194 0.00081502    0.0092875 ----
    92   0   0   F    T  3.59D+00 0.00029053 0.00009486 0.00082180 0.00025484    0.0092875 ---+
    93   0   0   F    F -4.31D-01 0.00029053 0.00009486 0.00295385 0.00091598    0.0092873 ----
    94   0   0   F    T  1.93D+00 0.00022045 0.00009452 0.00076689 0.00027020    0.0092871 ---+
    95   0   0   F    F  1.61D+00 0.00022045 0.00009452 0.00147994 0.00052144    0.0092866 ----
    96   0   0   F    T  3.79D+00 0.00026661 0.00010638 0.00096774 0.00035891    0.0092862 ----
    97   0   0   F    F -9.87D-02 0.00026661 0.00010638 0.00367089 0.00136142    0.0092855 ----
    98   0   0   F    T  2.38D+00 0.00027339 0.00012547 0.00144900 0.00051582    0.0092855 ----
    99   0   0   F    F  1.58D+00 0.00027339 0.00012547 0.00344706 0.00122709    0.0092843 ----
   100   0   0   F    T  1.54D+00 0.00062140 0.00024953 0.00583547 0.00205846    0.0092836 ----
   101   0   0   F    F  3.72D-01 0.00062140 0.00024953 0.00898688 0.00317012    0.0092812 ----
   102   0   0   F    T  4.03D+00 0.00044805 0.00017935 0.00302701 0.00107909    0.0092810 ----
   103   0   0   T    F  4.87D-01 0.00044805 0.00017935 0.01220394 0.00435056    0.0092812 ----
   104   0   0   F    T  4.27D+00 0.00026795 0.00012075 0.00141816 0.00049520    0.0092798 ----
   105   0   0   F    F -9.30D-02 0.00026795 0.00012075 0.00606257 0.00211695    0.0092787 ----
   106   0   0   F    T  3.75D+00 0.00032338 0.00012127 0.00144300 0.00051227    0.0092787 ----
   107   0   0   F    F -3.11D-01 0.00032338 0.00012127 0.00540865 0.00192010    0.0092781 ----
   108   0   0   F    T  5.15D+00 0.00022860 0.00008353 0.00074968 0.00025709    0.0092779 ---+
   109   0   0   T    F  2.42D-01 0.00022860 0.00008353 0.00385976 0.00132364    0.0092794 ----
   110   0   0   F    T  4.27D+00 0.00014824 0.00004122 0.00018285 0.00007502    0.0092778 -+++
   111   0   0   T    F  3.77D-01 0.00014824 0.00004122 0.00078135 0.00032058    0.0092779 -+--
   112   0   0   F    T  2.39D+00 0.00007225 0.00003031 0.00011488 0.00005065    0.0092777 ====
 Energy=    0.009277715409 NIter=   0.
 Dipole moment=       0.000000       0.000000       0.000000
 ***** Axes restored to original set *****
 -------------------------------------------------------------------
 Center     Atomic                   Forces (Hartrees/Bohr)
 Number     Number              X              Y              Z
 -------------------------------------------------------------------
    1          6          -0.000033902   -0.000002359    0.000006353
    2          6           0.000000711    0.000037989    0.000059056
    3          6          -0.000002980    0.000025415   -0.000009543
    4          6           0.000025797    0.000005766   -0.000062010
    5          8           0.000025405   -0.000067991   -0.000003300
    6          1           0.000020347   -0.000036635   -0.000039473
    7          1          -0.000000981   -0.000011636    0.000000201
    8          1           0.000051199   -0.000015473   -0.000029223
    9          1          -0.000027745    0.000017811    0.000018155
   10          1          -0.000020869    0.000004503    0.000002820
   11          1          -0.000033320   -0.000012549   -0.000011922
   12          1          -0.000033060    0.000048531    0.000065646
   13          1           0.000029399    0.000006629    0.000003241
 -------------------------------------------------------------------
 Cartesian Forces:  Max     0.000067991 RMS     0.000030309

 GradGradGradGradGradGradGradGradGradGradGradGradGradGradGradGradGradGrad
 Berny optimization.
 Search for a local minimum.
 Step number   1 out of a maximum of   2
 All quantities printed in internal units (Hartrees-Bohrs-Radians)
 Second derivative matrix not updated -- unit matrix used.
 RFO step:  Lambda=-3.58273918D-08.
 Linear search not attempted -- first point.
 TrRot=  0.000000  0.000000  0.000000  0.000000  0.000000  0.000000
 Variable       Old X    -DE/DX   Delta X   Delta X   Delta X     New X
                                 (Linear)    (Quad)   (Total)
    X1        1.42627  -0.00003   0.00000  -0.00003  -0.00003   1.42623
    Y1       -2.17609   0.00000   0.00000   0.00000   0.00000  -2.17609
    Z1        1.72084   0.00001   0.00000   0.00001   0.00001   1.72085
    X2        0.69832   0.00000   0.00000   0.00000   0.00000   0.69832
    Y2       -0.68237   0.00004   0.00000   0.00004   0.00004  -0.68233
    Z2       -0.45924   0.00006   0.00000   0.00006   0.00006  -0.45918
    X3       -0.08848   0.00000   0.00000   0.00000   0.00000  -0.08848
    Y3        1.94565   0.00003   0.00000   0.00003   0.00003   1.94567
    Z3       -0.23323  -0.00001   0.00000  -0.00001  -0.00001  -0.23323
    X4       -2.68782   0.00003   0.00000   0.00003   0.00003  -2.68780
    Y4        2.27603   0.00001   0.00000   0.00001   0.00001   2.27603
    Z4        1.05921  -0.00006   0.00000  -0.00006  -0.00006   1.05914
    X5        0.80009   0.00003   0.00000   0.00003   0.00003   0.80012
    Y5       -1.64831  -0.00007   0.00000  -0.00007  -0.00007  -1.64837
    Z5       -2.55994   0.00000   0.00000   0.00000   0.00000  -2.55995
    X6        2.07414   0.00002   0.00000   0.00002   0.00002   2.07416
    Y6       -4.05694  -0.00004   0.00000  -0.00004  -0.00004  -4.05698
    Z6        1.16712  -0.00004   0.00000  -0.00004  -0.00004   1.16708
    X7        2.96021   0.00000   0.00000   0.00000   0.00000   2.96021
    Y7       -1.23982  -0.00001   0.00000  -0.00001  -0.00001  -1.23983
    Z7        2.73284   0.00000   0.00000   0.00000   0.00000   2.73284
    X8       -0.17743   0.00005   0.00000   0.00005   0.00005  -0.17738
    Y8       -2.40216  -0.00002   0.00000  -0.00002  -0.00002  -2.40217
    Z8        2.99585  -0.00003   0.00000  -0.00003  -0.00003   2.99583
    X9        1.33665  -0.00003   0.00000  -0.00003  -0.00003   1.33662
    Y9        2.99072   0.00002   0.00000   0.00002   0.00002   2.99074
    Z9        0.83607   0.00002   0.00000   0.00002   0.00002   0.83609
   X10       -0.19945  -0.00002   0.00000  -0.00002  -0.00002  -0.19947
   Y10        2.81486   0.00000   0.00000   0.00000   0.00000   2.81486
   Z10       -2.10697   0.00000   0.00000   0.00000   0.00000  -2.10697
   X11       -4.13947  -0.00003   0.00000  -0.00003  -0.00003  -4.13950
   Y11        1.21655  -0.00001   0.00000  -0.00001  -0.00001   1.21654
   Z11        0.04427  -0.00001   0.00000  -0.00001  -0.00001   0.04425
   X12       -2.62376  -0.00003   0.00000  -0.00003  -0.00003  -2.62380
   Y12        1.62618   0.00005   0.00000   0.00005   0.00005   1.62623
   Z12        3.01570   0.00007   0.00000   0.00007   0.00007   3.01577
   X13       -3.21356   0.00003   0.00000   0.00003   0.00003  -3.21353
   Y13        4.27105   0.00001   0.00000   0.00001   0.00001   4.27106
   Z13        1.05828   0.00000   0.00000   0.00000   0.00000   1.05828
         Item               Value     Threshold  Converged?
 Maximum Force            0.000068     0.000450     YES
 RMS     Force            0.000030     0.000300     YES
 Maximum Displacement     0.000068     0.001800     YES
 RMS     Displacement     0.000030     0.001200     YES
 Predicted change in Energy=-1.791369D-08
 Optimization completed.
    -- Stationary point found.
 GradGradGradGradGradGradGradGradGradGradGradGradGradGradGradGradGradGrad

                          Input orientation:                          
 ---------------------------------------------------------------------
 Center     Atomic     Atomic              Coordinates (Angstroms)
 Number     Number      Type              X           Y           Z
 ---------------------------------------------------------------------
    1          6      10061003        0.754749   -1.151537    0.910629
    2          6      10061002        0.369535   -0.361094   -0.243019
    3          6      10061003       -0.046822    1.029591   -0.123417
    4          6      10061003       -1.422335    1.204423    0.560507
    5          8      10081002        0.423390   -0.872246   -1.354664
    6          1      10011000        1.097585   -2.146843    0.617615
    7          1      10011000        1.566477   -0.656086    1.446159
    8          1      10011000       -0.093892   -1.271167    1.585338
    9          1      10011000        0.707323    1.582623    0.442430
   10          1      10011000       -0.105545    1.489559   -1.114960
   11          1      10011000       -2.190514    0.643770    0.023425
   12          1      10011000       -1.388436    0.860536    1.595842
   13          1      10011000       -1.700541    2.260145    0.560016
 ---------------------------------------------------------------------
                    Distance matrix (angstroms):
                    1          2          3          4          5
     1  C    0.000000
     2  C    1.450549   0.000000
     3  C    2.543440   1.456593   0.000000
     4  C    3.226890   2.511433   1.546078   0.000000
     5  O    2.306373   1.224717   2.313882   3.374483   0.000000
     6  H    1.092716   2.111788   3.456664   4.193356   2.443158
     7  H    1.091405   2.091175   2.812082   3.630271   3.032818
     8  H    1.090749   2.094251   2.866277   2.990582   3.011699
     9  H    2.774363   2.088535   1.093052   2.166200   3.055576
    10  H    3.437805   2.100214   1.094612   2.149984   2.432149
    11  H    3.561576   2.763077   2.183079   1.092194   3.321133
    12  H    3.018475   2.822101   2.187318   1.091478   3.871786
    13  H    4.217931   3.435254   2.171665   1.091764   4.241338
                    6          7          8          9         10
     6  H    0.000000
     7  H    1.768813   0.000000
     8  H    1.767177   1.776096   0.000000
     9  H    3.753919   2.599507   3.176838   0.000000
    10  H    4.203897   3.736145   3.861781   1.759227   0.000000
    11  H    4.353409   4.222413   3.240737   3.074812   2.521582
    12  H    4.022630   3.324764   2.494015   2.498795   3.064298
    13  H    5.220571   4.468003   4.012825   2.504131   2.437901
                   11         12         13
    11  H    0.000000
    12  H    1.778429   0.000000
    13  H    1.772194   1.768968   0.000000
 Stoichiometry    C4H8O
 Framework group  C1[X(C4H8O)]
 Deg. of freedom    33
 Full point group                 C1
 Largest Abelian subgroup         C1      NOp   1
 Largest concise Abelian subgroup C1      NOp   1
                         Standard orientation:                         
 ---------------------------------------------------------------------
 Center     Atomic     Atomic              Coordinates (Angstroms)
 Number     Number      Type              X           Y           Z
 ---------------------------------------------------------------------
    1          6      10061003       -1.209720    1.120393    0.019304
    2          6      10061002       -0.564350   -0.177651    0.071012
    3          6      10061003        0.792600   -0.347130    0.572633
    4          6      10061003        1.873167    0.246118   -0.360528
    5          8      10081002       -1.191498   -1.164690   -0.292816
    6          1      10011000       -2.244221    1.039821   -0.323251
    7          1      10011000       -1.214490    1.572732    1.012548
    8          1      10011000       -0.676347    1.778879   -0.667459
    9          1      10011000        0.872635    0.121800    1.556737
   10          1      10011000        1.012762   -1.411158    0.705103
   11          1      10011000        1.800641   -0.193558   -1.357680
   12          1      10011000        1.766270    1.329437   -0.440011
   13          1      10011000        2.864550    0.029177    0.042020
 ---------------------------------------------------------------------
 Rotational constants (GHZ):      8.0356188      3.8644503      3.0313696
 1|1|UNPC-UNK|FOpt|Dreiding|ZDO|C4H8O1|PCUSER|13-Dec-2007|0||# opt drei
 ding||2-butanone-skew||0,1|C,0.7547486309,-1.1515365081,0.9106291361|C
 ,0.3695353544,-0.3610938668,-0.2430193449|C,-0.0468218836,1.0295909997
 ,-0.1234174034|C,-1.4223351433,1.2044225635,0.5605073236|O,0.423389630
 2,-0.8722457747,-1.3546640726|H,1.0975851527,-2.1468425543,0.617615217
 6|H,1.5664767031,-0.656085731,1.4461588072|H,-0.0938915415,-1.27116651
 19,1.5853381648|H,0.7073234907,1.5826234448,0.4424295313|H,-0.10554490
 72,1.489558774,-1.1149601976|H,-2.1905137148,0.6437697939,0.0234248359
 |H,-1.3884358484,0.8605358407,1.5958415764|H,-1.7005409232,2.260144530
 2,0.5600164255||Version=IA32W-G03RevD.01|HF=0.0092777|RMSD=0.000e+000|
 RMSF=3.031e-005|Thermal=0.|Dipole=0.,0.,0.|PG=C01 [X(C4H8O1)]||@


 The juvenile sea squirt wanders through the sea searching
 for a suitable rock or hunk of coral to cling to and make
 its home for life.  For this task it has a rudimentary
 nervous system.  When it finds its spot and takes root, it
 doesn't need its brain any more so it eats it.
 It's rather like getting tenure.

                               -- source unknown
 Job cpu time:  0 days  0 hours  0 minutes  3.0 seconds.
 File lengths (MBytes):  RWF=     11 Int=      0 D2E=      0 Chk=      4 Scr=      1
 Normal termination of Gaussian 03 at Thu Dec 13 16:35:44 2007.
