 Entering Link 1 = C:\G03W\l1.exe PID=      1072.
  
 Copyright (c) 1988,1990,1992,1993,1995,1998,2003,2004, Gaussian, Inc.
                  All Rights Reserved.
  
 This is the Gaussian(R) 03 program.  It is based on the
 the Gaussian(R) 98 system (copyright 1998, Gaussian, Inc.),
 the Gaussian(R) 94 system (copyright 1995, Gaussian, Inc.),
 the Gaussian 92(TM) system (copyright 1992, Gaussian, Inc.),
 the Gaussian 90(TM) system (copyright 1990, Gaussian, Inc.),
 the Gaussian 88(TM) system (copyright 1988, Gaussian, Inc.),
 the Gaussian 86(TM) system (copyright 1986, Carnegie Mellon
 University), and the Gaussian 82(TM) system (copyright 1983,
 Carnegie Mellon University). Gaussian is a federally registered
 trademark of Gaussian, Inc.
  
 This software contains proprietary and confidential information,
 including trade secrets, belonging to Gaussian, Inc.
  
 This software is provided under written license and may be
 used, copied, transmitted, or stored only in accord with that
 written license.
  
 The following legend is applicable only to US Government
 contracts under FAR:
  
                    RESTRICTED RIGHTS LEGEND
  
 Use, reproduction and disclosure by the US Government is
 subject to restrictions as set forth in subparagraphs (a)
 and (c) of the Commercial Computer Software - Restricted
 Rights clause in FAR 52.227-19.
  
 Gaussian, Inc.
 340 Quinnipiac St., Bldg. 40, Wallingford CT 06492
  
  
 ---------------------------------------------------------------
 Warning -- This program may not be used in any manner that
 competes with the business of Gaussian, Inc. or will provide
 assistance to any competitor of Gaussian, Inc.  The licensee
 of this program is prohibited from giving any competitor of
 Gaussian, Inc. access to this program.  By using this program,
 the user acknowledges that Gaussian, Inc. is engaged in the
 business of creating and licensing software in the field of
 computational chemistry and represents and warrants to the
 licensee that it is not a competitor of Gaussian, Inc. and that
 it will not use this program in any manner prohibited above.
 ---------------------------------------------------------------
  

 Cite this work as:
 Gaussian 03, Revision D.01,
 M. J. Frisch, G. W. Trucks, H. B. Schlegel, G. E. Scuseria, 
 M. A. Robb, J. R. Cheeseman, J. A. Montgomery, Jr., T. Vreven, 
 K. N. Kudin, J. C. Burant, J. M. Millam, S. S. Iyengar, J. Tomasi, 
 V. Barone, B. Mennucci, M. Cossi, G. Scalmani, N. Rega, 
 G. A. Petersson, H. Nakatsuji, M. Hada, M. Ehara, K. Toyota, 
 R. Fukuda, J. Hasegawa, M. Ishida, T. Nakajima, Y. Honda, O. Kitao, 
 H. Nakai, M. Klene, X. Li, J. E. Knox, H. P. Hratchian, J. B. Cross, 
 V. Bakken, C. Adamo, J. Jaramillo, R. Gomperts, R. E. Stratmann, 
 O. Yazyev, A. J. Austin, R. Cammi, C. Pomelli, J. W. Ochterski, 
 P. Y. Ayala, K. Morokuma, G. A. Voth, P. Salvador, J. J. Dannenberg, 
 V. G. Zakrzewski, S. Dapprich, A. D. Daniels, M. C. Strain, 
 O. Farkas, D. K. Malick, A. D. Rabuck, K. Raghavachari, 
 J. B. Foresman, J. V. Ortiz, Q. Cui, A. G. Baboul, S. Clifford, 
 J. Cioslowski, B. B. Stefanov, G. Liu, A. Liashenko, P. Piskorz, 
 I. Komaromi, R. L. Martin, D. J. Fox, T. Keith, M. A. Al-Laham, 
 C. Y. Peng, A. Nanayakkara, M. Challacombe, P. M. W. Gill, 
 B. Johnson, W. Chen, M. W. Wong, C. Gonzalez, and J. A. Pople, 
 Gaussian, Inc., Wallingford CT, 2004.
 
 ******************************************
 Gaussian 03:  IA32W-G03RevD.01 13-Oct-2005
                13-Dec-2007 
 ******************************************
 --------------
 # opt dreiding
 --------------
 1/6=10,10=10,14=-1,18=4000020,38=1,56=1,64=1/1,3;
 2/9=110,17=6,18=5,40=1/2;
 3/5=30,11=9,16=1,25=1,30=1/1;
 4/20=9,22=1001,24=3/2;
 7/44=-1/16;
 1/6=10,10=10,14=-1,18=4000020,64=1/3(2);
 2/9=110/2;
 99//99;
 2/9=110/2;
 3/5=30,11=9,16=1,25=1,30=1/1;
 4/16=2,20=9,22=1001,24=3/2;
 7/44=-1/16;
 1/6=10,10=10,14=-1,18=4000020,64=1/3(-4);
 2/9=110/2;
 99//99;
 -----------
 3-Me THP-ax
 -----------
 Symbolic Z-matrix:
 Charge =  0 Multiplicity = 1
 C                    -1.0928   -0.91366  -0.98634 
 C                    -0.4268   -1.50566   0.26266 
 C                     0.9902   -0.94366   0.42366 
 O                    -1.0998    0.50234  -0.92734 
 C                     0.9742    0.59134   0.35566 
 C                     0.2132    1.03734  -0.90434 
 H                    -2.1558   -1.25166  -1.05234 
 H                    -0.5758   -1.24366  -1.92034 
 H                    -0.3908   -2.61966   0.18366 
 H                    -1.0398   -1.26766   1.16366 
 H                     1.6272   -1.33866  -0.40334 
 H                     1.4472   -1.29366   1.37966 
 H                     2.0312    0.94734   0.27166 
 H                     0.7502    0.72834  -1.83334 
 C                     0.3872    1.22834   1.62666 
 H                    -0.6848    0.96834   1.77266 
 H                     0.4542    2.34034   1.58366 
 H                     0.9422    0.89734   2.53466 
 H                     0.1222    2.15034  -0.92934 
 
 Include all MM classes
 MMInit generated parameter data with length LenPar=  2152.

 GradGradGradGradGradGradGradGradGradGradGradGradGradGradGradGradGradGrad
 Berny optimization.
 Initialization pass.
 No Z-matrix variables, so optimization will use Cartesian coordinates.
 Trust Radius=1.00D-01 FncErr=1.00D-07 GrdErr=1.00D-07
 Number of steps in this run=   2 maximum allowed number of steps=   2.
 GradGradGradGradGradGradGradGradGradGradGradGradGradGradGradGradGradGrad

                          Input orientation:                          
 ---------------------------------------------------------------------
 Center     Atomic     Atomic              Coordinates (Angstroms)
 Number     Number      Type              X           Y           Z
 ---------------------------------------------------------------------
    1          6      10061003       -1.092804   -0.913661   -0.986339
    2          6      10061003       -0.426804   -1.505661    0.262661
    3          6      10061003        0.990196   -0.943661    0.423661
    4          8      10081003       -1.099804    0.502339   -0.927339
    5          6      10061003        0.974196    0.591339    0.355661
    6          6      10061003        0.213196    1.037339   -0.904339
    7          1      10011000       -2.155804   -1.251661   -1.052339
    8          1      10011000       -0.575804   -1.243661   -1.920339
    9          1      10011000       -0.390804   -2.619661    0.183661
   10          1      10011000       -1.039804   -1.267661    1.163661
   11          1      10011000        1.627196   -1.338661   -0.403339
   12          1      10011000        1.447196   -1.293661    1.379661
   13          1      10011000        2.031196    0.947339    0.271661
   14          1      10011000        0.750196    0.728339   -1.833339
   15          6      10061003        0.387196    1.228339    1.626661
   16          1      10011000       -0.684804    0.968339    1.772661
   17          1      10011000        0.454196    2.340339    1.583661
   18          1      10011000        0.942196    0.897339    2.534661
   19          1      10011000        0.122196    2.150339   -0.929339
 ---------------------------------------------------------------------
                    Distance matrix (angstroms):
                    1          2          3          4          5
     1  C    0.000000
     2  C    1.534282   0.000000
     3  C    2.515530   1.532858   0.000000
     4  O    1.417246   2.429217   2.878232   0.000000
     5  C    2.887642   2.523660   1.536589   2.440386   0.000000
     6  C    2.349204   2.870251   2.508321   1.418000   1.538063
     7  H    1.117394   2.187049   3.488661   2.051165   3.895640
     8  H    1.117383   2.203709   2.834906   2.075847   3.309063
     9  H    2.184523   1.117378   2.184888   3.388788   3.493326
    10  H    2.179593   1.115443   2.184829   2.740216   2.857436
    11  H    2.814057   2.165724   1.116120   3.331724   2.174256
    12  H    3.491985   2.191919   1.115923   3.877509   2.196709
    13  H    3.847761   3.472615   2.163947   3.382128   1.118499
    14  H    2.609640   3.281661   2.819084   2.072296   2.204692
    15  C    3.688676   3.161937   2.555074   3.043216   1.538109
    16  H    3.364590   2.909869   2.877702   2.771170   2.214114
    17  H    4.425678   4.160879   3.523855   3.478258   2.199406
    18  H    4.451785   3.579183   2.801411   4.038717   2.200614
    19  H    3.296600   3.884405   3.486670   2.051632   2.192626
                    6          7          8          9         10
     6  C    0.000000
     7  H    3.297512   0.000000
     8  H    2.618728   1.802745   0.000000
     9  H    3.862928   2.552321   2.520797   0.000000
    10  H    3.340607   2.481203   3.118802   1.791509   0.000000
    11  H    2.809942   3.839252   2.676476   2.461271   3.094094
    12  H    3.488979   4.347183   3.871050   2.562603   2.496498
    13  H    2.167072   4.911165   4.049913   4.312461   3.890107
    14  H    1.116643   3.602110   2.377946   4.071765   4.021209
    15  C    2.544154   4.449077   4.429375   4.182659   2.912167
    16  H    2.824446   3.882379   4.306167   3.935111   2.344483
    17  H    2.818871   5.163629   5.117028   5.222607   3.927607
    18  H    3.518204   5.204073   5.170612   4.435468   3.239628
    19  H    1.116994   4.096098   3.603959   4.924920   4.172963
                   11         12         13         14         15
    11  H    0.000000
    12  H    1.792628   0.000000
    13  H    2.417568   2.567256   0.000000
    14  H    2.662051   3.859749   2.473853   0.000000
    15  C    3.499713   2.746833   2.148889   3.514736   0.000000
    16  H    3.924611   3.133132   3.103240   3.888452   1.112699
    17  H    4.342711   3.772747   2.479662   3.789729   1.114846
    18  H    3.755099   2.527752   2.511890   4.375483   1.114473
    19  H    3.835990   4.352958   2.556148   1.798245   2.730100
                   16         17         18         19
    16  H    0.000000
    17  H    1.793161   0.000000
    18  H    1.798003   1.795771   0.000000
    19  H    3.057642   2.541947   3.773818   0.000000
 Stoichiometry    C6H12O
 Framework group  C1[X(C6H12O)]
 Deg. of freedom    51
 Full point group                 C1
 Largest Abelian subgroup         C1      NOp   1
 Largest concise Abelian subgroup C1      NOp   1
                         Standard orientation:                         
 ---------------------------------------------------------------------
 Center     Atomic     Atomic              Coordinates (Angstroms)
 Number     Number      Type              X           Y           Z
 ---------------------------------------------------------------------
    1          6      10061003       -1.715575   -0.142549   -0.195812
    2          6      10061003       -0.984412    1.199351   -0.332651
    3          6      10061003        0.192999    1.262884    0.646799
    4          8      10081003       -0.819979   -1.223610   -0.390237
    5          6      10061003        1.080731    0.016499    0.506936
    6          6      10061003        0.204410   -1.244768    0.590020
    7          1      10011000       -2.515140   -0.225925   -0.971900
    8          1      10011000       -2.204895   -0.241150    0.803883
    9          1      10011000       -1.692552    2.041036   -0.136089
   10          1      10011000       -0.620948    1.323912   -1.379834
   11          1      10011000       -0.209599    1.308961    1.686758
   12          1      10011000        0.788070    2.193548    0.488561
   13          1      10011000        1.798640    0.002143    1.364515
   14          1      10011000       -0.258691   -1.351240    1.600511
   15          6      10061003        1.922009    0.037472   -0.780538
   16          1      10011000        1.291861    0.005910   -1.697063
   17          1      10011000        2.609799   -0.838918   -0.822574
   18          1      10011000        2.551098    0.955856   -0.834082
   19          1      10011000        0.821217   -2.158587    0.410691
 ---------------------------------------------------------------------
 Rotational constants (GHZ):      3.6329882      2.6494633      2.0109658
 Standard basis: Dummy (5D, 7F)
 There are    19 symmetry adapted basis functions of A   symmetry.
 Integral buffers will be    262144 words long.
 Raffenetti 1 integral format.
 Two-electron integral symmetry is turned on.
    19 basis functions,    19 primitive gaussians,    19 cartesian basis functions
    13 alpha electrons       13 beta electrons
       nuclear repulsion energy        70.3297201165 Hartrees.
 NAtoms=   19 NActive=   19 NUniq=   19 SFac= 7.50D-01 NAtFMM=   80 NAOKFM=F Big=F
 Dreiding calculation of energy and first derivatives.
 MO and density RWFs will be updated without deorthogonalization.
 NRF= 0 NRA=   0 NVA=  19 HaveQM=F
 Convergence limit is  0.750E-04 MaxStp=  5000 StMxLn= 1.00D-04 StpMin= 1.00D-06.
 Convergence criteria           0.00011250 0.00007500 0.00045000 0.00030000
  Step  NS  ND Rises OKQ   Scale  Max. Force  RMS Force Max. Disp.  RMS Disp.     Energy   Flag
     1   0   0   F    T  1.00D+00 0.03462733 0.01259405 0.03462733 0.01259405    0.0315277 ----
     2   0   0   F    F  2.02D-01 0.03462733 0.01259405 0.03462733 0.01259405    0.0262602 ----
     3   0   0   F    T  5.75D+00 0.00579061 0.00257695 0.00619157 0.00263034    0.0261078 ----
     4   0   0   F    F -4.96D-01 0.00579061 0.00257695 0.03563192 0.01513737    0.0260881 ----
     5   0   0   F    T  2.25D+00 0.00737479 0.00243657 0.00979942 0.00338682    0.0255586 ----
     6   0   0   F    F  2.99D-01 0.00737479 0.00243657 0.02209378 0.00763593    0.0250894 ----
     7   0   0   F    T  3.95D+00 0.00441915 0.00176320 0.00823674 0.00251148    0.0250631 ----
     8   0   0   F    F -1.80D-01 0.00441915 0.00176320 0.03253362 0.00991990    0.0247901 ----
     9   0   0   F    T  3.11D+00 0.00363135 0.00159701 0.00733792 0.00261564    0.0247763 ----
    10   0   0   F    F -1.21D-01 0.00363135 0.00159701 0.02282772 0.00813705    0.0245815 ----
    11   0   0   F    T  3.17D+00 0.00303814 0.00132710 0.00571208 0.00225213    0.0245778 ----
    12   0   0   F    F  1.85D-01 0.00303814 0.00132710 0.01813290 0.00714934    0.0243935 ----
    13   0   0   F    T  5.48D+00 0.00289508 0.00096743 0.00403540 0.00154752    0.0243889 ----
    14   0   0   F    F -4.53D-01 0.00289508 0.00096743 0.02209595 0.00847350    0.0243640 ----
    15   0   0   F    T  3.06D+00 0.00229329 0.00086535 0.00399119 0.00151193    0.0243091 ----
    16   0   0   F    F  2.99D-01 0.00229329 0.00086535 0.01222920 0.00463262    0.0242287 ----
    17   0   0   F    T  3.32D+00 0.00284774 0.00088418 0.00509469 0.00181288    0.0242242 ----
    18   0   0   F    F -1.47D-01 0.00284774 0.00088418 0.01691590 0.00601931    0.0241630 ----
    19   0   0   F    T  4.22D+00 0.00211668 0.00066015 0.00361873 0.00121556    0.0241612 ----
    20   0   0   F    F -4.30D-01 0.00211668 0.00066015 0.01528483 0.00513429    0.0241482 ----
    21   0   0   F    T  3.64D+00 0.00131096 0.00047973 0.00199692 0.00080453    0.0241313 ----
    22   0   0   F    F  1.22D-01 0.00131096 0.00047973 0.00726948 0.00292876    0.0241048 ----
    23   0   0   F    T  5.29D+00 0.00130320 0.00037571 0.00146829 0.00062171    0.0241045 ----
    24   0   0   T    F  3.48D-01 0.00130320 0.00037571 0.00776399 0.00328747    0.0241230 ----
    25   0   0   F    T  3.41D+00 0.00054581 0.00023368 0.00076895 0.00033532    0.0240971 ----
    26   0   0   F    F  1.05D+00 0.00054581 0.00023368 0.00262361 0.00114411    0.0240890 ----
    27   0   0   F    T  3.42D+00 0.00089673 0.00031533 0.00158450 0.00068719    0.0240861 ----
    28   0   0   F    F -1.43D-01 0.00089673 0.00031533 0.00542001 0.00235063    0.0240781 ----
    29   0   0   F    T  3.81D+00 0.00065259 0.00025830 0.00115289 0.00052898    0.0240778 ----
    30   0   0   F    F -2.73D-01 0.00065259 0.00025830 0.00439104 0.00201475    0.0240733 ----
    31   0   0   F    T  4.13D+00 0.00044986 0.00019363 0.00087465 0.00035502    0.0240726 ----
    32   0   0   F    F  3.49D-02 0.00044986 0.00019363 0.00360829 0.00146461    0.0240680 ----
    33   0   0   F    T  2.76D+00 0.00064540 0.00022972 0.00130434 0.00055013    0.0240680 ----
    34   0   0   F    F  1.01D+00 0.00064540 0.00022972 0.00359363 0.00151569    0.0240618 ----
    35   0   0   F    T  4.09D+00 0.00072722 0.00025848 0.00201928 0.00074501    0.0240597 ----
    36   0   0   F    F -4.14D-01 0.00072722 0.00025848 0.00824903 0.00304348    0.0240574 ----
    37   0   0   F    T  4.33D+00 0.00046796 0.00018194 0.00135489 0.00041181    0.0240551 ----
    38   0   0   F    F -6.43D-02 0.00046796 0.00018194 0.00586689 0.00178322    0.0240513 ----
    39   0   0   F    T  3.50D+00 0.00048889 0.00018763 0.00165329 0.00047612    0.0240513 ----
    40   0   0   F    F -1.91D-01 0.00048889 0.00018763 0.00579377 0.00166852    0.0240486 ----
    41   0   0   F    T  4.19D+00 0.00046946 0.00014561 0.00100440 0.00032174    0.0240485 ----
    42   0   0   F    F -1.89D-01 0.00046946 0.00014561 0.00421170 0.00134915    0.0240465 ----
    43   0   0   F    T  1.01D+01 0.00024873 0.00007257 0.00029750 0.00010813    0.0240464 -+++
    44   0   0   T    F  4.19D-01 0.00024873 0.00007257 0.00301012 0.00109402    0.0240470 -+--
    45   0   0   F    T  1.97D+00 0.00030993 0.00010112 0.00063086 0.00023301    0.0240458 ---+
    46   0   0   F    F  3.89D-01 0.00030993 0.00010112 0.00124083 0.00045831    0.0240451 ----
    47   0   0   F    T  7.61D+00 0.00011577 0.00005323 0.00024609 0.00008368    0.0240450 -+++
    48   0   0   T    F  4.66D-01 0.00011577 0.00005323 0.00187197 0.00063657    0.0240451 -+--
    49   0   0   F    T  2.04D+00 0.00016680 0.00006614 0.00041413 0.00014512    0.0240447 -+++
    50   0   0   F    F  9.71D-01 0.00016680 0.00006614 0.00084594 0.00029642    0.0240443 -+-+
    51   0   0   F    T  1.61D+01 0.00006277 0.00002705 0.00008444 0.00003637    0.0240442 ====
 Energy=    0.024044199755 NIter=   0.
 Dipole moment=       0.000000       0.000000       0.000000
 ***** Axes restored to original set *****
 -------------------------------------------------------------------
 Center     Atomic                   Forces (Hartrees/Bohr)
 Number     Number              X              Y              Z
 -------------------------------------------------------------------
    1          6           0.000036578    0.000054795   -0.000008114
    2          6           0.000009482    0.000010183    0.000001049
    3          6          -0.000024710   -0.000034570   -0.000006538
    4          8           0.000003185   -0.000016484   -0.000042708
    5          6           0.000017688   -0.000000942   -0.000013664
    6          6          -0.000020760   -0.000001801   -0.000047728
    7          1           0.000010721   -0.000015306   -0.000045400
    8          1           0.000016762    0.000008866   -0.000002119
    9          1          -0.000036414   -0.000040922    0.000027213
   10          1          -0.000006830   -0.000015157    0.000044500
   11          1           0.000012932   -0.000006224   -0.000034535
   12          1          -0.000022084    0.000012575    0.000053702
   13          1          -0.000012316    0.000026219    0.000015143
   14          1          -0.000048646    0.000030545    0.000034789
   15          6           0.000021523   -0.000000377   -0.000062169
   16          1           0.000046364    0.000012343    0.000028989
   17          1           0.000002833   -0.000031565    0.000005513
   18          1           0.000009082    0.000018675    0.000023685
   19          1          -0.000015391   -0.000010855    0.000028392
 -------------------------------------------------------------------
 Cartesian Forces:  Max     0.000062169 RMS     0.000027049

 GradGradGradGradGradGradGradGradGradGradGradGradGradGradGradGradGradGrad
 Berny optimization.
 Search for a local minimum.
 Step number   1 out of a maximum of   2
 All quantities printed in internal units (Hartrees-Bohrs-Radians)
 Second derivative matrix not updated -- unit matrix used.
 RFO step:  Lambda=-4.17052355D-08.
 Linear search not attempted -- first point.
 TrRot=  0.000000  0.000000  0.000000  0.000000  0.000000  0.000000
 Variable       Old X    -DE/DX   Delta X   Delta X   Delta X     New X
                                 (Linear)    (Quad)   (Total)
    X1       -2.12641   0.00004   0.00000   0.00004   0.00004  -2.12637
    Y1       -1.78819   0.00005   0.00000   0.00005   0.00005  -1.78814
    Z1       -1.89916  -0.00001   0.00000  -0.00001  -0.00001  -1.89917
    X2       -0.81980   0.00001   0.00000   0.00001   0.00001  -0.81979
    Y2       -2.93239   0.00001   0.00000   0.00001   0.00001  -2.93238
    Z2        0.45767   0.00000   0.00000   0.00000   0.00000   0.45767
    X3        1.85525  -0.00002   0.00000  -0.00002  -0.00002   1.85522
    Y3       -1.79013  -0.00003   0.00000  -0.00003  -0.00003  -1.79016
    Z3        0.82006  -0.00001   0.00000  -0.00001  -0.00001   0.82005
    X4       -2.08914   0.00000   0.00000   0.00000   0.00000  -2.08914
    Y4        0.93814  -0.00002   0.00000  -0.00002  -0.00002   0.93813
    Z4       -1.84615  -0.00004   0.00000  -0.00004  -0.00004  -1.84620
    X5        1.85394   0.00002   0.00000   0.00002   0.00002   1.85396
    Y5        1.15398   0.00000   0.00000   0.00000   0.00000   1.15398
    Z5        0.69317  -0.00001   0.00000  -0.00001  -0.00001   0.69315
    X6        0.41243  -0.00002   0.00000  -0.00002  -0.00002   0.41241
    Y6        2.01948   0.00000   0.00000   0.00000   0.00000   2.01947
    Z6       -1.72281  -0.00005   0.00000  -0.00005  -0.00005  -1.72286
    X7       -4.09567   0.00001   0.00000   0.00001   0.00001  -4.09566
    Y7       -2.40133  -0.00002   0.00000  -0.00002  -0.00002  -2.40135
    Z7       -1.94247  -0.00005   0.00000  -0.00005  -0.00005  -1.94252
    X8       -1.21610   0.00002   0.00000   0.00002   0.00002  -1.21608
    Y8       -2.47706   0.00001   0.00000   0.00001   0.00001  -2.47705
    Z8       -3.62286   0.00000   0.00000   0.00000   0.00000  -3.62286
    X9       -0.67725  -0.00004   0.00000  -0.00004  -0.00004  -0.67729
    Y9       -4.98193  -0.00004   0.00000  -0.00004  -0.00004  -4.98197
    Z9        0.24460   0.00003   0.00000   0.00003   0.00003   0.24463
   X10       -1.97099  -0.00001   0.00000  -0.00001  -0.00001  -1.97100
   Y10       -2.54612  -0.00002   0.00000  -0.00002  -0.00002  -2.54614
   Z10        2.12788   0.00004   0.00000   0.00004   0.00004   2.12793
   X11        3.08569   0.00001   0.00000   0.00001   0.00001   3.08571
   Y11       -2.51897  -0.00001   0.00000  -0.00001  -0.00001  -2.51898
   Z11       -0.67373  -0.00003   0.00000  -0.00003  -0.00003  -0.67376
   X12        2.63955  -0.00002   0.00000  -0.00002  -0.00002   2.63952
   Y12       -2.43020   0.00001   0.00000   0.00001   0.00001  -2.43019
   Z12        2.62096   0.00005   0.00000   0.00005   0.00005   2.62101
   X13        3.81840  -0.00001   0.00000  -0.00001  -0.00001   3.81839
   Y13        1.78138   0.00003   0.00000   0.00003   0.00003   1.78141
   Z13        0.52317   0.00002   0.00000   0.00002   0.00002   0.52318
   X14        1.48552  -0.00005   0.00000  -0.00005  -0.00005   1.48547
   Y14        1.49660   0.00003   0.00000   0.00003   0.00003   1.49663
   Z14       -3.41210   0.00003   0.00000   0.00003   0.00003  -3.41207
   X15        0.76578   0.00002   0.00000   0.00002   0.00002   0.76580
   Y15        2.39836   0.00000   0.00000   0.00000   0.00000   2.39836
   Z15        3.12117  -0.00006   0.00000  -0.00006  -0.00006   3.12111
   X16       -1.22933   0.00005   0.00000   0.00005   0.00005  -1.22928
   Y16        1.93749   0.00001   0.00000   0.00001   0.00001   1.93750
   Z16        3.36693   0.00003   0.00000   0.00003   0.00003   3.36696
   X17        0.95155   0.00000   0.00000   0.00000   0.00000   0.95155
   Y17        4.45066  -0.00003   0.00000  -0.00003  -0.00003   4.45063
   Z17        3.01159   0.00001   0.00000   0.00001   0.00001   3.01159
   X18        1.80278   0.00001   0.00000   0.00001   0.00001   1.80279
   Y18        1.75119   0.00002   0.00000   0.00002   0.00002   1.75121
   Z18        4.78324   0.00002   0.00000   0.00002   0.00002   4.78326
   X19        0.22659  -0.00002   0.00000  -0.00002  -0.00002   0.22657
   Y19        4.07473  -0.00001   0.00000  -0.00001  -0.00001   4.07471
   Z19       -1.73492   0.00003   0.00000   0.00003   0.00003  -1.73489
         Item               Value     Threshold  Converged?
 Maximum Force            0.000062     0.000450     YES
 RMS     Force            0.000027     0.000300     YES
 Maximum Displacement     0.000062     0.001800     YES
 RMS     Displacement     0.000027     0.001200     YES
 Predicted change in Energy=-2.085262D-08
 Optimization completed.
    -- Stationary point found.
 GradGradGradGradGradGradGradGradGradGradGradGradGradGradGradGradGradGrad

                          Input orientation:                          
 ---------------------------------------------------------------------
 Center     Atomic     Atomic              Coordinates (Angstroms)
 Number     Number      Type              X           Y           Z
 ---------------------------------------------------------------------
    1          6      10061003       -1.125248   -0.946270   -1.004993
    2          6      10061003       -0.433819   -1.551753    0.242187
    3          6      10061003        0.981755   -0.947295    0.433957
    4          8      10081003       -1.105526    0.496445   -0.976942
    5          6      10061003        0.981062    0.610662    0.366809
    6          6      10061003        0.218248    1.068661   -0.911673
    7          1      10011000       -2.167333   -1.270731   -1.027913
    8          1      10011000       -0.643531   -1.310804   -1.917136
    9          1      10011000       -0.358387   -2.636326    0.129438
   10          1      10011000       -1.043005   -1.347351    1.126028
   11          1      10011000        1.632879   -1.332983   -0.356521
   12          1      10011000        1.396787   -1.286008    1.386951
   13          1      10011000        2.020613    0.942667    0.276848
   14          1      10011000        0.786103    0.791969   -1.805607
   15          6      10061003        0.405231    1.269160    1.651654
   16          1      10011000       -0.650531    1.025276    1.781703
   17          1      10011000        0.503537    2.355187    1.593663
   18          1      10011000        0.953991    0.926690    2.531180
   19          1      10011000        0.119906    2.156252   -0.918082
 ---------------------------------------------------------------------
                    Distance matrix (angstroms):
                    1          2          3          4          5
     1  C    0.000000
     2  C    1.549239   0.000000
     3  C    2.551479   1.551128   0.000000
     4  O    1.443122   2.476405   2.903750   0.000000
     5  C    2.956758   2.587172   1.559403   2.484464   0.000000
     6  C    2.423558   2.936521   2.541209   1.443630   1.557615
     7  H    1.091669   2.167302   3.486895   2.062267   3.923937
     8  H    1.094048   2.182822   2.881204   2.088912   3.398197
     9  H    2.175155   1.093023   2.177507   3.405370   3.520425
    10  H    2.169995   1.092731   2.176846   2.797494   2.916689
    11  H    2.859603   2.162765   1.094337   3.351207   2.173897
    12  H    3.492490   2.175368   1.093241   3.876429   2.193370
    13  H    3.886855   3.499653   2.162374   3.397624   1.094982
    14  H    2.704759   3.342859   2.842353   2.086212   2.188670
    15  C    3.782628   3.263151   2.593808   3.128737   1.554358
    16  H    3.446451   3.009677   2.893409   2.845489   2.199074
    17  H    4.506170   4.239022   3.532704   3.556967   2.185537
    18  H    4.509516   3.648039   2.812638   4.090677   2.187489
    19  H    3.344189   3.924556   3.493250   2.064002   2.186637
                    6          7          8          9         10
     6  C    0.000000
     7  H    3.343241   0.000000
     8  H    2.723136   1.764737   0.000000
     9  H    3.891445   2.544916   2.454950   0.000000
    10  H    3.402953   2.430935   3.069488   1.767299   0.000000
    11  H    2.842054   3.859567   2.760083   2.428991   3.059168
    12  H    3.495296   4.305201   3.883363   2.546632   2.454471
    13  H    2.162632   4.913290   4.121815   4.300064   3.918040
    14  H    1.094594   3.685420   2.545181   4.099690   4.064087
    15  C    2.577947   4.499912   4.526851   4.260642   3.036412
    16  H    2.830359   3.932719   4.374783   4.027736   2.492650
    17  H    2.830768   5.210901   5.203938   5.272766   4.039710
    18  H    3.523451   5.219049   5.229338   4.492859   3.336721
    19  H    1.092047   4.121618   3.688010   4.928982   4.219712
                   11         12         13         14         15
    11  H    0.000000
    12  H    1.760012   0.000000
    13  H    2.393758   2.566803   0.000000
    14  H    2.707822   3.857895   2.425561   0.000000
    15  C    3.508709   2.753568   2.146194   3.510760   0.000000
    16  H    3.917570   3.112776   3.066989   3.871324   1.091341
    17  H    4.322179   3.754854   2.455756   3.752138   1.092008
    18  H    3.729052   2.530091   2.493982   4.342126   1.091782
    19  H    3.844372   4.335061   2.552123   1.758633   2.733475
                   16         17         18         19
    16  H    0.000000
    17  H    1.770846   0.000000
    18  H    1.773676   1.767045   0.000000
    19  H    3.026800   2.548649   3.755652   0.000000
 Stoichiometry    C6H12O
 Framework group  C1[X(C6H12O)]
 Deg. of freedom    51
 Full point group                 C1
 Largest Abelian subgroup         C1      NOp   1
 Largest concise Abelian subgroup C1      NOp   1
                         Standard orientation:                         
 ---------------------------------------------------------------------
 Center     Atomic     Atomic              Coordinates (Angstroms)
 Number     Number      Type              X           Y           Z
 ---------------------------------------------------------------------
    1          6      10061003       -1.755559   -0.170946   -0.207170
    2          6      10061003       -1.051726    1.205181   -0.312225
    3          6      10061003        0.169558    1.272460    0.641680
    4          8      10081003       -0.823485   -1.259895   -0.374591
    5          6      10061003        1.107922    0.035037    0.500268
    6          6      10061003        0.256448   -1.266595    0.583410
    7          1      10011000       -2.510014   -0.246633   -0.992543
    8          1      10011000       -2.267838   -0.259693    0.755449
    9          1      10011000       -1.759322    1.999240   -0.060280
   10          1      10011000       -0.722200    1.363027   -1.342059
   11          1      10011000       -0.197682    1.319351    1.671491
   12          1      10011000        0.726735    2.194580    0.456144
   13          1      10011000        1.799979    0.040564    1.348803
   14          1      10011000       -0.145653   -1.386872    1.594342
   15          6      10061003        1.973513    0.079214   -0.790015
   16          1      10011000        1.351783    0.023570   -1.685213
   17          1      10011000        2.672059   -0.760043   -0.802765
   18          1      10011000        2.554458    1.002947   -0.824795
   19          1      10011000        0.884638   -2.136978    0.382472
 ---------------------------------------------------------------------
 Rotational constants (GHZ):      3.5835454      2.5551925      1.9304152
 1|1|UNPC-UNK|FOpt|Dreiding|ZDO|C6H12O1|PCUSER|13-Dec-2007|0||# opt dre
 iding||3-Me THP-ax||0,1|C,-1.1252482058,-0.9462698145,-1.0049930124|C,
 -0.433819137,-1.551753443,0.2421870485|C,0.9817553696,-0.9472950859,0.
 4339573925|O,-1.1055256526,0.4964449349,-0.9769419262|C,0.9810623481,0
 .6106616698,0.3668090166|C,0.2182476865,1.0686606229,-0.9116729304|H,-
 2.1673331872,-1.2707309283,-1.0279128522|H,-0.6435314968,-1.3108038398
 ,-1.9171359577|H,-0.3583869247,-2.6363255845,0.1294383012|H,-1.0430045
 1,-1.3473507447,1.1260275201|H,1.6328791609,-1.3329832509,-0.356521189
 4|H,1.3967873677,-1.2860081031,1.3869513435|H,2.0206128314,0.942666546
 5,0.2768484674|H,0.7861030171,0.7919687241,-1.805607449|C,0.4052307082
 ,1.2691600613,1.6516544803|H,-0.6505308594,1.0252758595,1.7817034588|H
 ,0.503536544,2.355186952,1.593663406|H,0.9539911654,0.9266902138,2.531
 1800087|H,0.1199059449,2.1562517197,-0.9180816364||Version=IA32W-G03Re
 vD.01|HF=0.0240442|RMSD=0.000e+000|RMSF=2.705e-005|Thermal=0.|Dipole=0
 .,0.,0.|PG=C01 [X(C6H12O1)]||@


 The juvenile sea squirt wanders through the sea searching
 for a suitable rock or hunk of coral to cling to and make
 its home for life.  For this task it has a rudimentary
 nervous system.  When it finds its spot and takes root, it
 doesn't need its brain any more so it eats it.
 It's rather like getting tenure.

                               -- source unknown
 Job cpu time:  0 days  0 hours  0 minutes  2.0 seconds.
 File lengths (MBytes):  RWF=     11 Int=      0 D2E=      0 Chk=      4 Scr=      1
 Normal termination of Gaussian 03 at Thu Dec 13 16:36:18 2007.
