 Entering Link 1 = C:\G03W\l1.exe PID=      1516.
  
 Copyright (c) 1988,1990,1992,1993,1995,1998,2003,2004, Gaussian, Inc.
                  All Rights Reserved.
  
 This is the Gaussian(R) 03 program.  It is based on the
 the Gaussian(R) 98 system (copyright 1998, Gaussian, Inc.),
 the Gaussian(R) 94 system (copyright 1995, Gaussian, Inc.),
 the Gaussian 92(TM) system (copyright 1992, Gaussian, Inc.),
 the Gaussian 90(TM) system (copyright 1990, Gaussian, Inc.),
 the Gaussian 88(TM) system (copyright 1988, Gaussian, Inc.),
 the Gaussian 86(TM) system (copyright 1986, Carnegie Mellon
 University), and the Gaussian 82(TM) system (copyright 1983,
 Carnegie Mellon University). Gaussian is a federally registered
 trademark of Gaussian, Inc.
  
 This software contains proprietary and confidential information,
 including trade secrets, belonging to Gaussian, Inc.
  
 This software is provided under written license and may be
 used, copied, transmitted, or stored only in accord with that
 written license.
  
 The following legend is applicable only to US Government
 contracts under FAR:
  
                    RESTRICTED RIGHTS LEGEND
  
 Use, reproduction and disclosure by the US Government is
 subject to restrictions as set forth in subparagraphs (a)
 and (c) of the Commercial Computer Software - Restricted
 Rights clause in FAR 52.227-19.
  
 Gaussian, Inc.
 340 Quinnipiac St., Bldg. 40, Wallingford CT 06492
  
  
 ---------------------------------------------------------------
 Warning -- This program may not be used in any manner that
 competes with the business of Gaussian, Inc. or will provide
 assistance to any competitor of Gaussian, Inc.  The licensee
 of this program is prohibited from giving any competitor of
 Gaussian, Inc. access to this program.  By using this program,
 the user acknowledges that Gaussian, Inc. is engaged in the
 business of creating and licensing software in the field of
 computational chemistry and represents and warrants to the
 licensee that it is not a competitor of Gaussian, Inc. and that
 it will not use this program in any manner prohibited above.
 ---------------------------------------------------------------
  

 Cite this work as:
 Gaussian 03, Revision D.01,
 M. J. Frisch, G. W. Trucks, H. B. Schlegel, G. E. Scuseria, 
 M. A. Robb, J. R. Cheeseman, J. A. Montgomery, Jr., T. Vreven, 
 K. N. Kudin, J. C. Burant, J. M. Millam, S. S. Iyengar, J. Tomasi, 
 V. Barone, B. Mennucci, M. Cossi, G. Scalmani, N. Rega, 
 G. A. Petersson, H. Nakatsuji, M. Hada, M. Ehara, K. Toyota, 
 R. Fukuda, J. Hasegawa, M. Ishida, T. Nakajima, Y. Honda, O. Kitao, 
 H. Nakai, M. Klene, X. Li, J. E. Knox, H. P. Hratchian, J. B. Cross, 
 V. Bakken, C. Adamo, J. Jaramillo, R. Gomperts, R. E. Stratmann, 
 O. Yazyev, A. J. Austin, R. Cammi, C. Pomelli, J. W. Ochterski, 
 P. Y. Ayala, K. Morokuma, G. A. Voth, P. Salvador, J. J. Dannenberg, 
 V. G. Zakrzewski, S. Dapprich, A. D. Daniels, M. C. Strain, 
 O. Farkas, D. K. Malick, A. D. Rabuck, K. Raghavachari, 
 J. B. Foresman, J. V. Ortiz, Q. Cui, A. G. Baboul, S. Clifford, 
 J. Cioslowski, B. B. Stefanov, G. Liu, A. Liashenko, P. Piskorz, 
 I. Komaromi, R. L. Martin, D. J. Fox, T. Keith, M. A. Al-Laham, 
 C. Y. Peng, A. Nanayakkara, M. Challacombe, P. M. W. Gill, 
 B. Johnson, W. Chen, M. W. Wong, C. Gonzalez, and J. A. Pople, 
 Gaussian, Inc., Wallingford CT, 2004.
 
 ******************************************
 Gaussian 03:  IA32W-G03RevD.01 13-Oct-2005
                11-Apr-2008 
 ******************************************
 ----------------------------------
 #p Opt=(Modredun,nomicro) dreiding
 ----------------------------------
 1/14=-1,18=150,38=1,56=1,64=1/1,3;
 2/9=110,17=6,18=5,40=1/2;
 3/5=30,11=9,16=1,25=1,30=1/1;
 4/20=9,22=1,24=3/2;
 7/44=-1/16;
 1/14=-1,18=50,64=1/3(2);
 2/9=110/2;
 99//99;
 2/9=110/2;
 3/5=30,11=9,16=1,25=1,30=1/1;
 4/16=2,20=9,22=1,24=3/2;
 7/44=-1/16;
 1/14=-1,18=50,64=1/3(-4);
 2/9=110/2;
 99//99;
 Leave Link    1 at Fri Apr 11 18:45:12 2008, MaxMem=          0 cpu:       1.0
 (Enter C:\G03W\l101.exe)
 ------------
 aagtxgtx6060
 ------------
 Symbolic Z-matrix:
 Charge =  0 Multiplicity = 1
 C                    -3.54272  -0.27595  -0.34101 
 C                    -2.57348  -1.04325  -1.23625 
 C                    -2.75219   0.65208   0.58229 
 O                    -1.79747  -0.12425   1.3458 
 C                    -1.53647  -1.79599  -0.39876 
 C                    -0.85594  -0.84777   0.59678 
 O                     0.        0.00002  -0.17551 
 C                     0.85594   0.84778   0.5968 
 O                     1.79746   0.12423   1.34582 
 C                     1.53648   1.79602  -0.39871 
 C                     2.75217  -0.65209   0.58229 
 C                     3.54272   0.27594  -0.34099 
 C                     2.57351   1.04329  -1.23621 
 H                    -4.09228  -1.00729   0.27527 
 O                    -4.43536   0.51525  -1.10632 
 H                    -2.0503   -0.31057  -1.87379 
 O                    -3.33412  -1.93563  -2.03545 
 H                    -2.21576   1.39869  -0.01675 
 C                    -3.60536   1.37318   1.61853 
 O                    -0.60301  -2.47254  -1.22941 
 H                    -2.05213  -2.57221   0.17604 
 H                    -0.25312  -1.39841   1.32448 
 H                     0.25312   1.3984    1.32451 
 H                     2.05214   2.57223   0.1761 
 O                     0.60303   2.47258  -1.22937 
 H                     2.21573  -1.39868  -0.01676 
 C                     3.60533  -1.37323   1.61852 
 O                     4.43534  -0.51526  -1.10632 
 H                     4.0923    1.00726   0.27531 
 O                     3.33418   1.93569  -2.03537 
 H                     2.05032   0.31065  -1.87379 
 H                    -4.18253   0.62875   2.19011 
 H                    -4.3116    2.02857   1.10434 
 O                    -2.80995   2.18218   2.46669 
 H                     4.18247  -0.62882   2.19014 
 H                     4.31158  -2.02859   1.10432 
 O                     2.8099   -2.18227   2.46663 
 H                     2.17373  -1.58461   2.88359 
 H                    -0.01      1.79736  -1.55716 
 H                     2.6993    2.51299  -2.48491 
 H                     4.80892   0.07151  -1.77989 
 H                     0.01002  -1.79732  -1.5572 
 H                    -2.69923  -2.51294  -2.48496 
 H                    -4.80892  -0.07151  -1.77991 
 H                    -2.17378   1.5845    2.88363 
 
 The following ModRedundant input section has been read:
 D    4    6    7    8 65.000 F                                                
 D    6    7    8    9 65.000 F                                                
 D   21    5   20   42 -165.0 F                                                
 Iteration  1 RMS(Cart)=  0.00269509 RMS(Int)=  0.00026089
 Iteration  2 RMS(Cart)=  0.00000238 RMS(Int)=  0.00026088
 Iteration  3 RMS(Cart)=  0.00000000 RMS(Int)=  0.00026088
 Iteration  1 RMS(Cart)=  0.00109071 RMS(Int)=  0.00010857
 Iteration  2 RMS(Cart)=  0.00044152 RMS(Int)=  0.00012104
 Iteration  3 RMS(Cart)=  0.00017879 RMS(Int)=  0.00013242
 Iteration  4 RMS(Cart)=  0.00007243 RMS(Int)=  0.00013796
 Iteration  5 RMS(Cart)=  0.00002936 RMS(Int)=  0.00014040
 Iteration  6 RMS(Cart)=  0.00001191 RMS(Int)=  0.00014144
 Iteration  7 RMS(Cart)=  0.00000483 RMS(Int)=  0.00014187
 Iteration  8 RMS(Cart)=  0.00000196 RMS(Int)=  0.00014206
 Iteration  9 RMS(Cart)=  0.00000080 RMS(Int)=  0.00014214
 Fast transformation storage of   1 MWords has been initialized.
                    Isotopes and Nuclear Properties:
 (Nuclear quadrupole moments (NQMom) in fm**2, nuclear magnetic moments (NMagM)
  in nuclear magnetons)

  Atom         1           2           3           4           5           6           7           8           9          10
 IAtWgt=          12          12          12          16          12          12          16          12          16          12
 AtmWgt=  12.0000000  12.0000000  12.0000000  15.9949146  12.0000000  12.0000000  15.9949146  12.0000000  15.9949146  12.0000000
 NucSpn=           0           0           0           0           0           0           0           0           0           0
 AtZEff=   0.0000000   0.0000000   0.0000000   0.0000000   0.0000000   0.0000000   0.0000000   0.0000000   0.0000000   0.0000000
 NQMom=    0.0000000   0.0000000   0.0000000   0.0000000   0.0000000   0.0000000   0.0000000   0.0000000   0.0000000   0.0000000
 NMagM=    0.0000000   0.0000000   0.0000000   0.0000000   0.0000000   0.0000000   0.0000000   0.0000000   0.0000000   0.0000000

  Atom        11          12          13          14          15          16          17          18          19          20
 IAtWgt=          12          12          12           1          16           1          16           1          12          16
 AtmWgt=  12.0000000  12.0000000  12.0000000   1.0078250  15.9949146   1.0078250  15.9949146   1.0078250  12.0000000  15.9949146
 NucSpn=           0           0           0           1           0           1           0           1           0           0
 AtZEff=   0.0000000   0.0000000   0.0000000   0.0000000   0.0000000   0.0000000   0.0000000   0.0000000   0.0000000   0.0000000
 NQMom=    0.0000000   0.0000000   0.0000000   0.0000000   0.0000000   0.0000000   0.0000000   0.0000000   0.0000000   0.0000000
 NMagM=    0.0000000   0.0000000   0.0000000   2.7928460   0.0000000   2.7928460   0.0000000   2.7928460   0.0000000   0.0000000

  Atom        21          22          23          24          25          26          27          28          29          30
 IAtWgt=           1           1           1           1          16           1          12          16           1          16
 AtmWgt=   1.0078250   1.0078250   1.0078250   1.0078250  15.9949146   1.0078250  12.0000000  15.9949146   1.0078250  15.9949146
 NucSpn=           1           1           1           1           0           1           0           0           1           0
 AtZEff=   0.0000000   0.0000000   0.0000000   0.0000000   0.0000000   0.0000000   0.0000000   0.0000000   0.0000000   0.0000000
 NQMom=    0.0000000   0.0000000   0.0000000   0.0000000   0.0000000   0.0000000   0.0000000   0.0000000   0.0000000   0.0000000
 NMagM=    2.7928460   2.7928460   2.7928460   2.7928460   0.0000000   2.7928460   0.0000000   0.0000000   2.7928460   0.0000000

  Atom        31          32          33          34          35          36          37          38          39          40
 IAtWgt=           1           1           1          16           1           1          16           1           1           1
 AtmWgt=   1.0078250   1.0078250   1.0078250  15.9949146   1.0078250   1.0078250  15.9949146   1.0078250   1.0078250   1.0078250
 NucSpn=           1           1           1           0           1           1           0           1           1           1
 AtZEff=   0.0000000   0.0000000   0.0000000   0.0000000   0.0000000   0.0000000   0.0000000   0.0000000   0.0000000   0.0000000
 NQMom=    0.0000000   0.0000000   0.0000000   0.0000000   0.0000000   0.0000000   0.0000000   0.0000000   0.0000000   0.0000000
 NMagM=    2.7928460   2.7928460   2.7928460   0.0000000   2.7928460   2.7928460   0.0000000   2.7928460   2.7928460   2.7928460

  Atom        41          42          43          44          45
 IAtWgt=           1           1           1           1           1
 AtmWgt=   1.0078250   1.0078250   1.0078250   1.0078250   1.0078250
 NucSpn=           1           1           1           1           1
 AtZEff=   0.0000000   0.0000000   0.0000000   0.0000000   0.0000000
 NQMom=    0.0000000   0.0000000   0.0000000   0.0000000   0.0000000
 NMagM=    2.7928460   2.7928460   2.7928460   2.7928460   2.7928460
 Generating MM parameters.
 Include all MM classes
 MMInit generated parameter data with length LenPar=  4935.
 Leave Link  101 at Fri Apr 11 18:45:12 2008, MaxMem=    6291456 cpu:       0.0
 (Enter C:\G03W\l103.exe)

 GradGradGradGradGradGradGradGradGradGradGradGradGradGradGradGradGradGrad
 Berny optimization.
 Initialization pass.
                           ----------------------------
                           !    Initial Parameters    !
                           ! (Angstroms and Degrees)  !
 --------------------------                            --------------------------
 ! Name  Definition              Value          Derivative Info.                !
 --------------------------------------------------------------------------------
 ! R1    R(1,2)                  1.5264         estimate D2E/DX2                !
 ! R2    R(1,3)                  1.5294         estimate D2E/DX2                !
 ! R3    R(1,14)                 1.103          estimate D2E/DX2                !
 ! R4    R(1,15)                 1.4172         estimate D2E/DX2                !
 ! R5    R(2,5)                  1.5308         estimate D2E/DX2                !
 ! R6    R(2,16)                 1.1032         estimate D2E/DX2                !
 ! R7    R(2,17)                 1.419          estimate D2E/DX2                !
 ! R8    R(3,4)                  1.4481         estimate D2E/DX2                !
 ! R9    R(3,18)                 1.0973         estimate D2E/DX2                !
 ! R10   R(3,19)                 1.5237         estimate D2E/DX2                !
 ! R11   R(4,6)                  1.4038         estimate D2E/DX2                !
 ! R12   R(5,6)                  1.5339         estimate D2E/DX2                !
 ! R13   R(5,20)                 1.4209         estimate D2E/DX2                !
 ! R14   R(5,21)                 1.0949         estimate D2E/DX2                !
 ! R15   R(6,7)                  1.431          estimate D2E/DX2                !
 ! R16   R(6,22)                 1.0937         estimate D2E/DX2                !
 ! R17   R(7,8)                  1.431          estimate D2E/DX2                !
 ! R18   R(8,9)                  1.4038         estimate D2E/DX2                !
 ! R19   R(8,10)                 1.534          estimate D2E/DX2                !
 ! R20   R(8,23)                 1.0937         estimate D2E/DX2                !
 ! R21   R(9,11)                 1.4481         estimate D2E/DX2                !
 ! R22   R(10,13)                1.5308         estimate D2E/DX2                !
 ! R23   R(10,24)                1.0949         estimate D2E/DX2                !
 ! R24   R(10,25)                1.4209         estimate D2E/DX2                !
 ! R25   R(11,12)                1.5294         estimate D2E/DX2                !
 ! R26   R(11,26)                1.0973         estimate D2E/DX2                !
 ! R27   R(11,27)                1.5237         estimate D2E/DX2                !
 ! R28   R(12,13)                1.5264         estimate D2E/DX2                !
 ! R29   R(12,28)                1.4172         estimate D2E/DX2                !
 ! R30   R(12,29)                1.103          estimate D2E/DX2                !
 ! R31   R(13,30)                1.419          estimate D2E/DX2                !
 ! R32   R(13,31)                1.1032         estimate D2E/DX2                !
 ! R33   R(15,44)                0.9683         estimate D2E/DX2                !
 ! R34   R(17,43)                0.9687         estimate D2E/DX2                !
 ! R35   R(19,32)                1.1018         estimate D2E/DX2                !
 ! R36   R(19,33)                1.0921         estimate D2E/DX2                !
 ! R37   R(19,34)                1.4165         estimate D2E/DX2                !
 ! R38   R(20,42)                0.9691         estimate D2E/DX2                !
 ! R39   R(25,39)                0.9691         estimate D2E/DX2                !
 ! R40   R(27,35)                1.1018         estimate D2E/DX2                !
 ! R41   R(27,36)                1.0921         estimate D2E/DX2                !
 ! R42   R(27,37)                1.4165         estimate D2E/DX2                !
 ! R43   R(28,41)                0.9683         estimate D2E/DX2                !
 ! R44   R(30,40)                0.9687         estimate D2E/DX2                !
 ! R45   R(34,45)                0.9673         estimate D2E/DX2                !
 ! R46   R(37,38)                0.9673         estimate D2E/DX2                !
 ! A1    A(2,1,3)              109.3271         estimate D2E/DX2                !
 ! A2    A(2,1,14)             108.1067         estimate D2E/DX2                !
 ! A3    A(2,1,15)             111.3377         estimate D2E/DX2                !
 ! A4    A(3,1,14)             108.8204         estimate D2E/DX2                !
 ! A5    A(3,1,15)             108.2291         estimate D2E/DX2                !
 ! A6    A(14,1,15)            110.9799         estimate D2E/DX2                !
 ! A7    A(1,2,5)              110.8873         estimate D2E/DX2                !
 ! A8    A(1,2,16)             107.8299         estimate D2E/DX2                !
 ! A9    A(1,2,17)             107.8234         estimate D2E/DX2                !
 ! A10   A(5,2,16)             108.7541         estimate D2E/DX2                !
 ! A11   A(5,2,17)             111.2233         estimate D2E/DX2                !
 ! A12   A(16,2,17)            110.2669         estimate D2E/DX2                !
 ! A13   A(1,3,4)              109.4984         estimate D2E/DX2                !
 ! A14   A(1,3,18)             109.6304         estimate D2E/DX2                !
 ! A15   A(1,3,19)             114.1017         estimate D2E/DX2                !
 ! A16   A(4,3,18)             109.2892         estimate D2E/DX2                !
 ! A17   A(4,3,19)             105.3259         estimate D2E/DX2                !
 ! A18   A(18,3,19)            108.8452         estimate D2E/DX2                !
 ! A19   A(3,4,6)              115.8986         estimate D2E/DX2                !
 ! A20   A(2,5,6)              110.5631         estimate D2E/DX2                !
 ! A21   A(2,5,20)             111.0945         estimate D2E/DX2                !
 ! A22   A(2,5,21)             108.5629         estimate D2E/DX2                !
 ! A23   A(6,5,20)             112.453          estimate D2E/DX2                !
 ! A24   A(6,5,21)             107.7566         estimate D2E/DX2                !
 ! A25   A(20,5,21)            106.187          estimate D2E/DX2                !
 ! A26   A(4,6,5)              111.5832         estimate D2E/DX2                !
 ! A27   A(4,6,7)              112.5721         estimate D2E/DX2                !
 ! A28   A(4,6,22)             105.892          estimate D2E/DX2                !
 ! A29   A(5,6,7)              106.3474         estimate D2E/DX2                !
 ! A30   A(5,6,22)             111.3968         estimate D2E/DX2                !
 ! A31   A(7,6,22)             109.1108         estimate D2E/DX2                !
 ! A32   A(6,7,8)              114.6756         estimate D2E/DX2                !
 ! A33   A(7,8,9)              112.571          estimate D2E/DX2                !
 ! A34   A(7,8,10)             106.3482         estimate D2E/DX2                !
 ! A35   A(7,8,23)             109.1098         estimate D2E/DX2                !
 ! A36   A(9,8,10)             111.5859         estimate D2E/DX2                !
 ! A37   A(9,8,23)             105.8911         estimate D2E/DX2                !
 ! A38   A(10,8,23)            111.3961         estimate D2E/DX2                !
 ! A39   A(8,9,11)             115.8926         estimate D2E/DX2                !
 ! A40   A(8,10,13)            110.5626         estimate D2E/DX2                !
 ! A41   A(8,10,24)            107.8478         estimate D2E/DX2                !
 ! A42   A(8,10,25)            112.4825         estimate D2E/DX2                !
 ! A43   A(13,10,24)           108.4653         estimate D2E/DX2                !
 ! A44   A(13,10,25)           111.0688         estimate D2E/DX2                !
 ! A45   A(24,10,25)           106.1887         estimate D2E/DX2                !
 ! A46   A(9,11,12)            109.4992         estimate D2E/DX2                !
 ! A47   A(9,11,26)            109.2886         estimate D2E/DX2                !
 ! A48   A(9,11,27)            105.3257         estimate D2E/DX2                !
 ! A49   A(12,11,26)           109.6306         estimate D2E/DX2                !
 ! A50   A(12,11,27)           114.1015         estimate D2E/DX2                !
 ! A51   A(26,11,27)           108.8451         estimate D2E/DX2                !
 ! A52   A(11,12,13)           109.3314         estimate D2E/DX2                !
 ! A53   A(11,12,28)           108.2284         estimate D2E/DX2                !
 ! A54   A(11,12,29)           108.8188         estimate D2E/DX2                !
 ! A55   A(13,12,28)           111.3358         estimate D2E/DX2                !
 ! A56   A(13,12,29)           108.1055         estimate D2E/DX2                !
 ! A57   A(28,12,29)           110.9809         estimate D2E/DX2                !
 ! A58   A(10,13,12)           110.8859         estimate D2E/DX2                !
 ! A59   A(10,13,30)           111.2228         estimate D2E/DX2                !
 ! A60   A(10,13,31)           108.751          estimate D2E/DX2                !
 ! A61   A(12,13,30)           107.8275         estimate D2E/DX2                !
 ! A62   A(12,13,31)           107.8324         estimate D2E/DX2                !
 ! A63   A(30,13,31)           110.2653         estimate D2E/DX2                !
 ! A64   A(1,15,44)            106.2814         estimate D2E/DX2                !
 ! A65   A(2,17,43)            106.5471         estimate D2E/DX2                !
 ! A66   A(3,19,32)            109.0479         estimate D2E/DX2                !
 ! A67   A(3,19,33)            109.0205         estimate D2E/DX2                !
 ! A68   A(3,19,34)            111.2888         estimate D2E/DX2                !
 ! A69   A(32,19,33)           108.1167         estimate D2E/DX2                !
 ! A70   A(32,19,34)           111.6786         estimate D2E/DX2                !
 ! A71   A(33,19,34)           107.5961         estimate D2E/DX2                !
 ! A72   A(5,20,42)            106.3525         estimate D2E/DX2                !
 ! A73   A(10,25,39)           106.3524         estimate D2E/DX2                !
 ! A74   A(11,27,35)           109.0478         estimate D2E/DX2                !
 ! A75   A(11,27,36)           109.0207         estimate D2E/DX2                !
 ! A76   A(11,27,37)           111.2887         estimate D2E/DX2                !
 ! A77   A(35,27,36)           108.1169         estimate D2E/DX2                !
 ! A78   A(35,27,37)           111.6784         estimate D2E/DX2                !
 ! A79   A(36,27,37)           107.5961         estimate D2E/DX2                !
 ! A80   A(12,28,41)           106.2814         estimate D2E/DX2                !
 ! A81   A(13,30,40)           106.5471         estimate D2E/DX2                !
 ! A82   A(19,34,45)           105.9318         estimate D2E/DX2                !
 ! A83   A(27,37,38)           105.9318         estimate D2E/DX2                !
 ! D1    D(3,1,2,5)             55.4509         estimate D2E/DX2                !
 ! D2    D(3,1,2,16)           -63.5108         estimate D2E/DX2                !
 ! D3    D(14,1,2,5)           -62.8669         estimate D2E/DX2                !
 ! D4    D(2,1,3,4)            -56.6272         estimate D2E/DX2                !
 ! D5    D(2,1,3,18)            63.264          estimate D2E/DX2                !
 ! D6    D(14,1,3,4)            61.2442         estimate D2E/DX2                !
 ! D7    D(2,1,15,44)           50.4179         estimate D2E/DX2                !
 ! D8    D(3,1,15,44)          170.5999         estimate D2E/DX2                !
 ! D9    D(1,2,5,6)            -52.2812         estimate D2E/DX2                !
 ! D10   D(1,2,5,20)          -177.8675         estimate D2E/DX2                !
 ! D11   D(16,2,5,6)            66.122          estimate D2E/DX2                !
 ! D12   D(1,2,17,43)         -170.773          estimate D2E/DX2                !
 ! D13   D(5,2,17,43)          -48.9962         estimate D2E/DX2                !
 ! D14   D(1,3,4,6)             59.1922         estimate D2E/DX2                !
 ! D15   D(18,3,4,6)           -60.9078         estimate D2E/DX2                !
 ! D16   D(1,3,19,32)           54.5163         estimate D2E/DX2                !
 ! D17   D(1,3,19,33)          -63.3224         estimate D2E/DX2                !
 ! D18   D(4,3,19,32)          -65.599          estimate D2E/DX2                !
 ! D19   D(3,4,6,5)            -56.3399         estimate D2E/DX2                !
 ! D20   D(3,4,6,7)             63.1477         estimate D2E/DX2                !
 ! D21   D(2,5,6,4)             51.2635         estimate D2E/DX2                !
 ! D22   D(2,5,6,7)            -71.8441         estimate D2E/DX2                !
 ! D23   D(20,5,6,4)           176.0805         estimate D2E/DX2                !
 ! D24   D(2,5,20,42)           77.1425         estimate D2E/DX2                !
 ! D25   D(6,5,20,42)          -47.3823         estimate D2E/DX2                !
 ! D26   D(21,5,20,42)        -165.0            Frozen                          !
 ! D27   D(4,6,7,8)             65.0            Frozen                          !
 ! D28   D(5,6,7,8)           -172.5149         estimate D2E/DX2                !
 ! D29   D(6,7,8,9)             65.0            Frozen                          !
 ! D30   D(6,7,8,10)          -172.5117         estimate D2E/DX2                !
 ! D31   D(7,8,9,11)            63.1438         estimate D2E/DX2                !
 ! D32   D(10,8,9,11)          -56.3459         estimate D2E/DX2                !
 ! D33   D(7,8,10,13)          -71.8394         estimate D2E/DX2                !
 ! D34   D(7,8,10,24)          169.7248         estimate D2E/DX2                !
 ! D35   D(9,8,10,13)           51.269          estimate D2E/DX2                !
 ! D36   D(8,9,11,12)           59.1934         estimate D2E/DX2                !
 ! D37   D(8,9,11,26)          -60.9071         estimate D2E/DX2                !
 ! D38   D(8,10,13,12)         -52.2763         estimate D2E/DX2                !
 ! D39   D(8,10,13,30)        -172.2567         estimate D2E/DX2                !
 ! D40   D(24,10,13,12)         65.7825         estimate D2E/DX2                !
 ! D41   D(8,10,25,39)         -47.459          estimate D2E/DX2                !
 ! D42   D(13,10,25,39)         77.0675         estimate D2E/DX2                !
 ! D43   D(9,11,12,13)         -56.6259         estimate D2E/DX2                !
 ! D44   D(9,11,12,28)        -178.0573         estimate D2E/DX2                !
 ! D45   D(26,11,12,13)         63.2653         estimate D2E/DX2                !
 ! D46   D(9,11,27,35)         -65.5969         estimate D2E/DX2                !
 ! D47   D(9,11,27,36)         176.564          estimate D2E/DX2                !
 ! D48   D(12,11,27,35)         54.5192         estimate D2E/DX2                !
 ! D49   D(11,12,13,10)         55.4449         estimate D2E/DX2                !
 ! D50   D(11,12,13,30)        177.4308         estimate D2E/DX2                !
 ! D51   D(28,12,13,10)        174.9773         estimate D2E/DX2                !
 ! D52   D(11,12,28,41)        170.602          estimate D2E/DX2                !
 ! D53   D(13,12,28,41)         50.4163         estimate D2E/DX2                !
 ! D54   D(10,13,30,40)        -48.9995         estimate D2E/DX2                !
 ! D55   D(12,13,30,40)       -170.777          estimate D2E/DX2                !
 ! D56   D(3,19,34,45)         -58.5726         estimate D2E/DX2                !
 ! D57   D(32,19,34,45)         63.5555         estimate D2E/DX2                !
 ! D58   D(11,27,37,38)        -58.5738         estimate D2E/DX2                !
 ! D59   D(35,27,37,38)         63.5539         estimate D2E/DX2                !
 --------------------------------------------------------------------------------
 Trust Radius=3.00D-01 FncErr=1.00D-07 GrdErr=1.00D-07
 Number of steps in this run= 198 maximum allowed number of steps= 270.
 GradGradGradGradGradGradGradGradGradGradGradGradGradGradGradGradGradGrad

 Leave Link  103 at Fri Apr 11 18:45:12 2008, MaxMem=    6291456 cpu:       0.0
 (Enter C:\G03W\l202.exe)
                          Input orientation:                          
 ---------------------------------------------------------------------
 Center     Atomic     Atomic              Coordinates (Angstroms)
 Number     Number      Type              X           Y           Z
 ---------------------------------------------------------------------
    1          6      10061003       -3.542889   -0.276213   -0.339234
    2          6      10061003       -2.575020   -1.042118   -1.237282
    3          6      10061003       -2.750902    0.650690    0.584128
    4          8      10081003       -1.794842   -0.126599    1.344957
    5          6      10061003       -1.536500   -1.796031   -0.402705
    6          6      10061003       -0.854870   -0.848902    0.592946
    7          8      10081003       -0.000012    0.000004   -0.179302
    8          6      10061003        0.854796    0.848876    0.593042
    9          8      10081003        1.794698    0.126525    1.345066
   10          6      10061003        1.536445    1.796120   -0.402503
   11          6      10061003        2.750685   -0.650762    0.584125
   12          6      10061003        3.542699    0.276147   -0.339187
   13          6      10061003        2.574930    1.042280   -1.237173
   14          1      10011000       -4.091327   -1.008518    0.276901
   15          8      10081003       -4.436917    0.515958   -1.101903
   16          1      10011000       -2.053025   -0.308388   -1.874594
   17          8      10081003       -3.336918   -1.933365   -2.036550
   18          1      10011000       -2.215587    1.398177   -0.014807
   19          6      10061003       -3.602446    1.370260    1.622776
   20          8      10081003       -0.603663   -2.471092   -1.235264
   21          1      10011000       -2.049649   -2.573029    0.173285
   22          1      10011000       -0.250752   -1.400523    1.318826
   23          1      10011000        0.250620    1.400426    1.318927
   24          1      10011000        2.051121    2.573113    0.172127
   25          8      10081003        0.604182    2.471443   -1.235493
   26          1      10011000        2.215289   -1.398164   -0.014845
   27          6      10061003        3.602220   -1.370478    1.622679
   28          8      10081003        4.436611   -0.516046   -1.101968
   29          1      10011000        4.091224    1.008335    0.277012
   30          8      10081003        3.336860    1.933613   -2.036320
   31          1      10011000        2.052850    0.308725   -1.874616
   32          1      10011000       -4.178592    0.624971    2.194270
   33          1      10011000       -4.309602    2.026282    1.110665
   34          8      10081003       -2.805719    2.178164    2.470747
   35          1      10011000        4.178405   -0.625273    2.194241
   36          1      10011000        4.309337   -2.026478    1.110487
   37          8      10081003        2.805473   -2.178434    2.470584
   38          1      10011000        2.168603   -1.580261    2.885729
   39          1      10011000       -0.008208    1.795694   -1.563394
   40          1      10011000        2.702685    2.510233   -2.487732
   41          1      10011000        4.811269    0.069822   -1.775720
   42          1      10011000        0.009477   -1.795379   -1.561833
   43          1      10011000       -2.702725   -2.509938   -2.487999
   44          1      10011000       -4.811527   -0.069882   -1.775706
   45          1      10011000       -2.168800    1.579979    2.885802
 ---------------------------------------------------------------------
                    Distance matrix (angstroms):
                    1          2          3          4          5
     1  C    0.000000
     2  C    1.526391   0.000000
     3  C    1.529375   2.492803   0.000000
     4  O    2.431985   2.848651   1.448133   0.000000
     5  C    2.517831   1.530827   2.904316   2.430651   0.000000
     6  C    2.902133   2.519124   2.417393   1.403848   1.533947
     7  O    3.557225   2.972543   2.928073   2.358136   2.374120
     8  C    4.634069   4.323145   3.611152   2.921902   3.702073
     9  O    5.611497   5.208521   4.638562   3.598454   4.224666
    10  C    5.486182   5.065234   4.546074   4.224682   4.727213
    11  C    6.371966   5.642147   5.653427   4.638472   4.545924
    12  C    7.107084   6.322253   6.371986   5.611406   5.486001
    13  C    6.322374   5.555781   5.642248   5.208510   5.065195
    14  H    1.103032   2.143145   2.155017   2.681859   2.758475
    15  O    1.417210   2.431581   2.388200   3.657945   3.774466
    16  H    2.139639   1.103179   2.729867   3.234998   2.155537
    17  O    2.381063   1.419028   3.726756   4.132432   2.435122
    18  H    2.161149   2.752940   1.097279   2.085888   3.288555
    19  C    2.562012   3.880091   1.523712   2.363304   4.289068
    20  O    3.776164   2.434794   4.203135   3.684168   1.420932
    21  H    2.787078   2.146952   3.324592   2.724474   1.094903
    22  H    3.853752   3.473380   3.316324   2.001944   2.184775
    23  H    4.466691   4.525977   3.179807   2.552724   4.046622
    24  H    6.298658   6.038006   5.188920   4.843079   5.682507
    25  O    5.054808   4.738401   4.228800   4.377654   4.846379
    26  H    5.875425   4.956631   5.405518   4.421209   3.792711
    27  C    7.489934   6.815094   6.747286   5.545507   5.539830
    28  O    8.019458   7.032641   7.474258   6.705976   6.148609
    29  H    7.765918   7.136964   6.858346   6.088870   6.324378
    30  O    7.422558   6.666615   6.750813   6.481656   6.350478
    31  H    5.831966   4.862936   5.407253   5.035860   4.413610
    32  H    2.763132   4.138379   2.152096   2.639783   4.425628
    33  H    2.826931   4.235176   2.144538   3.318706   4.958877
    34  O    3.803075   4.916597   2.428068   2.757029   5.065755
    35  H    8.133801   7.586690   7.227437   6.053894   6.385526
    36  H    8.174507   7.339984   7.569099   6.397305   6.042902
    37  O    7.198279   6.632435   6.514289   5.161392   5.220608
    38  H    6.687456   6.307994   5.871630   4.493997   4.958643
    39  H    4.276135   3.840319   3.666777   3.917369   4.072268
    40  H    7.168508   6.483594   6.529612   6.470713   6.392334
    41  H    8.483819   7.488898   7.943093   7.308755   6.757274
    42  H    4.052396   2.711523   4.267094   3.806549   1.932258
    43  H    3.211322   1.932639   4.407930   4.603923   2.493631
    44  H    1.927554   2.497419   3.214687   4.340754   3.948484
    45  H    3.966665   4.903085   2.549535   2.329476   4.755158
                    6          7          8          9         10
     6  C    0.000000
     7  O    1.431010   0.000000
     8  C    2.409441   1.431012   0.000000
     9  O    2.921875   2.358112   1.403834   0.000000
    10  C    3.702086   2.374142   1.533957   2.430688   0.000000
    11  C    3.611006   2.927909   2.417310   1.448143   2.904315
    12  C    4.633920   3.557051   2.902049   2.431995   2.517813
    13  C    4.323127   2.972500   2.519117   2.848741   1.530817
    14  H    3.255767   4.238408   5.292825   6.088891   6.324508
    15  O    4.191231   4.561088   5.566498   6.706142   6.148904
    16  H    2.795798   2.680296   3.985463   5.035905   4.413649
    17  O    3.775033   4.280448   5.676803   6.481664   6.350499
    18  H    2.696345   2.625019   3.177808   4.421396   3.792942
    19  C    3.678913   4.254717   4.604259   5.545554   5.539974
    20  O    2.457022   2.754227   4.061034   4.376969   4.845890
    21  H    2.139212   3.308448   4.507930   4.841454   5.681643
    22  H    1.093685   2.066091   2.609367   2.552730   4.046675
    23  H    2.609335   2.066080   1.093684   2.001920   2.184775
    24  H    4.509109   3.309312   2.140411   2.725314   1.094902
    25  O    4.061614   2.754742   2.457452   3.684461   1.420931
    26  H    3.177574   2.624782   2.696230   2.085889   3.288550
    27  C    4.604134   4.254578   3.678862   2.363308   4.289072
    28  O    5.566264   4.560838   4.191118   3.657948   3.774431
    29  H    5.292729   4.238297   3.255728   2.681857   2.758486
    30  O    5.676796   4.280429   3.775028   4.132505   2.435109
    31  H    3.985448   2.680231   2.795788   3.235150   2.155489
    32  H    3.972867   4.846128   5.286687   6.053907   6.385645
    33  H    4.524366   4.933800   5.322145   6.397382   6.043088
    34  O    4.061413   4.431606   4.323442   5.161416   5.220719
    35  H    5.286588   4.846013   3.972824   2.639764   4.425628
    36  H    5.321989   4.933627   4.524297   3.318714   4.958864
    37  O    4.323343   4.431505   4.061393   2.757044   5.065782
    38  H    3.864341   4.073640   3.589319   2.329499   4.755212
    39  H    3.515754   2.267219   2.508277   3.807327   1.932257
    40  H    5.781916   4.351399   3.958026   4.604004   2.493642
    41  H    6.209651   5.069699   4.676712   4.340763   3.948456
    42  H    2.507187   2.266028   3.514276   3.915456   4.071185
    43  H    3.958009   4.351385   5.781903   6.470714   6.392338
    44  H    4.676806   5.069918   6.209855   7.308899   6.757543
    45  H    3.589299   4.073675   3.864376   4.493965   4.958680
                   11         12         13         14         15
    11  C    0.000000
    12  C    1.529363   0.000000
    13  C    2.492871   1.526406   0.000000
    14  H    6.858244   7.765841   7.137029   0.000000
    15  O    7.474326   8.019570   7.032873   2.084360   0.000000
    16  H    5.407231   5.831919   4.862981   3.045290   2.638093
    17  O    6.750698   7.422406   6.666589   2.603178   2.843017
    18  H    5.405620   5.875545   4.956803   3.065237   2.625718
    19  C    6.747266   7.489958   6.815193   2.776503   2.974903
    20  O    4.227934   5.053968   4.737852   4.073030   4.861490
    21  H    5.187206   6.297205   6.037101   2.574273   4.106944
    22  H    3.179709   4.466598   4.526024   3.998662   5.201616
    23  H    3.316268   3.853716   3.473375   5.073592   5.349365
    24  H    3.324531   2.786091   2.145682   7.111170   6.924571
    25  O    4.203171   3.775920   2.434411   6.036992   5.408738
    26  H    1.097280   2.161141   2.753034   6.325374   7.006954
    27  C    1.523712   2.561998   3.880139   7.818748   8.695385
    28  O    2.388181   1.417210   2.431567   8.652719   8.933338
    29  H    2.154986   1.103032   2.143142   8.427445   8.652920
    30  O    3.726838   2.381139   1.419030   8.317757   7.957040
    31  H    2.730018   2.139685   1.103179   6.641918   6.538891
    32  H    7.227374   8.133782   7.586765   2.520358   3.308077
    33  H    7.569112   8.174574   7.340121   3.154809   2.681929
    34  O    6.514276   7.198320   6.632517   4.076848   4.264688
    35  H    2.152094   2.763139   4.138413   8.497738   9.294662
    36  H    2.144539   2.826901   4.235204   8.503075   9.373132
    37  O    2.428067   3.803062   4.916667   7.331222   8.513203
    38  H    2.549543   3.966670   4.903177   6.805851   7.995513
    39  H    4.267139   4.051745   2.710471   5.284142   4.632943
    40  H    4.408004   3.211388   1.932643   8.135319   7.541324
    41  H    3.214672   1.927555   2.497383   9.199582   9.283427
    42  H    3.664629   4.274312   3.839175   4.562531   5.032319
    43  H    6.529484   7.168332   6.483553   3.439063   3.752962
    44  H    7.943127   8.483891   7.489103   2.369160   0.968273
    45  H    5.871564   6.687433   6.308013   4.147625   4.709383
                   16         17         18         19         20
    16  H    0.000000
    17  O    2.077297   0.000000
    18  H    2.529348   4.055121   0.000000
    19  C    4.177339   4.937116   2.146121   0.000000
    20  O    2.680799   2.898602   4.365669   5.649520   0.000000
    21  H    3.053264   2.636210   3.979120   4.479032   2.021207
    22  H    3.826079   4.589869   3.670406   4.359298   2.791781
    23  H    4.292482   5.936651   2.803753   3.865146   4.716179
    24  H    5.416285   7.363259   4.429472   5.959368   5.871341
    25  O    3.898290   5.964587   3.254700   5.203655   5.087980
    26  H    4.781714   5.933021   5.239484   6.647708   3.253781
    27  C    6.733555   7.865014   6.647834   7.708363   5.202754
    28  O    6.538766   7.956758   7.006991   8.695334   5.407804
    29  H    6.641910   8.317660   6.325583   7.818863   6.036170
    30  O    5.839827   7.713160   5.933201   7.865133   5.964129
    31  H    4.151992   5.839759   4.781773   6.733571   3.897847
    32  H    4.684533   5.015311   3.054710   1.101819   5.841869
    33  H    4.410736   5.150717   2.458882   1.092105   6.282017
    34  O    5.062754   6.123935   2.671070   1.416523   6.340280
    35  H    7.448930   8.723003   7.060976   8.052973   6.167392
    36  H    7.234791   8.269083   7.454475   8.625346   5.462399
    37  O    6.781051   7.622551   6.646832   7.373835   5.043924
    38  H    6.488489   7.393530   6.041964   6.603456   5.045951
    39  H    2.950472   5.020964   2.725558   4.821953   4.320614
    40  H    5.562135   7.511720   5.616175   7.612522   6.108536
    41  H    6.875417   8.394865   7.364921   9.166871   6.005816
    42  H    2.561811   3.382714   4.188437   5.762724   0.969111
    43  H    2.375962   0.968732   4.650521   5.723976   2.444773
    44  H    2.770558   2.390623   3.463360   3.884014   4.874834
    45  H    5.122569   6.159354   2.906678   1.922123   5.986988
                   21         22         23         24         25
    21  H    0.000000
    22  H    2.433735   0.000000
    23  H    4.732027   2.845468   0.000000
    24  H    6.580206   4.733215   2.435601   0.000000
    25  O    5.871471   4.716734   2.792337   2.021228   0.000000
    26  H    4.427799   2.803577   3.670283   3.979065   4.365720
    27  C    5.957391   3.865052   4.359289   4.479054   5.649579
    28  O    6.923080   5.349198   5.201550   4.105702   4.861115
    29  H    7.109659   5.073532   3.998694   2.573237   4.072815
    30  O    7.362517   5.936701   4.589863   2.634259   2.897950
    31  H    5.415617   4.292573   3.826037   3.052313   2.680385
    32  H    4.340966   4.505214   4.580990   6.833275   6.168278
    33  H    5.209581   5.316069   4.607678   6.452804   5.463323
    34  O    5.331398   4.545523   3.357495   5.387814   5.044765
    35  H    6.831302   4.580917   4.505233   4.340963   5.841900
    36  H    6.450874   4.607563   5.316042   5.209252   6.281966
    37  O    5.385676   3.357410   4.545529   5.331900   6.340509
    38  H    5.112396   2.888039   3.875309   4.962656   5.987336
    39  H    5.125357   4.310664   2.920788   2.803079   0.969111
    40  H    7.450185   6.205376   4.662075   2.739222   2.444038
    41  H    7.606280   6.112462   5.669821   4.204639   4.874342
    42  H    2.802744   2.919217   4.309304   5.124320   4.320410
    43  H    2.740971   4.662070   6.205311   7.450687   6.108892
    44  H    4.206219   5.669868   6.112601   7.607589   6.006668
    45  H    4.961797   3.875270   2.888067   5.114498   5.046703
                   26         27         28         29         30
    26  H    0.000000
    27  C    2.146120   0.000000
    28  O    2.625689   2.974889   0.000000
    29  H    3.065215   2.776453   2.084374   0.000000
    30  O    4.055246   4.937176   2.843114   2.603211   0.000000
    31  H    2.529547   4.177481   2.638096   3.045312   2.077279
    32  H    7.060806   8.052923   9.294559   8.497805   8.723098
    33  H    7.454382   8.625374   9.373122   8.503238   8.269249
    34  O    6.646715   7.373857   8.513190   7.331356   7.622646
    35  H    3.054709   1.101818   3.308111   2.520325   5.015350
    36  H    2.458900   1.092104   2.681895   3.154733   5.150770
    37  O    2.671047   1.416525   4.264654   4.076813   6.124009
    38  H    2.906659   1.922124   4.709368   4.147613   6.159439
    39  H    4.188397   5.762890   5.031250   4.562057   3.381147
    40  H    4.650623   5.724034   3.753027   3.439121   0.968733
    41  H    3.463348   3.883990   0.968272   2.369173   2.390714
    42  H    2.723337   4.819696   4.631165   5.282312   5.020159
    43  H    5.615995   7.612384   7.541009   8.135187   7.511707
    44  H    7.364856   9.166881   9.283375   9.199737   8.395124
    45  H    6.041799   6.603435   7.995443   6.805914   7.393554
                   31         32         33         34         35
    31  H    0.000000
    32  H    7.448940   0.000000
    33  H    7.234825   1.776242   0.000000
    34  O    6.781052   2.091322   2.033361   0.000000
    35  H    4.684649   8.450000   8.958300   7.530850   0.000000
    36  H    4.410868   8.958220   9.524231   8.375759   1.776244
    37  O    5.062921   7.530777   8.375758   7.103902   2.091320
    38  H    5.122749   6.754854   7.623985   6.248348   2.330120
    39  H    2.560448   5.734347   5.070084   4.924089   6.124429
    40  H    2.375886   8.533893   7.896507   7.418847   5.824948
    41  H    2.770512   9.843100   9.764694   8.971962   4.079738
    42  H    2.949654   6.124241   6.356240   6.322664   5.732120
    43  H    5.562067   5.824902   6.009137   6.824813   8.533774
    44  H    6.875521   4.079723   3.602356   5.206663   9.843161
    45  H    6.488451   2.330132   2.816617   0.967347   6.754881
                   36         37         38         39         40
    36  H    0.000000
    37  O    2.033362   0.000000
    38  H    2.816618   0.967347   0.000000
    39  H    6.356087   6.323249   5.994187   0.000000
    40  H    6.009182   6.824886   6.774324   2.951932   0.000000
    41  H    3.602305   5.206628   5.606743   5.123580   3.302832
    42  H    5.067889   4.921861   4.948627   3.591117   5.162263
    43  H    7.896319   7.418739   7.312393   5.162731   7.377030
    44  H    9.764658   8.971937   8.528331   5.157259   7.976675
    45  H    7.623946   6.248318   5.366581   4.950762   7.312429
                   41         42         43         44         45
    41  H    0.000000
    42  H    5.155767   0.000000
    43  H    7.976379   2.953713   0.000000
    44  H    9.623810   5.124954   3.302768   0.000000
    45  H    8.528291   5.993279   6.774233   5.606755   0.000000
 Stoichiometry    C12H22O11
 Framework group  C1[X(C12H22O11)]
 Deg. of freedom   129
 Full point group                 C1
 Largest Abelian subgroup         C1      NOp   1
 Largest concise Abelian subgroup C1      NOp   1
                         Standard orientation:                         
 ---------------------------------------------------------------------
 Center     Atomic     Atomic              Coordinates (Angstroms)
 Number     Number      Type              X           Y           Z
 ---------------------------------------------------------------------
    1          6      10061003        3.543025   -0.274031    0.339087
    2          6      10061003        2.575629   -1.040533    1.237135
    3          6      10061003        2.750467    0.652383   -0.584275
    4          8      10081003        1.794886   -0.125495   -1.345104
    5          6      10061003        1.537574   -1.795086    0.402557
    6          6      10061003        0.855360   -0.848377   -0.593093
    7          8      10081003       -0.000021    0.000001    0.179154
    8          6      10061003       -0.855352    0.848346   -0.593189
    9          8      10081003       -1.794809    0.125416   -1.345214
   10          6      10061003       -1.537585    1.795170    0.402356
   11          6      10061003       -2.750316   -0.652461   -0.584273
   12          6      10061003       -3.542901    0.273960    0.339039
   13          6      10061003       -2.575605    1.040689    1.237025
   14          1      10011000        4.091916   -1.005998   -0.277049
   15          8      10081003        4.436565    0.518691    1.101755
   16          1      10011000        2.053182   -0.307125    1.874446
   17          8      10081003        3.338077   -1.931310    2.036402
   18          1      10011000        2.214692    1.399540    0.014659
   19          6      10061003        3.601568    1.372478   -1.622924
   20          8      10081003        0.605154   -2.470722    1.235116
   21          1      10011000        2.051203   -2.571768   -0.173433
   22          1      10011000        0.251583   -1.400371   -1.318974
   23          1      10011000       -0.251516    1.400269   -1.319075
   24          1      10011000       -2.052740    2.571846   -0.172274
   25          8      10081003       -0.605739    2.471067    1.235345
   26          1      10011000       -2.214460   -1.399532    0.014697
   27          6      10061003       -3.601408   -1.372701   -1.622827
   28          8      10081003       -4.436325   -0.518784    1.101820
   29          1      10011000       -4.091877    1.005809   -0.277160
   30          8      10081003       -3.338084    1.931552    2.036172
   31          1      10011000       -2.053072    0.307457    1.874468
   32          1      10011000        4.178173    0.627545   -2.194418
   33          1      10011000        4.308319    2.028937   -1.110812
   34          8      10081003        2.804342    2.179891   -2.470895
   35          1      10011000       -4.178052   -0.627852   -2.194389
   36          1      10011000       -4.308120   -2.029138   -1.110635
   37          8      10081003       -2.804163   -2.180167   -2.470731
   38          1      10011000       -2.167661   -1.581600   -2.885877
   39          1      10011000        0.007067    1.795696    1.563247
   40          1      10011000       -2.704265    2.508564    2.487584
   41          1      10011000       -4.811344    0.066853    1.775572
   42          1      10011000       -0.008403   -1.795388    1.561685
   43          1      10011000        2.704240   -2.508274    2.487851
   44          1      10011000        4.811536   -0.066918    1.775558
   45          1      10011000        2.167793    1.581314   -2.885950
 ---------------------------------------------------------------------
 Rotational constants (GHZ):      0.3685817      0.1557408      0.1533927
 Leave Link  202 at Fri Apr 11 18:45:13 2008, MaxMem=    6291456 cpu:       0.0
 (Enter C:\G03W\l301.exe)
 Standard basis: Dummy (5D, 7F)
 There are    45 symmetry adapted basis functions of A   symmetry.
 Integral buffers will be    262144 words long.
 Raffenetti 1 integral format.
 Two-electron integral symmetry is turned on.
    45 basis functions,    45 primitive gaussians,    45 cartesian basis functions
    34 alpha electrons       34 beta electrons
       nuclear repulsion energy       329.2618771761 Hartrees.
 IExCor=   0 DFT=F Ex=HF Corr=None ExCW=0 ScaHFX=  1.000000
 ScaDFX=  1.000000  1.000000  1.000000  1.000000
 IRadAn=      0 IRanWt=     -1 IRanGd=            0 ICorTp=0
 NAtoms=   45 NActive=   45 NUniq=   45 SFac= 7.50D-01 NAtFMM=   80 NAOKFM=F Big=F
 Leave Link  301 at Fri Apr 11 18:45:13 2008, MaxMem=    6291456 cpu:       0.0
 (Enter C:\G03W\l402.exe)
 Dreiding calculation of energy and first derivatives.
 MO and density RWFs will be updated without deorthogonalization.
 Energy=    0.113347536268 NIter=   0.
 Dipole moment=       0.000000       0.000000       0.000000
 Leave Link  402 at Fri Apr 11 18:45:13 2008, MaxMem=    6291456 cpu:       0.0
 (Enter C:\G03W\l716.exe)
 Dipole        = 0.00000000D+00 0.00000000D+00 0.00000000D+00
 ***** Axes restored to original set *****
 -------------------------------------------------------------------
 Center     Atomic                   Forces (Hartrees/Bohr)
 Number     Number              X              Y              Z
 -------------------------------------------------------------------
    1          6          -0.012358023   -0.005185831    0.007849624
    2          6           0.008278758    0.005705687   -0.014007489
    3          6           0.020590384   -0.001138052    0.003317494
    4          8          -0.016412387    0.004420449    0.003742540
    5          6           0.001885975   -0.017493853    0.015415508
    6          6           0.019052521   -0.003375177    0.001062676
    7          8          -0.000011296    0.000094946    0.018935125
    8          6          -0.019087066    0.003460352    0.001078252
    9          8           0.016424950   -0.004421665    0.003730524
   10          6          -0.001624042    0.017518552    0.015169216
   11          6          -0.020598326    0.001136025    0.003327246
   12          6           0.012372505    0.005185292    0.007834353
   13          6          -0.008331095   -0.005773640   -0.014014434
   14          1          -0.002961025    0.004717682   -0.003276077
   15          8          -0.003351039    0.006452166   -0.001469838
   16          1          -0.003370006   -0.005738488   -0.003125601
   17          8          -0.002636295   -0.006311243   -0.002202179
   18          1          -0.002448365    0.002340028    0.001484392
   19          6          -0.018038632    0.000022276   -0.000741696
   20          8           0.005374000   -0.007192003    0.003595656
   21          1          -0.000345840    0.000334558   -0.000243842
   22          1          -0.002639788   -0.008404629   -0.003842391
   23          1           0.002651760    0.008415072   -0.003850105
   24          1           0.000146301   -0.000347375   -0.000045926
   25          8          -0.005439989    0.007178785    0.003652110
   26          1           0.002455209   -0.002340966    0.001484099
   27          6           0.018036853   -0.000024281   -0.000740699
   28          8           0.003351606   -0.006450617   -0.001469673
   29          1           0.002965590   -0.004720302   -0.003278604
   30          8           0.002656816    0.006300206   -0.002213454
   31          1           0.003381854    0.005725672   -0.003120975
   32          1           0.002359925    0.005876088    0.002156015
   33          1          -0.000505674    0.000479616    0.001439074
   34          8          -0.002964804    0.008247833    0.002106775
   35          1          -0.002358993   -0.005876017    0.002155477
   36          1           0.000505906   -0.000480075    0.001439055
   37          8           0.002964828   -0.008247658    0.002105364
   38          1          -0.006115768   -0.004052233    0.015640008
   39          1          -0.007748747    0.008476215   -0.018461885
   40          1           0.002332380    0.006100606   -0.013826343
   41          1           0.015230817   -0.002919628   -0.006028307
   42          1           0.007757721   -0.008568250   -0.018560632
   43          1          -0.002313087   -0.006098297   -0.013814870
   44          1          -0.015232021    0.002920425   -0.006026958
   45          1           0.006115648    0.004051752    0.015641398
 -------------------------------------------------------------------
 Cartesian Forces:  Max     0.020598326 RMS     0.008183013
 Leave Link  716 at Fri Apr 11 18:45:13 2008, MaxMem=    6291456 cpu:       0.0
 (Enter C:\G03W\l103.exe)

 GradGradGradGradGradGradGradGradGradGradGradGradGradGradGradGradGradGrad
 Berny optimization.
 Internal  Forces:  Max     0.035457009 RMS     0.013421392
 Search for a local minimum.
 Step number   1 out of a maximum of 198
 All quantities printed in internal units (Hartrees-Bohrs-Radians)
 Second derivative matrix not updated -- first step.
 lowest eigenvalue of the Hessian is  0.1403E-02.
 RFO step:  Lambda= 9.61779973D-03.
 Linear search not attempted -- first point.
 Maximum step size (   0.300) exceeded in Quadratic search.
    -- Step size scaled by   0.843
 Iteration  1 RMS(Cart)=  0.12376144 RMS(Int)=  0.01143973
 Iteration  2 RMS(Cart)=  0.01607706 RMS(Int)=  0.00059370
 Iteration  3 RMS(Cart)=  0.00047203 RMS(Int)=  0.00040777
 Iteration  4 RMS(Cart)=  0.00000075 RMS(Int)=  0.00040777
 Iteration  1 RMS(Cart)=  0.00023171 RMS(Int)=  0.00001950
 Iteration  2 RMS(Cart)=  0.00009308 RMS(Int)=  0.00002173
 Iteration  3 RMS(Cart)=  0.00003738 RMS(Int)=  0.00002372
 Iteration  4 RMS(Cart)=  0.00001501 RMS(Int)=  0.00002468
 Iteration  5 RMS(Cart)=  0.00000603 RMS(Int)=  0.00002509
 Iteration  6 RMS(Cart)=  0.00000242 RMS(Int)=  0.00002526
 Iteration  7 RMS(Cart)=  0.00000097 RMS(Int)=  0.00002533
 Variable       Old X    -DE/DX   Delta X   Delta X   Delta X     New X
                                 (Linear)    (Quad)   (Total)
    R1        2.88446   0.03361   0.00000   0.07990   0.07980   2.96426
    R2        2.89010   0.02262   0.00000   0.05639   0.05624   2.94634
    R3        2.08443  -0.00349   0.00000  -0.00832  -0.00832   2.07611
    R4        2.67814   0.02100   0.00000   0.03207   0.03207   2.71021
    R5        2.89284   0.03032   0.00000   0.06824   0.06845   2.96130
    R6        2.08471  -0.00361   0.00000  -0.00714  -0.00714   2.07756
    R7        2.68157   0.01947   0.00000   0.02791   0.02791   2.70949
    R8        2.73658   0.00355   0.00000  -0.00183  -0.00204   2.73454
    R9        2.07356  -0.00041   0.00000   0.00110   0.00110   2.07466
   R10        2.87940   0.03015   0.00000   0.05570   0.05570   2.93510
   R11        2.65289   0.02744   0.00000   0.03278   0.03287   2.68576
   R12        2.89874   0.03158   0.00000   0.04643   0.04658   2.94532
   R13        2.68517   0.02488   0.00000   0.03598   0.03598   2.72115
   R14        2.06907  -0.00020   0.00000  -0.00243  -0.00243   2.06664
   R15        2.70422   0.01753   0.00000   0.00354   0.00354   2.70776
   R16        2.06677   0.00023   0.00000  -0.00243  -0.00243   2.06434
   R17        2.70422   0.01752   0.00000   0.00478   0.00478   2.70901
   R18        2.65286   0.02768   0.00000   0.03176   0.03182   2.68468
   R19        2.89876   0.03120   0.00000   0.04092   0.04109   2.93985
   R20        2.06676   0.00022   0.00000  -0.00283  -0.00283   2.06393
   R21        2.73659   0.00429   0.00000  -0.00234  -0.00257   2.73403
   R22        2.89282   0.02966   0.00000   0.07334   0.07357   2.96640
   R23        2.06907  -0.00020   0.00000  -0.00276  -0.00276   2.06631
   R24        2.68517   0.02478   0.00000   0.03589   0.03589   2.72106
   R25        2.89008   0.02286   0.00000   0.05674   0.05657   2.94665
   R26        2.07356  -0.00041   0.00000   0.00102   0.00102   2.07457
   R27        2.87940   0.03015   0.00000   0.05551   0.05551   2.93491
   R28        2.88449   0.03342   0.00000   0.08284   0.08277   2.96726
   R29        2.67814   0.02099   0.00000   0.03255   0.03255   2.71069
   R30        2.08443  -0.00349   0.00000  -0.00808  -0.00808   2.07635
   R31        2.68158   0.01950   0.00000   0.02857   0.02857   2.71015
   R32        2.08471  -0.00360   0.00000  -0.00723  -0.00723   2.07748
   R33        1.82977   0.00832   0.00000   0.01359   0.01359   1.84336
   R34        1.83064   0.00855   0.00000   0.01165   0.01165   1.84229
   R35        2.08214  -0.00409   0.00000  -0.01085  -0.01085   2.07129
   R36        2.06378  -0.00006   0.00000  -0.00028  -0.00028   2.06350
   R37        2.67684   0.01941   0.00000   0.02963   0.02963   2.70647
   R38        1.83135   0.00519   0.00000   0.01192   0.01192   1.84328
   R39        1.83136   0.00523   0.00000   0.01233   0.01233   1.84368
   R40        2.08213  -0.00409   0.00000  -0.01081  -0.01081   2.07132
   R41        2.06378  -0.00006   0.00000  -0.00037  -0.00037   2.06341
   R42        2.67684   0.01941   0.00000   0.02967   0.02967   2.70652
   R43        1.82977   0.00832   0.00000   0.01352   0.01352   1.84329
   R44        1.83064   0.00855   0.00000   0.01131   0.01131   1.84194
   R45        1.82802   0.00823   0.00000   0.01597   0.01597   1.84399
   R46        1.82802   0.00823   0.00000   0.01606   0.01606   1.84408
    A1        1.90812   0.00557   0.00000   0.00972   0.00888   1.91700
    A2        1.88682  -0.00021   0.00000   0.00628   0.00600   1.89282
    A3        1.94321   0.01732   0.00000   0.03490   0.03490   1.97811
    A4        1.89927  -0.00343   0.00000  -0.01069  -0.01041   1.88887
    A5        1.88895  -0.01164   0.00000  -0.00709  -0.00707   1.88189
    A6        1.93696  -0.00775   0.00000  -0.03352  -0.03366   1.90331
    A7        1.93535  -0.00360   0.00000   0.00880   0.00805   1.94340
    A8        1.88199   0.00080   0.00000   0.00352   0.00349   1.88548
    A9        1.88187   0.00197   0.00000   0.00696   0.00708   1.88895
   A10        1.89812  -0.00058   0.00000   0.00532   0.00555   1.90367
   A11        1.94121   0.00815   0.00000   0.00747   0.00757   1.94879
   A12        1.92452  -0.00704   0.00000  -0.03264  -0.03270   1.89183
   A13        1.91111  -0.00398   0.00000  -0.00291  -0.00355   1.90756
   A14        1.91341   0.00298   0.00000  -0.00376  -0.00367   1.90974
   A15        1.99145  -0.01191   0.00000   0.00084   0.00099   1.99244
   A16        1.90746   0.00127   0.00000   0.02106   0.02078   1.92823
   A17        1.83828   0.02040   0.00000   0.02226   0.02241   1.86069
   A18        1.89971  -0.00789   0.00000  -0.03544  -0.03536   1.86435
   A19        2.02281   0.00833   0.00000   0.00739   0.00590   2.02871
   A20        1.92969  -0.00041   0.00000   0.01645   0.01525   1.94494
   A21        1.93897  -0.00021   0.00000   0.01280   0.01130   1.95027
   A22        1.89478  -0.00033   0.00000   0.00455   0.00463   1.89941
   A23        1.96268   0.01763   0.00000   0.05324   0.05231   2.01499
   A24        1.88071  -0.01217   0.00000  -0.06845  -0.06786   1.81284
   A25        1.85331  -0.00573   0.00000  -0.02474  -0.02439   1.82892
   A26        1.94749  -0.00607   0.00000  -0.02801  -0.02799   1.91951
   A27        1.96475  -0.01492   0.00000  -0.01833  -0.01854   1.94621
   A28        1.84816   0.00450   0.00000   0.03299   0.03293   1.88109
   A29        1.85611   0.02566   0.00000   0.03135   0.03133   1.88744
   A30        1.94424  -0.01518   0.00000  -0.05030  -0.05036   1.89388
   A31        1.90434   0.00508   0.00000   0.03097   0.03090   1.93525
   A32        2.00147   0.02249   0.00000   0.08070   0.08070   2.08216
   A33        1.96473  -0.00858   0.00000  -0.01384  -0.01404   1.95069
   A34        1.85613   0.02570   0.00000   0.02507   0.02509   1.88122
   A35        1.90433   0.00382   0.00000   0.03163   0.03149   1.93581
   A36        1.94754  -0.00853   0.00000  -0.02594  -0.02594   1.92160
   A37        1.84815   0.00317   0.00000   0.03463   0.03448   1.88263
   A38        1.94423  -0.01648   0.00000  -0.05280  -0.05294   1.89129
   A39        2.02271   0.00879   0.00000   0.00745   0.00580   2.02851
   A40        1.92968   0.00048   0.00000   0.01415   0.01300   1.94268
   A41        1.88230  -0.00631   0.00000  -0.02945  -0.02943   1.85287
   A42        1.96319   0.02827   0.00000   0.04747   0.04640   2.00958
   A43        1.89308  -0.00497   0.00000  -0.03339  -0.03340   1.85968
   A44        1.93852   0.00193   0.00000   0.02186   0.02075   1.95926
   A45        1.85334  -0.02172   0.00000  -0.02734  -0.02734   1.82600
   A46        1.91112  -0.00149   0.00000  -0.00049  -0.00094   1.91018
   A47        1.90745  -0.00161   0.00000   0.02036   0.02008   1.92753
   A48        1.83828   0.02275   0.00000   0.02050   0.02061   1.85889
   A49        1.91341   0.00095   0.00000  -0.00552  -0.00550   1.90791
   A50        1.99145  -0.01024   0.00000   0.00302   0.00312   1.99457
   A51        1.89971  -0.00956   0.00000  -0.03589  -0.03589   1.86381
   A52        1.90819   0.00521   0.00000   0.01052   0.00968   1.91787
   A53        1.88894  -0.00859   0.00000  -0.00745  -0.00788   1.88107
   A54        1.89925  -0.00010   0.00000  -0.01056  -0.01066   1.88859
   A55        1.94318   0.01181   0.00000   0.03759   0.03805   1.98123
   A56        1.88680   0.00194   0.00000   0.00628   0.00617   1.89297
   A57        1.93698  -0.01023   0.00000  -0.03678  -0.03688   1.90010
   A58        1.93532  -0.00350   0.00000   0.00567   0.00493   1.94026
   A59        1.94120   0.00685   0.00000   0.01151   0.01154   1.95274
   A60        1.89806   0.00200   0.00000   0.01051   0.01057   1.90863
   A61        1.88194   0.00008   0.00000   0.00301   0.00322   1.88516
   A62        1.88203   0.00440   0.00000   0.00360   0.00366   1.88569
   A63        1.92449  -0.01006   0.00000  -0.03510  -0.03505   1.88945
   A64        1.85496   0.02316   0.00000   0.08423   0.08423   1.93919
   A65        1.85960   0.01989   0.00000   0.07284   0.07284   1.93243
   A66        1.90324   0.00144   0.00000   0.02375   0.02362   1.92686
   A67        1.90277  -0.00615   0.00000  -0.00344  -0.00371   1.89905
   A68        1.94236   0.02963   0.00000   0.04263   0.04232   1.98468
   A69        1.88699  -0.00332   0.00000  -0.01247  -0.01262   1.87438
   A70        1.94916  -0.00741   0.00000  -0.02311  -0.02340   1.92576
   A71        1.87791  -0.01536   0.00000  -0.02940  -0.02977   1.84813
   A72        1.85620   0.03546   0.00000   0.12638   0.12638   1.98258
   A73        1.85620   0.03524   0.00000   0.12445   0.12445   1.98065
   A74        1.90324   0.00098   0.00000   0.02365   0.02356   1.92680
   A75        1.90277  -0.00643   0.00000  -0.00256  -0.00282   1.89995
   A76        1.94235   0.03030   0.00000   0.04150   0.04118   1.98353
   A77        1.88700  -0.00473   0.00000  -0.01222  -0.01231   1.87469
   A78        1.94916  -0.00675   0.00000  -0.02353  -0.02383   1.92532
   A79        1.87791  -0.01460   0.00000  -0.02881  -0.02921   1.84869
   A80        1.85496   0.02316   0.00000   0.08569   0.08569   1.94065
   A81        1.85960   0.01993   0.00000   0.07494   0.07494   1.93454
   A82        1.84886   0.02444   0.00000   0.08548   0.08548   1.93434
   A83        1.84886   0.02443   0.00000   0.08537   0.08537   1.93423
    D1        0.96780  -0.00489   0.00000  -0.08439  -0.08412   0.88368
    D2       -1.10847  -0.00259   0.00000  -0.09812  -0.09783  -1.20630
    D3       -1.09723  -0.00378   0.00000  -0.08063  -0.08011  -1.17734
    D4       -0.98833   0.00107   0.00000   0.02692   0.02800  -0.96033
    D5        1.10417   0.00200   0.00000   0.04864   0.04904   1.15321
    D6        1.06891   0.00202   0.00000   0.03386   0.03423   1.10314
    D7        0.87996   0.00108   0.00000   0.17869   0.17891   1.05887
    D8        2.97753   0.01100   0.00000   0.20734   0.20711  -3.09854
    D9       -0.91248   0.00560   0.00000   0.05805   0.05835  -0.85413
   D10       -3.10437  -0.01688   0.00000  -0.03287  -0.03289  -3.13727
   D11        1.15405   0.00409   0.00000   0.07086   0.07099   1.22504
   D12       -2.98055  -0.00664   0.00000  -0.20951  -0.20926   3.09337
   D13       -0.85514  -0.00476   0.00000  -0.18942  -0.18967  -1.04481
   D14        1.03310   0.00669   0.00000   0.06309   0.06292   1.09602
   D15       -1.06304   0.00470   0.00000   0.05658   0.05679  -1.00625
   D16        0.95149   0.00290   0.00000   0.10157   0.10131   1.05279
   D17       -1.10518   0.00959   0.00000   0.10495   0.10513  -1.00006
   D18       -1.14492   0.00090   0.00000   0.08964   0.08973  -1.05519
   D19       -0.98332  -0.00814   0.00000  -0.07252  -0.07276  -1.05607
   D20        1.10213   0.01026   0.00000  -0.06455  -0.06450   1.03764
   D21        0.89472  -0.00189   0.00000   0.00533   0.00426   0.89897
   D22       -1.25392   0.00321   0.00000   0.02420   0.02387  -1.23005
   D23        3.07319   0.01065   0.00000   0.07435   0.07504  -3.13496
   D24        1.34639   0.00388   0.00000   0.00233   0.00297   1.34936
   D25       -0.82698  -0.00869   0.00000  -0.06923  -0.07029  -0.89727
   D26       -2.87979  -0.01238   0.00000   0.00000   0.00000  -2.87979
   D27        1.13446   0.00966   0.00000   0.00000   0.00000   1.13446
   D28       -3.01095   0.00075   0.00000  -0.02476  -0.02525  -3.03620
   D29        1.13446   0.00965   0.00000   0.00000   0.00000   1.13446
   D30       -3.01090   0.00159   0.00000  -0.02372  -0.02403  -3.03493
   D31        1.10207   0.01264   0.00000  -0.06841  -0.06851   1.03355
   D32       -0.98342  -0.00845   0.00000  -0.07286  -0.07322  -1.05664
   D33       -1.25383   0.00071   0.00000   0.02883   0.02860  -1.22523
   D34        2.96226   0.01024   0.00000   0.07888   0.07887   3.04112
   D35        0.89481   0.00198   0.00000   0.01259   0.01182   0.90663
   D36        1.03312   0.00438   0.00000   0.05609   0.05595   1.08907
   D37       -1.06303   0.00512   0.00000   0.05069   0.05086  -1.01217
   D38       -0.91239   0.00229   0.00000   0.05216   0.05231  -0.86009
   D39       -3.00645  -0.00003   0.00000   0.03693   0.03702  -2.96943
   D40        1.14812  -0.00809   0.00000   0.00444   0.00442   1.15254
   D41       -0.82832  -0.01930   0.00000  -0.30000  -0.30119  -1.12951
   D42        1.34508   0.00407   0.00000  -0.22886  -0.22766   1.11742
   D43       -0.98831   0.00560   0.00000   0.03153   0.03245  -0.95586
   D44       -3.10769  -0.00665   0.00000  -0.01601  -0.01524  -3.12292
   D45        1.10419   0.00329   0.00000   0.05280   0.05312   1.15731
   D46       -1.14488  -0.00102   0.00000   0.08720   0.08712  -1.05777
   D47        3.08162   0.00779   0.00000   0.08982   0.09006  -3.11150
   D48        0.95154   0.00661   0.00000   0.10219   0.10202   1.05356
   D49        0.96770  -0.00731   0.00000  -0.08412  -0.08380   0.88389
   D50        3.09675  -0.00095   0.00000  -0.06444  -0.06423   3.03252
   D51        3.05393  -0.00723   0.00000  -0.06308  -0.06233   2.99160
   D52        2.97757   0.01008   0.00000   0.21570   0.21551  -3.09011
   D53        0.87993   0.00200   0.00000   0.18465   0.18484   1.06477
   D54       -0.85520  -0.00572   0.00000  -0.19772  -0.19798  -1.05318
   D55       -2.98062  -0.00568   0.00000  -0.21383  -0.21358   3.08899
   D56       -1.02228  -0.01522   0.00000  -0.17229  -0.17216  -1.19445
   D57        1.10925   0.00254   0.00000  -0.12765  -0.12778   0.98147
   D58       -1.02231  -0.01539   0.00000  -0.17015  -0.16999  -1.19230
   D59        1.10923   0.00272   0.00000  -0.12673  -0.12689   0.98234
         Item               Value     Threshold  Converged?
 Maximum Force            0.035457     0.000450     NO 
 RMS     Force            0.013462     0.000300     NO 
 Maximum Displacement     0.574398     0.001800     NO 
 RMS     Displacement     0.131393     0.001200     NO 
 Predicted change in Energy=-6.998680D-02
 GradGradGradGradGradGradGradGradGradGradGradGradGradGradGradGradGradGrad

 Leave Link  103 at Fri Apr 11 18:45:14 2008, MaxMem=    6291456 cpu:       1.0
 (Enter C:\G03W\l202.exe)
                          Input orientation:                          
 ---------------------------------------------------------------------
 Center     Atomic     Atomic              Coordinates (Angstroms)
 Number     Number      Type              X           Y           Z
 ---------------------------------------------------------------------
    1          6      10061003       -3.561431   -0.284181   -0.372837
    2          6      10061003       -2.583801   -1.116475   -1.274000
    3          6      10061003       -2.744274    0.606275    0.612171
    4          8      10081003       -1.835367   -0.227590    1.368824
    5          6      10061003       -1.512820   -1.867732   -0.411296
    6          6      10061003       -0.840102   -0.912387    0.620205
    7          8      10081003       -0.001828    0.000985   -0.098272
    8          6      10061003        0.835857    0.906865    0.631600
    9          8      10081003        1.831952    0.219755    1.375901
   10          6      10061003        1.502666    1.868325   -0.393666
   11          6      10061003        2.741377   -0.608635    0.614388
   12          6      10061003        3.551665    0.283685   -0.374858
   13          6      10061003        2.567777    1.118459   -1.269656
   14          1      10011000       -4.168781   -0.982835    0.218767
   15          8      10081003       -4.432186    0.574725   -1.121796
   16          1      10011000       -2.072923   -0.420609   -1.954774
   17          8      10081003       -3.363948   -2.027303   -2.059838
   18          1      10011000       -2.188203    1.363503    0.044115
   19          6      10061003       -3.613083    1.370150    1.648537
   20          8      10081003       -0.607023   -2.630211   -1.230853
   21          1      10011000       -2.019074   -2.610916    0.211105
   22          1      10011000       -0.252627   -1.513565    1.317914
   23          1      10011000        0.247321    1.504367    1.331231
   24          1      10011000        2.049812    2.609457    0.195375
   25          8      10081003        0.587286    2.642057   -1.191663
   26          1      10011000        2.185783   -1.367066    0.047556
   27          6      10061003        3.614258   -1.371289    1.648081
   28          8      10081003        4.421113   -0.574266   -1.126909
   29          1      10011000        4.163143    0.981232    0.214034
   30          8      10081003        3.348148    2.028052   -2.057336
   31          1      10011000        2.055592    0.424524   -1.951347
   32          1      10011000       -4.177789    0.664077    2.268177
   33          1      10011000       -4.337981    1.987208    1.113620
   34          8      10081003       -2.865834    2.270281    2.474728
   35          1      10011000        4.179439   -0.664378    2.266363
   36          1      10011000        4.338472   -1.987940    1.111870
   37          8      10081003        2.869121   -2.271091    2.476576
   38          1      10011000        2.280998   -1.779874    3.080805
   39          1      10011000        0.034775    2.099652   -1.785289
   40          1      10011000        2.780018    2.535987   -2.665038
   41          1      10011000        4.987362   -0.059650   -1.731879
   42          1      10011000        0.073208   -2.086748   -1.670601
   43          1      10011000       -2.794215   -2.534380   -2.667044
   44          1      10011000       -4.996346    0.060081   -1.728748
   45          1      10011000       -2.277517    1.779382    3.078950
 ---------------------------------------------------------------------
                    Distance matrix (angstroms):
                    1          2          3          4          5
     1  C    0.000000
     2  C    1.568620   0.000000
     3  C    1.559134   2.559543   0.000000
     4  O    2.452730   2.887003   1.447055   0.000000
     5  C    2.589579   1.567050   2.946977   2.441911   0.000000
     6  C    2.964187   2.582663   2.435625   1.421242   1.558597
     7  O    3.581547   3.049203   2.896915   2.359339   2.423465
     8  C    4.665150   4.406731   3.592780   2.994315   3.781838
     9  O    5.692154   5.320373   4.655591   3.694509   4.328877
    10  C    5.502617   5.136462   4.543235   4.317603   4.801207
    11  C    6.387901   5.672869   5.618575   4.654133   4.553630
    12  C    7.135728   6.357111   6.380999   5.685239   5.502629
    13  C    6.351289   5.615488   5.658753   5.306702   5.128877
    14  H    1.098629   2.181369   2.170082   2.708846   2.869521
    15  O    1.434180   2.509950   2.420059   3.686512   3.872093
    16  H    2.176417   1.099400   2.845067   3.337663   2.188654
    17  O    2.433813   1.433798   3.802546   4.163082   2.483914
    18  H    2.185055   2.836233   1.097860   2.100220   3.332330
    19  C    2.612553   3.972902   1.553187   2.406509   4.374688
    20  O    3.868925   2.490163   4.294115   3.746964   1.439971
    21  H    2.851938   2.181240   3.322211   2.655994   1.093618
    22  H    3.913849   3.508571   3.346655   2.039948   2.168799
    23  H    4.539752   4.655244   3.205193   2.708999   4.183963
    24  H    6.338932   6.124705   5.212458   4.951810   5.753748
    25  O    5.142489   4.918245   4.300874   4.545350   5.035634
    26  H    5.863432   4.955627   5.340255   4.383354   3.760435
    27  C    7.533686   6.857071   6.739050   5.575342   5.547469
    28  O    8.023328   7.027408   7.467319   6.744806   6.115285
    29  H    7.849505   7.220518   6.929034   6.227111   6.381550
    30  O    7.478385   6.759415   6.801862   6.610244   6.443259
    31  H    5.877492   4.935327   5.444573   5.156389   4.512178
    32  H    2.872985   4.272959   2.191041   2.662864   4.548812
    33  H    2.823437   4.290772   2.167563   3.351647   5.016719
    34  O    3.888156   5.059903   2.500562   2.919631   5.223306
    35  H    8.187246   7.647221   7.231094   6.097069   6.404665
    36  H    8.216789   7.373581   7.559428   6.425040   6.047487
    37  O    7.308828   6.718208   6.577647   5.247401   5.263450
    38  H    6.949727   6.562826   6.086149   4.720690   5.157086
    39  H    4.539866   4.178736   3.962462   4.343031   4.474711
    40  H    7.309002   6.636718   6.706839   6.723925   6.549851
    41  H    8.659057   7.658266   8.106554   7.496145   6.874988
    42  H    4.259582   2.856295   4.516816   4.041934   2.036984
    43  H    3.303846   1.998825   4.540866   4.746462   2.678581
    44  H    2.003994   2.722399   3.293943   4.435031   4.193698
    45  H    4.221559   5.237172   2.771108   2.673568   5.105685
                    6          7          8          9         10
     6  C    0.000000
     7  O    1.432885   0.000000
     8  C    2.473590   1.433544   0.000000
     9  O    2.998783   2.363006   1.420672   0.000000
    10  C    3.774766   2.416138   1.555703   2.440815   0.000000
    11  C    3.594342   2.899085   2.434757   1.446785   2.947187
    12  C    4.659223   3.575435   2.962588   2.454925   2.590335
    13  C    4.394262   3.037064   2.580522   2.889303   1.569751
    14  H    3.353538   4.293240   5.365426   6.228481   6.377264
    15  O    4.260180   4.583105   5.562103   6.753068   6.117683
    16  H    2.896931   2.813143   4.112483   5.172186   4.523397
    17  O    3.846487   4.389253   5.787187   6.622005   6.452595
    18  H    2.707200   2.580110   3.114257   4.386737   3.750869
    19  C    3.735889   4.238764   4.587141   5.571907   5.530793
    20  O    2.536072   2.927831   4.249887   4.567940   5.038700
    21  H    2.107685   3.314668   4.549970   4.919335   5.729922
    22  H    1.092401   2.088623   2.741223   2.711684   4.177050
    23  H    2.743857   2.089429   1.092185   2.040411   2.164169
    24  H    4.575529   3.331603   2.136071   2.674280   1.093442
    25  O    4.237260   2.918530   2.529223   3.742876   1.439924
    26  H    3.112979   2.584273   2.708167   2.099452   3.336027
    27  C    4.594393   4.243697   3.733996   2.404604   4.372945
    28  O    5.554018   4.577272   4.259127   3.687585   3.875723
[...]
    23  H    4.552044   4.658289   3.234502   2.643192   4.160844
    24  H    6.423769   6.239422   5.279571   4.927869   5.845687
    25  O    5.201276   5.022541   4.317247   4.479488   5.111697
    26  H    5.965792   5.051821   5.463314   4.496346   3.894077
    27  C    7.639857   6.945853   6.873679   5.692331   5.655374
    28  O    8.089429   7.114408   7.539229   6.802999   6.250517
    29  H    7.935526   7.325789   7.018042   6.261900   6.495240
    30  O    7.575450   6.911867   6.867161   6.622981   6.605934
    31  H    5.975976   5.081447   5.520529   5.198418   4.685389
    32  H    2.860751   4.252949   2.189621   2.679613   4.512152
    33  H    2.795398   4.272093   2.175408   3.370298   4.997093
    34  O    3.862376   5.050199   2.482577   2.912164   5.218990
    35  H    8.263645   7.713740   7.332094   6.164897   6.479969
    36  H    8.339697   7.485731   7.703374   6.562363   6.194968
    37  O    7.415845   6.782276   6.727951   5.393847   5.335440
    38  H    7.048119   6.613346   6.227585   4.850214   5.199947
    39  H    4.626570   4.287959   4.007394   4.293179   4.532975
    40  H    7.375580   6.746984   6.751749   6.715279   6.665504
    41  H    8.770852   7.816326   8.196252   7.557836   7.069562
    42  H    4.192525   2.809584   4.456264   3.969921   2.000081
    43  H    3.290614   1.985617   4.538327   4.781325   2.705362
    44  H    1.986554   2.704409   3.296157   4.439553   4.153578
    45  H    4.170439   5.202653   2.726204   2.631124   5.074680
                    6          7          8          9         10
     6  C    0.000000
     7  O    1.444663   0.000000
     8  C    2.460313   1.444426   0.000000
     9  O    2.993179   2.396446   1.444076   0.000000
    10  C    3.802432   2.462345   1.554674   2.455431   0.000000
    11  C    3.665257   2.960542   2.447181   1.446357   2.945071
    12  C    4.715733   3.618492   2.958464   2.471014   2.568981
    13  C    4.445237   3.074728   2.568012   2.904897   1.560567
    14  H    3.379195   4.344259   5.414093   6.266266   6.477000
    15  O    4.240611   4.585195   5.605233   6.793899   6.217076
    16  H    2.855575   2.807837   4.146427   5.194988   4.669482
    17  O    3.833546   4.409233   5.820580   6.629902   6.596416
    18  H    2.716871   2.640285   3.204876   4.485561   3.866225
    19  C    3.770096   4.320162   4.692526   5.685412   5.631513
    20  O    2.503832   2.934884   4.247623   4.535744   5.155392
    21  H    2.139682   3.374538   4.577305   4.924633   5.834055
    22  H    1.093782   2.081727   2.686133   2.647690   4.155737
    23  H    2.687043   2.081855   1.093732   2.057694   2.151445
    24  H    4.585891   3.377586   2.151425   2.698917   1.094195
    25  O    4.199713   2.890593   2.478305   3.728395   1.436860
    26  H    3.219487   2.651708   2.718494   2.086320   3.349509
    27  C    4.704413   4.328746   3.770538   2.425155   4.362250
    28  O    5.621107   4.599006   4.243827   3.710937   3.835328
    29  H    5.418808   4.347321   3.375420   2.753245   2.857382
    30  O    5.819911   4.407734   3.832972   4.188727   2.469833
    31  H    4.151262   2.814409   2.860226   3.335631   2.183720
    32  H    4.064503   4.909676   5.350668   6.161736   6.459436
    33  H    4.597089   5.001304   5.430644   6.553468   6.166953
    34  O    4.240390   4.552492   4.468161   5.383882   5.313352
    35  H    5.360056   4.916485   4.064407   2.679633   4.515520
    36  H    5.444364   5.011388   4.597987   3.370002   4.998251
    37  O    4.480413   4.560348   4.240521   2.911589   5.218901
    38  H    4.162077   4.372113   3.937077   2.630713   5.074924
    39  H    3.887856   2.599575   2.711537   4.017121   1.993206
    40  H    5.989442   4.546604   4.145280   4.778513   2.700599
    41  H    6.429847   5.296838   4.853219   4.439028   4.154822
    42  H    2.624510   2.532630   3.785841   4.128687   4.465447
    43  H    4.150347   4.554040   5.996564   6.728854   6.663109
    44  H    4.851441   5.285386   6.416345   7.551875   7.038304
    45  H    3.937391   4.366388   4.152631   4.842583   5.183485
                   11         12         13         14         15
    11  C    0.000000
    12  C    1.560645   0.000000
    13  C    2.565967   1.559737   0.000000
    14  H    7.031933   7.943260   7.322047   0.000000
    15  O    7.536387   8.078850   7.093879   2.075186   0.000000
    16  H    5.521569   5.976584   5.074974   3.065984   2.646526
    17  O    6.885475   7.593414   6.917789   2.624912   2.928228
    18  H    5.456686   5.953479   5.035797   3.066737   2.638979
    19  C    6.871826   7.630755   6.932721   2.766350   3.016061
    20  O    4.387925   5.274987   5.080867   4.172041   4.944227
    21  H    5.292929   6.438908   6.245082   2.672115   4.171598
    22  H    3.245250   4.560858   4.659858   4.133543   5.258706
    23  H    3.356135   3.907114   3.489124   5.200163   5.403904
    24  H    3.316413   2.817717   2.159961   7.256769   7.019492
    25  O    4.282633   3.857695   2.498034   6.193542   5.493716
    26  H    1.095335   2.178748   2.849214   6.500578   7.063049
    27  C    1.553213   2.590950   3.959739   8.055975   8.818546
    28  O    2.440739   1.437211   2.469115   8.801263   8.944645
    29  H    2.170154   1.096677   2.177441   8.655289   8.781915
    30  O    3.812218   2.435254   1.436311   8.516436   8.037857
    31  H    2.851406   2.167757   1.096425   6.858397   6.594470
    32  H    7.335084   8.259558   7.704152   2.595238   3.448551
    33  H    7.699283   8.327278   7.468832   3.042716   2.661716
    34  O    6.720944   7.401411   6.767872   4.129617   4.280595
    35  H    2.189615   2.860250   4.253553   8.696359   9.407856
    36  H    2.175419   2.796019   4.270598   8.771840   9.497828
    37  O    2.482607   3.862499   5.048397   7.641646   8.719911
    38  H    2.726345   4.170306   5.201532   7.228349   8.364046
    39  H    4.428652   4.102741   2.683095   5.664053   4.864174
    40  H    4.536558   3.292129   1.984869   8.377826   7.669738
    41  H    3.296532   1.986426   2.704457   9.544760   9.527017
    42  H    3.830253   4.501700   4.220636   4.722401   5.165636
    43  H    6.777259   7.402103   6.760070   3.570571   3.749699
    44  H    8.197753   8.764817   7.798613   2.286193   0.984074
    45  H    6.222746   7.037069   6.603074   4.340545   4.859779
                   16         17         18         19         20
    16  H    0.000000
    17  O    2.070844   0.000000
    18  H    2.707599   4.178710   0.000000
    19  C    4.311934   5.012646   2.150024   0.000000
    20  O    2.738196   2.929169   4.502127   5.760364   0.000000
    21  H    3.070184   2.679488   3.986732   4.483794   2.027299
    22  H    3.855708   4.601077   3.703996   4.482416   2.749476
    23  H    4.472839   6.086195   2.827563   3.966860   4.895040
    24  H    5.688903   7.604050   4.527343   6.064053   6.142121
    25  O    4.262620   6.310849   3.334883   5.248330   5.500961
    26  H    4.861270   6.058632   5.282783   6.762498   3.408900
    27  C    6.863098   8.002389   6.756895   7.913841   5.317384
    28  O    6.603748   8.069819   7.058447   8.817242   5.576462
    29  H    6.854264   8.528562   6.479377   8.036971   6.264739
    30  O    6.107142   8.026470   6.034580   7.980579   6.365619
    31  H    4.345761   6.119340   4.857418   6.860986   4.317403
    32  H    4.836053   5.130563   3.065439   1.094369   5.948167
    33  H    4.515763   5.174667   2.495252   1.091712   6.366166
    34  O    5.246724   6.249300   2.669355   1.432794   6.543822
    35  H    7.602179   8.855683   7.163533   8.229716   6.281947
    36  H    7.353711   8.432352   7.558599   8.835635   5.615913
    37  O    6.926736   7.748713   6.841860   7.693894   5.079579
    38  H    6.822234   7.662825   6.399189   7.046811   5.214129
    39  H    3.425782   5.494504   3.034094   5.122855   4.860822
    40  H    5.843916   7.816269   5.834390   7.854805   6.483445
    41  H    7.209721   8.773006   7.618038   9.448515   6.408342
    42  H    2.676838   3.437010   4.430391   5.985737   0.982842
    43  H    2.281684   0.984169   4.771874   5.851759   2.649343
    44  H    2.991786   2.642178   3.582771   3.839290   5.141544
    45  H    5.478733   6.442065   3.041602   1.978765   6.360298
                   21         22         23         24         25
    21  H    0.000000
    22  H    2.386411   0.000000
    23  H    4.797793   2.964914   0.000000
    24  H    6.690833   4.811683   2.398870   0.000000
    25  O    6.087255   4.853407   2.720926   2.029492   0.000000
    26  H    4.549795   2.840412   3.706157   3.992391   4.486581
    27  C    6.079189   3.979502   4.480624   4.497492   5.754938
    28  O    7.049785   5.418148   5.258796   4.165092   4.957775
    29  H    7.264905   5.206222   4.124317   2.667354   4.184566
    30  O    7.607707   6.086782   4.598505   2.659837   2.959732
    31  H    5.700569   4.473624   3.861720   3.064299   2.750605
    32  H    4.364753   4.616746   4.648015   6.895169   6.214363
    33  H    5.177314   5.418358   4.736577   6.615090   5.543189
    34  O    5.420446   4.790665   3.513402   5.491498   5.021164
    35  H    6.904055   4.658681   4.612909   4.381079   5.948545
    36  H    6.638310   4.750507   5.417073   5.186819   6.364447
    37  O    5.505312   3.526599   4.790096   5.437500   6.528892
    38  H    5.306314   3.177227   4.279549   5.216567   6.342491
    39  H    5.562755   4.668610   3.099268   2.858917   0.983828
    40  H    7.715160   6.418117   4.833478   3.016217   2.677815
    41  H    7.920028   6.303009   5.826331   4.359949   5.162117
    42  H    2.849844   2.940509   4.582345   5.485563   4.831374
    43  H    3.043425   4.840441   6.423684   7.717598   6.438745
    44  H    4.372296   5.828387   6.290558   7.891624   6.327709
    45  H    5.195959   4.280504   3.166632   5.302504   5.162877
                   26         27         28         29         30
    26  H    0.000000
    27  C    2.150196   0.000000
    28  O    2.642092   3.014342   0.000000
    29  H    3.067491   2.769107   2.075268   0.000000
    30  O    4.175473   5.015120   2.928817   2.629336   0.000000
    31  H    2.698343   4.305510   2.644397   3.064745   2.070110
    32  H    7.173765   8.235578   9.412094   8.683002   8.838059
    33  H    7.562564   8.833587   9.493680   8.748653   8.404790
    34  O    6.842275   7.687016   8.711228   7.616445   7.726259
    35  H    3.065537   1.094370   3.444679   2.597366   5.135419
    36  H    2.495362   1.091705   2.660039   3.047591   5.177034
    37  O    2.669762   1.432797   4.280239   4.131551   6.250544
    38  H    3.042139   1.978781   4.859242   4.341054   6.443679
    39  H    4.388868   5.966552   5.035729   4.648263   3.265284
    40  H    4.767050   5.852405   3.753819   3.573124   0.984178
    41  H    3.585222   3.838641   0.984074   2.286226   2.643242
    42  H    2.846184   4.919662   4.754758   5.532981   5.453691
    43  H    5.864664   7.884063   7.710897   8.399610   7.824006
    44  H    7.627051   9.455044   9.532734   9.530227   8.743523
    45  H    6.400901   7.041730   8.357886   7.207586   7.646479
                   31         32         33         34         35
    31  H    0.000000
    32  H    7.601994   0.000000
    33  H    7.349548   1.766639   0.000000
    34  O    6.923799   2.077733   2.035915   0.000000
    35  H    4.831781   8.581025   9.156204   7.813911   0.000000
    36  H    4.507853   9.164614   9.726952   8.682664   1.766635
    37  O    5.239519   7.826826   8.688346   7.565070   2.077756
    38  H    5.473240   7.140726   8.074897   6.828530   2.301119
    39  H    2.523453   6.064751   5.357111   5.168842   6.325782
    40  H    2.283909   8.772806   8.157412   7.667846   6.028052
    41  H    2.991173  10.111313  10.067915   9.283330   4.082173
    42  H    3.389324   6.333248   6.559936   6.640424   5.868020
    43  H    5.861644   6.025343   6.042514   7.014974   8.798589
    44  H    7.202561   4.084987   3.452811   5.172521  10.112143
    45  H    6.821226   2.301129   2.851529   0.983868   7.130203
                   36         37         38         39         40
    36  H    0.000000
    37  O    2.035851   0.000000
    38  H    2.851479   0.983868   0.000000
    39  H    6.506693   6.654322   6.532959   0.000000
    40  H    6.044255   7.013680   7.165798   2.864448   0.000000
    41  H    3.453041   5.172827   5.726434   5.301944   3.473718
    42  H    5.160983   4.947451   5.158348   4.182751   5.565084
    43  H    8.192807   7.696209   7.735570   5.569978   7.619765
    44  H   10.078036   9.297213   8.989649   5.623314   8.354419
    45  H    8.070940   6.829319   6.036792   5.375188   7.713624
                   41         42         43         44         45
    41  H    0.000000
    42  H    5.536177   0.000000
    43  H    8.393660   3.067145   0.000000
    44  H   10.129753   5.455059   3.467641   0.000000
    45  H    8.979096   6.485297   7.167544   5.726716   0.000000
 Stoichiometry    C12H22O11
 Framework group  C1[X(C12H22O11)]
 Deg. of freedom   129
 Full point group                 C1
 Largest Abelian subgroup         C1      NOp   1
 Largest concise Abelian subgroup C1      NOp   1
                         Standard orientation:                         
 ---------------------------------------------------------------------
 Center     Atomic     Atomic              Coordinates (Angstroms)
 Number     Number      Type              X           Y           Z
 ---------------------------------------------------------------------
    1          6      10061003        3.596870    0.256340   -0.369134
    2          6      10061003        2.645552    1.136965   -1.236893
    3          6      10061003        2.777885   -0.658823    0.593818
    4          8      10081003        1.841455    0.128307    1.365970
    5          6      10061003        1.603094    1.874253   -0.343184
    6          6      10061003        0.870731    0.872816    0.598407
    7          8      10081003        0.001530    0.002146   -0.158875
    8          6      10061003       -0.870414   -0.865447    0.598331
    9          8      10081003       -1.846508   -0.123815    1.361599
   10          6      10061003       -1.589685   -1.867449   -0.348058
   11          6      10061003       -2.788025    0.654865    0.587549
   12          6      10061003       -3.600453   -0.268745   -0.372928
   13          6      10061003       -2.640505   -1.138149   -1.242076
   14          1      10011000        4.230504    0.913274    0.238896
   15          8      10081003        4.430383   -0.569069   -1.199542
   16          1      10011000        2.117672    0.482649   -1.940730
   17          8      10081003        3.441506    2.074629   -1.978964
   18          1      10011000        2.232403   -1.400990    0.000875
   19          6      10061003        3.680390   -1.437296    1.589780
   20          8      10081003        0.706621    2.682588   -1.124081
   21          1      10011000        2.137288    2.572750    0.308075
   22          1      10011000        0.273457    1.461215    1.300838
   23          1      10011000       -0.276173   -1.452308    1.304534
   24          1      10011000       -2.129400   -2.581076    0.281788
   25          8      10081003       -0.654269   -2.647362   -1.110487
   26          1      10011000       -2.247231    1.399119   -0.006914
   27          6      10061003       -3.695998    1.429358    1.581640
   28          8      10081003       -4.444304    0.547446   -1.201978
   29          1      10011000       -4.225712   -0.932382    0.236447
   30          8      10081003       -3.424146   -2.083133   -1.987665
   31          1      10011000       -2.121246   -0.475056   -1.944091
   32          1      10011000        4.221202   -0.741220    2.238351
   33          1      10011000        4.418689   -2.017876    1.033293
   34          8      10081003        2.938421   -2.368971    2.386249
   35          1      10011000       -4.232582    0.731013    2.231285
   36          1      10011000       -4.437786    2.004108    1.023758
   37          8      10081003       -2.960487    2.367386    2.376646
   38          1      10011000       -2.383007    1.866519    2.996037
   39          1      10011000       -0.168914   -2.059837   -1.732712
   40          1      10011000       -2.843081   -2.524296   -2.648229
   41          1      10011000       -5.069030   -0.035571   -1.690046
   42          1      10011000        0.030862    2.114399   -1.555924
   43          1      10011000        2.869343    2.518424   -2.645495
   44          1      10011000        5.060634    0.006938   -1.688827
   45          1      10011000        2.363829   -1.863138    3.004289
 ---------------------------------------------------------------------
 Rotational constants (GHZ):      0.3480414      0.1513519      0.1439819
 Leave Link  202 at Fri Apr 11 18:45:23 2008, MaxMem=    6291456 cpu:       0.0
 (Enter C:\G03W\l9999.exe)
 1|1|UNPC-UNK|FOpt|Dreiding|ZDO|C12H22O11|PCUSER|11-Apr-2008|0||#p Opt=
 (Modredun,nomicro) dreiding||aagtxgtx6060||0,1|C,-3.5980680209,-0.2824
 589301,-0.370116852|C,-2.6395268321,-1.154463377,-1.2386321474|C,-2.78
 66921091,0.6369429133,0.5952358608|O,-1.8451702154,-0.1446840979,1.366
 7854688|C,-1.5924544205,-1.8856933982,-0.3453396945|C,-0.8683147438,-0
 .8806180014,0.5987319211|O,-0.0048838705,-0.0021863792,-0.1561821086|C
 ,0.8599810826,0.8704142913,0.6033855511|O,1.840838446,0.1345912288,1.3
 6616935|C,1.5726858972,1.8794168186,-0.340529451|C,2.7887446393,-0.635
 7157546,0.5915408844|C,3.5951940082,0.2956090954,-0.366522294|C,2.6296
 349762,1.1595133912,-1.2349381257|H,-4.2273810208,-0.9451527881,0.2361
 458353|O,-4.4369055547,0.5383119851,-1.1997609263|H,-2.1158612519,-0.4
 949903484,-1.940801212|O,-3.4279006669,-2.0966012926,-1.9831245425|H,-
 2.2461685942,1.3841917759,0.0041369959|C,-3.6957815149,1.4069245718,1.
 5918107627|O,-0.6893665098,-2.6859739472,-1.1269101279|H,-2.1220629361
 ,-2.5892969446,0.3041651142|H,-0.2673421612,-1.4658896509,1.3006208274
 |H,0.2608130052,1.4515884241,1.3101279201|H,2.1065765057,2.5958436009,
 0.2911009555|O,0.632223015,2.6538175206,-1.1023683206|H,2.2539699681,-
 1.3828406071,-0.0047632159|C,3.7015217807,-1.4053232079,1.585026737|O,
 4.4457616742,-0.512825713,-1.1963065184|H,4.2150120411,0.9627134773,0.
 2446217317|O,3.406950715,2.1116058307,-1.9780997613|H,2.1158910669,0.4
 93902703,-1.9386262273|H,-4.2320232538,0.7056981447,2.2386263274|H,-4.
 4378457365,1.9830713135,1.035725829|O,-2.9613949448,2.3425756596,2.390
 6423803|H,4.2323767713,-0.7042383126,2.2364247758|H,4.4480131557,-1.97
 357323,1.0267592373|O,2.9722388834,-2.3501958858,2.377661031|H,2.39054
 13213,-1.854730777,2.997449407|H,0.1517554618,2.0638767746,-1.72609812
 45|H,2.8232345536,2.5496886673,-2.6383762691|H,5.0666064704,0.07566829
 06,-1.6827510086|H,-0.0174299628,-2.1120337447,-1.5571114839|H,-2.8518
 989577,-2.534949473,-2.6499542639|H,-5.0624670624,-0.0414222808,-1.690
 6597961|H,-2.3836370979,1.8398546635,3.0082705676||Version=IA32W-G03Re
 vD.01|HF=0.0736636|RMSD=0.000e+000|RMSF=6.142e-004|Thermal=0.|Dipole=0
 .,0.,0.|PG=C01 [X(C12H22O11)]||@


 WE STILL HAVE JUDGEMENT HERE,
 THAT WE TEACH BUT BLOODY INSTRUCTIONS,
 WHICH, BEING TAUGHT,
 RETURN TO PLAGUE THE INVENTOR.
           MACBETH ACT I, SCENE VII
 Job cpu time:  0 days  0 hours  0 minutes 13.0 seconds.
 File lengths (MBytes):  RWF=     11 Int=      0 D2E=      0 Chk=      5 Scr=      1
 Normal termination of Gaussian 03 at Fri Apr 11 18:45:24 2008.
