 Entering Link 1 = C:\G03W\l1.exe PID=      2944.
  
 Copyright (c) 1988,1990,1992,1993,1995,1998,2003,2004, Gaussian, Inc.
                  All Rights Reserved.
  
 This is the Gaussian(R) 03 program.  It is based on the
 the Gaussian(R) 98 system (copyright 1998, Gaussian, Inc.),
 the Gaussian(R) 94 system (copyright 1995, Gaussian, Inc.),
 the Gaussian 92(TM) system (copyright 1992, Gaussian, Inc.),
 the Gaussian 90(TM) system (copyright 1990, Gaussian, Inc.),
 the Gaussian 88(TM) system (copyright 1988, Gaussian, Inc.),
 the Gaussian 86(TM) system (copyright 1986, Carnegie Mellon
 University), and the Gaussian 82(TM) system (copyright 1983,
 Carnegie Mellon University). Gaussian is a federally registered
 trademark of Gaussian, Inc.
  
 This software contains proprietary and confidential information,
 including trade secrets, belonging to Gaussian, Inc.
  
 This software is provided under written license and may be
 used, copied, transmitted, or stored only in accord with that
 written license.
  
 The following legend is applicable only to US Government
 contracts under FAR:
  
                    RESTRICTED RIGHTS LEGEND
  
 Use, reproduction and disclosure by the US Government is
 subject to restrictions as set forth in subparagraphs (a)
 and (c) of the Commercial Computer Software - Restricted
 Rights clause in FAR 52.227-19.
  
 Gaussian, Inc.
 340 Quinnipiac St., Bldg. 40, Wallingford CT 06492
  
  
 ---------------------------------------------------------------
 Warning -- This program may not be used in any manner that
 competes with the business of Gaussian, Inc. or will provide
 assistance to any competitor of Gaussian, Inc.  The licensee
 of this program is prohibited from giving any competitor of
 Gaussian, Inc. access to this program.  By using this program,
 the user acknowledges that Gaussian, Inc. is engaged in the
 business of creating and licensing software in the field of
 computational chemistry and represents and warrants to the
 licensee that it is not a competitor of Gaussian, Inc. and that
 it will not use this program in any manner prohibited above.
 ---------------------------------------------------------------
  

 Cite this work as:
 Gaussian 03, Revision D.01,
 M. J. Frisch, G. W. Trucks, H. B. Schlegel, G. E. Scuseria, 
 M. A. Robb, J. R. Cheeseman, J. A. Montgomery, Jr., T. Vreven, 
 K. N. Kudin, J. C. Burant, J. M. Millam, S. S. Iyengar, J. Tomasi, 
 V. Barone, B. Mennucci, M. Cossi, G. Scalmani, N. Rega, 
 G. A. Petersson, H. Nakatsuji, M. Hada, M. Ehara, K. Toyota, 
 R. Fukuda, J. Hasegawa, M. Ishida, T. Nakajima, Y. Honda, O. Kitao, 
 H. Nakai, M. Klene, X. Li, J. E. Knox, H. P. Hratchian, J. B. Cross, 
 V. Bakken, C. Adamo, J. Jaramillo, R. Gomperts, R. E. Stratmann, 
 O. Yazyev, A. J. Austin, R. Cammi, C. Pomelli, J. W. Ochterski, 
 P. Y. Ayala, K. Morokuma, G. A. Voth, P. Salvador, J. J. Dannenberg, 
 V. G. Zakrzewski, S. Dapprich, A. D. Daniels, M. C. Strain, 
 O. Farkas, D. K. Malick, A. D. Rabuck, K. Raghavachari, 
 J. B. Foresman, J. V. Ortiz, Q. Cui, A. G. Baboul, S. Clifford, 
 J. Cioslowski, B. B. Stefanov, G. Liu, A. Liashenko, P. Piskorz, 
 I. Komaromi, R. L. Martin, D. J. Fox, T. Keith, M. A. Al-Laham, 
 C. Y. Peng, A. Nanayakkara, M. Challacombe, P. M. W. Gill, 
 B. Johnson, W. Chen, M. W. Wong, C. Gonzalez, and J. A. Pople, 
 Gaussian, Inc., Wallingford CT, 2004.
 
 ******************************************
 Gaussian 03:  IA32W-G03RevD.01 13-Oct-2005
                16-Jan-2008 
 ******************************************
 ----------------------------------
 #p Opt=(Modredun,nomicro) dreiding
 ----------------------------------
 1/14=-1,18=150,38=1,56=1,64=1/1,3;
 2/9=110,17=6,18=5,40=1/2;
 3/5=30,11=9,16=1,25=1,30=1/1;
 4/20=9,22=1,24=3/2;
 7/44=-1/16;
 1/14=-1,18=50,64=1/3(2);
 2/9=110/2;
 99//99;
 2/9=110/2;
 3/5=30,11=9,16=1,25=1,30=1/1;
 4/16=2,20=9,22=1,24=3/2;
 7/44=-1/16;
 1/14=-1,18=50,64=1/3(-4);
 2/9=110/2;
 99//99;
 Leave Link    1 at Wed Jan 16 17:34:28 2008, MaxMem=          0 cpu:       0.0
 (Enter C:\G03W\l101.exe)
 ---------------------------------
 acetaldehyde dimethylacetal-g ecl
 ---------------------------------
 Symbolic Z-matrix:
 Charge =  0 Multiplicity = 1
 C                     1.58102  -0.1215    1.31776 
 O                     1.15002  -0.6595    0.07976 
 C                    -0.23798  -0.4635   -0.17024 
 O                    -0.41298   0.9105   -0.50224 
 C                    -1.28098   1.5835    0.39276 
 H                     2.65602  -0.3865    1.44976 
 H                     1.49202   0.9895    1.31376 
 H                     0.99802  -0.5645    2.15976 
 C                    -0.63698  -1.3245   -1.38024 
 H                    -0.83698  -0.7705    0.72376 
 H                    -1.34698   2.6495    0.07176 
 H                    -2.29998   1.1315    0.34576 
 H                    -0.87998   1.5465    1.43276 
 H                    -0.47398  -2.4065   -1.17024 
 H                    -0.03998  -1.0555   -2.28124 
 H                    -1.71498  -1.1855   -1.62624 
 
 The following ModRedundant input section has been read:
 D   10    3    4    5 0.0000 F                                                
 Iteration  1 RMS(Cart)=  0.00364124 RMS(Int)=  0.00208907
 Iteration  2 RMS(Cart)=  0.00002818 RMS(Int)=  0.00208900
 Iteration  3 RMS(Cart)=  0.00000038 RMS(Int)=  0.00208900
 Iteration  1 RMS(Cart)=  0.00146563 RMS(Int)=  0.00084065
 Iteration  2 RMS(Cart)=  0.00058984 RMS(Int)=  0.00093627
 Iteration  3 RMS(Cart)=  0.00023734 RMS(Int)=  0.00102023
 Iteration  4 RMS(Cart)=  0.00009550 RMS(Int)=  0.00105948
 Iteration  5 RMS(Cart)=  0.00003842 RMS(Int)=  0.00107604
 Iteration  6 RMS(Cart)=  0.00001546 RMS(Int)=  0.00108281
 Iteration  7 RMS(Cart)=  0.00000622 RMS(Int)=  0.00108556
 Iteration  8 RMS(Cart)=  0.00000250 RMS(Int)=  0.00108667
 Iteration  9 RMS(Cart)=  0.00000101 RMS(Int)=  0.00108711
 Iteration 10 RMS(Cart)=  0.00000041 RMS(Int)=  0.00108729
 Fast transformation storage of   1 MWords has been initialized.
                    Isotopes and Nuclear Properties:
 (Nuclear quadrupole moments (NQMom) in fm**2, nuclear magnetic moments (NMagM)
  in nuclear magnetons)

  Atom         1           2           3           4           5           6           7           8           9          10
 IAtWgt=          12          16          12          16          12           1           1           1          12           1
 AtmWgt=  12.0000000  15.9949146  12.0000000  15.9949146  12.0000000   1.0078250   1.0078250   1.0078250  12.0000000   1.0078250
 NucSpn=           0           0           0           0           0           1           1           1           0           1
 AtZEff=   0.0000000   0.0000000   0.0000000   0.0000000   0.0000000   0.0000000   0.0000000   0.0000000   0.0000000   0.0000000
 NQMom=    0.0000000   0.0000000   0.0000000   0.0000000   0.0000000   0.0000000   0.0000000   0.0000000   0.0000000   0.0000000
 NMagM=    0.0000000   0.0000000   0.0000000   0.0000000   0.0000000   2.7928460   2.7928460   2.7928460   0.0000000   2.7928460

  Atom        11          12          13          14          15          16
 IAtWgt=           1           1           1           1           1           1
 AtmWgt=   1.0078250   1.0078250   1.0078250   1.0078250   1.0078250   1.0078250
 NucSpn=           1           1           1           1           1           1
 AtZEff=   0.0000000   0.0000000   0.0000000   0.0000000   0.0000000   0.0000000
 NQMom=    0.0000000   0.0000000   0.0000000   0.0000000   0.0000000   0.0000000
 NMagM=    2.7928460   2.7928460   2.7928460   2.7928460   2.7928460   2.7928460
 Generating MM parameters.
 Include all MM classes
 MMInit generated parameter data with length LenPar=  1458.
 Leave Link  101 at Wed Jan 16 17:34:29 2008, MaxMem=    6291456 cpu:       1.0
 (Enter C:\G03W\l103.exe)

 GradGradGradGradGradGradGradGradGradGradGradGradGradGradGradGradGradGrad
 Berny optimization.
 Initialization pass.
                           ----------------------------
                           !    Initial Parameters    !
                           ! (Angstroms and Degrees)  !
 --------------------------                            --------------------------
 ! Name  Definition              Value          Derivative Info.                !
 --------------------------------------------------------------------------------
 ! R1    R(1,2)                  1.417          estimate D2E/DX2                !
 ! R2    R(1,6)                  1.115          estimate D2E/DX2                !
 ! R3    R(1,7)                  1.1146         estimate D2E/DX2                !
 ! R4    R(1,8)                  1.1158         estimate D2E/DX2                !
 ! R5    R(2,3)                  1.4239         estimate D2E/DX2                !
 ! R6    R(3,4)                  1.4243         estimate D2E/DX2                !
 ! R7    R(3,9)                  1.5377         estimate D2E/DX2                !
 ! R8    R(3,10)                 1.1191         estimate D2E/DX2                !
 ! R9    R(4,5)                  1.4168         estimate D2E/DX2                !
 ! R10   R(5,11)                 1.1152         estimate D2E/DX2                !
 ! R11   R(5,12)                 1.1157         estimate D2E/DX2                !
 ! R12   R(5,13)                 1.1152         estimate D2E/DX2                !
 ! R13   R(9,14)                 1.1142         estimate D2E/DX2                !
 ! R14   R(9,15)                 1.1138         estimate D2E/DX2                !
 ! R15   R(9,16)                 1.1144         estimate D2E/DX2                !
 ! A1    A(2,1,6)              107.845          estimate D2E/DX2                !
 ! A2    A(2,1,7)              110.551          estimate D2E/DX2                !
 ! A3    A(2,1,8)              110.4638         estimate D2E/DX2                !
 ! A4    A(6,1,7)              108.3194         estimate D2E/DX2                !
 ! A5    A(6,1,8)              108.6652         estimate D2E/DX2                !
 ! A6    A(7,1,8)              110.8993         estimate D2E/DX2                !
 ! A7    A(1,2,3)              113.4304         estimate D2E/DX2                !
 ! A8    A(2,3,4)              106.8097         estimate D2E/DX2                !
 ! A9    A(2,3,9)              108.2948         estimate D2E/DX2                !
 ! A10   A(2,3,10)             109.5085         estimate D2E/DX2                !
 ! A11   A(4,3,9)              109.2188         estimate D2E/DX2                !
 ! A12   A(4,3,10)             112.6595         estimate D2E/DX2                !
 ! A13   A(9,3,10)             110.2068         estimate D2E/DX2                !
 ! A14   A(3,4,5)              112.7212         estimate D2E/DX2                !
 ! A15   A(4,5,11)             107.9669         estimate D2E/DX2                !
 ! A16   A(4,5,12)             109.9061         estimate D2E/DX2                !
 ! A17   A(4,5,13)             110.6731         estimate D2E/DX2                !
 ! A18   A(11,5,12)            108.7267         estimate D2E/DX2                !
 ! A19   A(11,5,13)            108.7478         estimate D2E/DX2                !
 ! A20   A(12,5,13)            110.7462         estimate D2E/DX2                !
 ! A21   A(3,9,14)             110.9518         estimate D2E/DX2                !
 ! A22   A(3,9,15)             111.2434         estimate D2E/DX2                !
 ! A23   A(3,9,16)             110.7715         estimate D2E/DX2                !
 ! A24   A(14,9,15)            107.9989         estimate D2E/DX2                !
 ! A25   A(14,9,16)            107.7006         estimate D2E/DX2                !
 ! A26   A(15,9,16)            108.0344         estimate D2E/DX2                !
 ! D1    D(6,1,2,3)            176.1745         estimate D2E/DX2                !
 ! D2    D(7,1,2,3)            -65.5746         estimate D2E/DX2                !
 ! D3    D(1,2,3,4)             73.9042         estimate D2E/DX2                !
 ! D4    D(1,2,3,9)           -168.5759         estimate D2E/DX2                !
 ! D5    D(2,3,4,5)           -120.2752         estimate D2E/DX2                !
 ! D6    D(9,3,4,5)            122.8151         estimate D2E/DX2                !
 ! D7    D(10,3,4,5)             0.0001         Frozen                          !
 ! D8    D(2,3,9,14)            61.6761         estimate D2E/DX2                !
 ! D9    D(2,3,9,15)           -58.5788         estimate D2E/DX2                !
 ! D10   D(4,3,9,14)           177.641          estimate D2E/DX2                !
 ! D11   D(3,4,5,11)           179.0361         estimate D2E/DX2                !
 ! D12   D(3,4,5,12)           -62.5142         estimate D2E/DX2                !
 --------------------------------------------------------------------------------
 Trust Radius=3.00D-01 FncErr=1.00D-07 GrdErr=1.00D-07
 Number of steps in this run=  63 maximum allowed number of steps= 100.
 GradGradGradGradGradGradGradGradGradGradGradGradGradGradGradGradGradGrad

 Leave Link  103 at Wed Jan 16 17:34:29 2008, MaxMem=    6291456 cpu:       0.0
 (Enter C:\G03W\l202.exe)
                          Input orientation:                          
 ---------------------------------------------------------------------
 Center     Atomic     Atomic              Coordinates (Angstroms)
 Number     Number      Type              X           Y           Z
 ---------------------------------------------------------------------
    1          6      10061003        1.581337   -0.121956    1.316615
    2          8      10081003        1.149814   -0.658904    0.078340
    3          6      10061003       -0.238411   -0.463202   -0.170644
    4          8      10081003       -0.408166    0.912445   -0.498527
    5          6      10061003       -1.282511    1.583379    0.391837
    6          1      10011000        2.656519   -0.386664    1.447716
    7          1      10011000        1.491899    0.989012    1.313763
    8          1      10011000        0.999010   -0.566015    2.158523
    9          6      10061003       -0.638091   -1.324859   -1.379952
   10          1      10011000       -0.826396   -0.767067    0.731708
   11          1      10011000       -1.343908    2.650788    0.074623
   12          1      10011000       -2.301879    1.133410    0.334395
   13          1      10011000       -0.890384    1.541447    1.435032
   14          1      10011000       -0.475929   -2.406843   -1.169223
   15          1      10011000       -0.041481   -1.056611   -2.281434
   16          1      10011000       -1.716104   -1.185359   -1.625613
 ---------------------------------------------------------------------
                    Distance matrix (angstroms):
                    1          2          3          4          5
     1  C    0.000000
     2  O    1.416986   0.000000
     3  C    2.374841   1.423889   0.000000
     4  O    2.884934   2.286747   1.424334   0.000000
     5  C    3.459047   3.322999   2.365381   1.416821   0.000000
     6  H    1.115022   2.054134   3.317464   3.855884   4.529008
     7  H    1.114566   2.087803   2.703029   2.626881   2.983383
     8  H    1.115841   2.087709   2.639469   3.350507   3.598112
     9  C    3.693820   2.401399   1.537733   2.415637   3.465886
    10  H    2.560363   2.084225   1.119062   2.123477   2.418295
    11  H    4.217548   4.143999   3.313490   2.055712   1.115238
    12  H    4.197626   3.897709   2.657468   2.080561   1.115743
    13  H    2.981666   3.293108   2.649883   2.089696   1.115248
    14  H    3.953788   2.693463   2.198025   3.387048   4.359972
    15  H    4.056238   2.673179   2.201442   2.681491   3.956777
    16  H    4.545398   3.375514   2.195910   2.716948   3.453118
                    6          7          8          9         10
     6  H    0.000000
     7  H    1.807420   0.000000
     8  H    1.812387   1.837027   0.000000
     9  C    4.441888   4.140889   3.971995   0.000000
    10  H    3.576041   2.965990   2.325581   2.192190   0.000000
    11  H    5.207199   3.512659   4.492184   4.291822   3.518709
    12  H    5.304320   3.920812   4.136587   3.427865   2.438590
    13  H    4.037114   2.448502   2.921411   4.025357   2.414124
    14  H    4.554308   4.644287   4.078968   1.114178   2.534804
    15  H    4.651300   4.411493   4.586558   1.113809   3.127131
    16  H    5.403989   4.864063   4.698416   1.114415   2.554116
                   11         12         13         14         15
    11  H    0.000000
    12  H    1.813181   0.000000
    13  H    1.813018   1.835815   0.000000
    14  H    5.280168   4.257740   4.747937   0.000000
    15  H    4.581717   4.092450   4.613313   1.802467   0.000000
    16  H    4.212524   3.092160   4.181487   1.799542   1.803064
                   16
    16  H    0.000000
 Stoichiometry    C4H10O2
 Framework group  C1[X(C4H10O2)]
 Deg. of freedom    42
 Full point group                 C1
 Largest Abelian subgroup         C1      NOp   1
 Largest concise Abelian subgroup C1      NOp   1
                         Standard orientation:                         
 ---------------------------------------------------------------------
 Center     Atomic     Atomic              Coordinates (Angstroms)
 Number     Number      Type              X           Y           Z
 ---------------------------------------------------------------------
    1          6      10061003       -1.865180   -0.871864    0.092531
    2          8      10081003       -1.254110    0.362564   -0.240079
    3          6      10061003        0.078590    0.483847    0.246400
    4          8      10081003        0.893279   -0.350058   -0.571899
    5          6      10061003        1.558494   -1.359672    0.166715
    6          1      10011000       -2.919395   -0.839701   -0.269230
    7          1      10011000       -1.345402   -1.715689   -0.417417
    8          1      10011000       -1.871528   -1.018486    1.198680
    9          6      10061003        0.522415    1.946559    0.078727
   10          1      10011000        0.110307    0.191639    1.326173
   11          1      10011000        2.155391   -1.972553   -0.548720
   12          1      10011000        2.252823   -0.894515    0.905916
   13          1      10011000        0.822282   -2.022473    0.679027
   14          1      10011000       -0.124620    2.630082    0.674995
   15          1      10011000        0.468925    2.264855   -0.987292
   16          1      10011000        1.571960    2.083562    0.427447
 ---------------------------------------------------------------------
 Rotational constants (GHZ):      3.9654119      3.2906651      1.9969395
 Leave Link  202 at Wed Jan 16 17:34:29 2008, MaxMem=    6291456 cpu:       0.0
 (Enter C:\G03W\l301.exe)
 Standard basis: Dummy (5D, 7F)
 There are    16 symmetry adapted basis functions of A   symmetry.
 Integral buffers will be    262144 words long.
 Raffenetti 1 integral format.
 Two-electron integral symmetry is turned on.
    16 basis functions,    16 primitive gaussians,    16 cartesian basis functions
    11 alpha electrons       11 beta electrons
       nuclear repulsion energy        50.2319025414 Hartrees.
 IExCor=   0 DFT=F Ex=HF Corr=None ExCW=0 ScaHFX=  1.000000
 ScaDFX=  1.000000  1.000000  1.000000  1.000000
 IRadAn=      0 IRanWt=     -1 IRanGd=            0 ICorTp=0
 NAtoms=   16 NActive=   16 NUniq=   16 SFac= 7.50D-01 NAtFMM=   80 NAOKFM=F Big=F
 Leave Link  301 at Wed Jan 16 17:34:29 2008, MaxMem=    6291456 cpu:       0.0
 (Enter C:\G03W\l402.exe)
 Dreiding calculation of energy and first derivatives.
 MO and density RWFs will be updated without deorthogonalization.
 Energy=    0.027654709192 NIter=   0.
 Dipole moment=       0.000000       0.000000       0.000000
 Leave Link  402 at Wed Jan 16 17:34:30 2008, MaxMem=    6291456 cpu:       0.0
 (Enter C:\G03W\l716.exe)
 Dipole        = 0.00000000D+00 0.00000000D+00 0.00000000D+00
 ***** Axes restored to original set *****
 -------------------------------------------------------------------
 Center     Atomic                   Forces (Hartrees/Bohr)
 Number     Number              X              Y              Z
 -------------------------------------------------------------------
    1          6           0.015959575    0.006506464    0.019465081
    2          8           0.003979462   -0.009187645   -0.006492347
    3          6          -0.004878372   -0.007074489    0.010158696
    4          8          -0.001001374    0.003850022   -0.008954897
    5          6          -0.015685207    0.022502924    0.008154073
    6          1          -0.014293887    0.003732222   -0.000836806
    7          1           0.002767863   -0.013465860    0.003042720
    8          1           0.009899220    0.007406999   -0.006992991
    9          6          -0.008377236   -0.013503348   -0.016817985
   10          1           0.002647688   -0.010101378   -0.014272039
   11          1           0.000166697   -0.014056202    0.005030993
   12          1           0.010813296    0.007803591    0.002948559
   13          1          -0.008254687    0.003138533   -0.011074610
   14          1          -0.000900003    0.013685159   -0.000026039
   15          1          -0.005841524   -0.001394949    0.011752321
   16          1           0.012998489    0.000157957    0.004915267
 -------------------------------------------------------------------
 Cartesian Forces:  Max     0.022502924 RMS     0.009728439
 Leave Link  716 at Wed Jan 16 17:34:30 2008, MaxMem=    6291456 cpu:       0.0
 (Enter C:\G03W\l103.exe)

 GradGradGradGradGradGradGradGradGradGradGradGradGradGradGradGradGradGrad
 Berny optimization.
 Internal  Forces:  Max     0.039110058 RMS     0.011718821
 Search for a local minimum.
 Step number   1 out of a maximum of  63
 All quantities printed in internal units (Hartrees-Bohrs-Radians)
 Second derivative matrix not updated -- first step.
 lowest eigenvalue of the Hessian is  0.7450E-03.
 RFO step:  Lambda= 3.20876068D-03.
 Linear search not attempted -- first point.
 Iteration  1 RMS(Cart)=  0.15349847 RMS(Int)=  0.00614583
 Iteration  2 RMS(Cart)=  0.00730414 RMS(Int)=  0.00079581
 Iteration  3 RMS(Cart)=  0.00003161 RMS(Int)=  0.00079553
 Iteration  4 RMS(Cart)=  0.00000004 RMS(Int)=  0.00079553
 Iteration  1 RMS(Cart)=  0.00039779 RMS(Int)=  0.00023007
 Iteration  2 RMS(Cart)=  0.00014819 RMS(Int)=  0.00025555
 Iteration  3 RMS(Cart)=  0.00005521 RMS(Int)=  0.00027613
 Iteration  4 RMS(Cart)=  0.00002057 RMS(Int)=  0.00028496
 Iteration  5 RMS(Cart)=  0.00000766 RMS(Int)=  0.00028839
 Iteration  6 RMS(Cart)=  0.00000286 RMS(Int)=  0.00028968
 Iteration  7 RMS(Cart)=  0.00000106 RMS(Int)=  0.00029017
 Iteration  8 RMS(Cart)=  0.00000040 RMS(Int)=  0.00029035
 Variable       Old X    -DE/DX   Delta X   Delta X   Delta X     New X
                                 (Linear)    (Quad)   (Total)
    R1        2.67772   0.01878   0.00000   0.04138   0.04138   2.71909
    R2        2.10709  -0.01477   0.00000  -0.04811  -0.04811   2.05897
    R3        2.10623  -0.01365   0.00000  -0.04084  -0.04084   2.06539
    R4        2.10863  -0.01339   0.00000  -0.04097  -0.04097   2.06766
    R5        2.69076   0.01997   0.00000   0.03831   0.03831   2.72907
    R6        2.69160   0.02501   0.00000   0.05273   0.05273   2.74433
    R7        2.90589   0.00128   0.00000   0.00635   0.00635   2.91224
    R8        2.11472  -0.01016   0.00000  -0.03285  -0.03285   2.08187
    R9        2.67740   0.02036   0.00000   0.04166   0.04166   2.71906
   R10        2.10749  -0.01489   0.00000  -0.04775  -0.04775   2.05974
   R11        2.10845  -0.01318   0.00000  -0.04242  -0.04242   2.06603
   R12        2.10751  -0.01338   0.00000  -0.03983  -0.03983   2.06768
   R13        2.10549  -0.01343   0.00000  -0.04114  -0.04114   2.06436
   R14        2.10479  -0.01298   0.00000  -0.04009  -0.04009   2.06471
   R15        2.10594  -0.01364   0.00000  -0.04194  -0.04194   2.06400
    A1        1.88225  -0.00155   0.00000   0.00311   0.00298   1.88523
    A2        1.92948   0.00445   0.00000   0.01973   0.01958   1.94906
    A3        1.92796   0.00642   0.00000   0.02929   0.02908   1.95704
    A4        1.89053  -0.00270   0.00000  -0.01456  -0.01463   1.87590
    A5        1.89656  -0.00425   0.00000  -0.01781  -0.01801   1.87856
    A6        1.93556  -0.00270   0.00000  -0.02071  -0.02091   1.91464
    A7        1.97973   0.03195   0.00000   0.07225   0.07225   2.05199
    A8        1.86418   0.01018   0.00000   0.03085   0.02877   1.89295
    A9        1.89010  -0.00889   0.00000  -0.01923  -0.01938   1.87072
   A10        1.91128  -0.00294   0.00000   0.00439  -0.00028   1.91100
   A11        1.90623  -0.00572   0.00000  -0.02066  -0.01955   1.88668
   A12        1.96628   0.01751   0.00000   0.09400   0.09199   2.05827
   A13        1.92347  -0.01049   0.00000  -0.08931  -0.08803   1.83544
   A14        1.96736   0.03911   0.00000   0.11907   0.11907   2.08643
   A15        1.88438  -0.00106   0.00000   0.00094   0.00080   1.88518
   A16        1.91822   0.00446   0.00000   0.02735   0.02721   1.94543
   A17        1.93161   0.00625   0.00000   0.01927   0.01910   1.95071
   A18        1.89764  -0.00282   0.00000  -0.00883  -0.00894   1.88870
   A19        1.89801  -0.00377   0.00000  -0.02057  -0.02072   1.87728
   A20        1.93289  -0.00327   0.00000  -0.01872  -0.01889   1.91400
   A21        1.93647  -0.00304   0.00000  -0.02116  -0.02121   1.91526
   A22        1.94156  -0.00243   0.00000  -0.00888  -0.00893   1.93263
   A23        1.93333  -0.00238   0.00000  -0.01661  -0.01687   1.91646
   A24        1.88494   0.00213   0.00000   0.01635   0.01650   1.90144
   A25        1.87973   0.00329   0.00000   0.01653   0.01628   1.89601
   A26        1.88556   0.00286   0.00000   0.01626   0.01600   1.90156
    D1        3.07482   0.00080   0.00000   0.01832   0.01841   3.09324
    D2       -1.14449  -0.00087   0.00000   0.01377   0.01367  -1.13082
    D3        1.28987   0.00220   0.00000  -0.07317  -0.07303   1.21684
    D4       -2.94220  -0.00367   0.00000  -0.09088  -0.09102  -3.03322
    D5       -2.09920  -0.01348   0.00000  -0.08157  -0.08433  -2.18353
    D6        2.14353  -0.00559   0.00000  -0.06506  -0.06668   2.07685
    D7        0.00000   0.00473   0.00000   0.00000   0.00000   0.00000
    D8        1.07645  -0.00173   0.00000   0.00133   0.00202   1.07847
    D9       -1.02239  -0.00075   0.00000   0.00084   0.00117  -1.02123
   D10        3.10042   0.00241   0.00000   0.01632   0.01531   3.11573
   D11        3.12477   0.00074   0.00000   0.01471   0.01475   3.13952
   D12       -1.09108  -0.00076   0.00000   0.02008   0.02004  -1.07104
         Item               Value     Threshold  Converged?
 Maximum Force            0.039110     0.000450     NO 
 RMS     Force            0.011813     0.000300     NO 
 Maximum Displacement     0.468436     0.001800     NO 
 RMS     Displacement     0.153210     0.001200     NO 
 Predicted change in Energy=-1.321390D-02
 GradGradGradGradGradGradGradGradGradGradGradGradGradGradGradGradGradGrad

 Leave Link  103 at Wed Jan 16 17:34:30 2008, MaxMem=    6291456 cpu:       0.0
 (Enter C:\G03W\l202.exe)
                          Input orientation:                          
 ---------------------------------------------------------------------
 Center     Atomic     Atomic              Coordinates (Angstroms)
 Number     Number      Type              X           Y           Z
 ---------------------------------------------------------------------
    1          6      10061003        1.701983   -0.178398    1.336837
    2          8      10081003        1.146316   -0.723912    0.126866
    3          6      10061003       -0.259237   -0.504158   -0.121588
    4          8      10081003       -0.459765    0.904097   -0.414158
    5          6      10061003       -1.410225    1.660603    0.356982
    6          1      10011000        2.748821   -0.475651    1.390829
    7          1      10011000        1.670386    0.914099    1.338791
    8          1      10011000        1.201572   -0.563479    2.230418
    9          6      10061003       -0.630945   -1.312243   -1.380076
   10          1      10011000       -0.850861   -0.951276    0.693128
   11          1      10011000       -1.407766    2.684816   -0.015863
   12          1      10011000       -2.421855    1.260196    0.249409
   13          1      10011000       -1.138269    1.694249    1.416282
   14          1      10011000       -0.464461   -2.376377   -1.197700
   15          1      10011000       -0.024683   -0.999530   -2.233554
   16          1      10011000       -1.685689   -1.160035   -1.619444
 ---------------------------------------------------------------------
                    Distance matrix (angstroms):
                    1          2          3          4          5
     1  C    0.000000
     2  O    1.438882   0.000000
     3  C    2.465665   1.444161   0.000000
     4  O    2.985118   2.350025   1.452237   0.000000
     5  C    3.745381   3.503536   2.497998   1.438865   0.000000
     6  H    1.089562   2.056031   3.366992   3.931503   4.788537
     7  H    1.092955   2.103923   2.804925   2.758709   3.318340
     8  H    1.094160   2.110384   2.769371   3.450740   3.908681
     9  C    3.756297   2.403261   1.541091   2.423729   3.530221
    10  H    2.743850   2.088316   1.101678   2.195779   2.692173
    11  H    4.438280   4.261823   3.391143   2.056285   1.089969
    12  H    4.500899   4.084550   2.815582   2.101648   1.093295
    13  H    3.402962   3.567832   2.823249   2.105996   1.094170
    14  H    3.993553   2.660774   2.169179   3.372754   4.428173
    15  H    4.050102   2.649299   2.181929   2.668950   3.963195
    16  H    4.602122   3.355600   2.169911   2.686307   3.455161
                    6          7          8          9         10
     6  H    0.000000
     7  H    1.759868   0.000000
     8  H    1.762556   1.788301   0.000000
     9  C    4.449789   4.200590   4.117576   0.000000
    10  H    3.697394   3.202061   2.593479   2.115853   0.000000
    11  H    5.407824   3.800730   4.733482   4.294300   3.746195
    12  H    5.572423   4.248879   4.514356   3.532707   2.748729
    13  H    4.451808   2.916022   3.351867   4.137148   2.757600
    14  H    4.542954   4.671038   4.220694   1.092410   2.399052
    15  H    4.593793   4.392822   4.649827   1.092597   3.041442
    16  H    5.403240   4.931169   4.849081   1.092222   2.467490
                   11         12         13         14         15
    11  H    0.000000
    12  H    1.768698   0.000000
    13  H    1.762070   1.788180   0.000000
    14  H    5.282258   4.376092   4.884355   0.000000
    15  H    4.517243   4.125276   4.670956   1.778232   0.000000
    16  H    4.175116   3.145166   4.202647   1.774473   1.778154
                   16
    16  H    0.000000
 Stoichiometry    C4H10O2
 Framework group  C1[X(C4H10O2)]
 Deg. of freedom    42
 Full point group                 C1
 Largest Abelian subgroup         C1      NOp   1
 Largest concise Abelian subgroup C1      NOp   1
                         Standard orientation:                         
 ---------------------------------------------------------------------
 Center     Atomic     Atomic              Coordinates (Angstroms)
 Number     Number      Type              X           Y           Z
 ---------------------------------------------------------------------
    1          6      10061003       -1.882398   -1.066770    0.063387
    2          8      10081003       -1.327783    0.236348   -0.190910
    3          6      10061003        0.011580    0.496697    0.282298
    4          8      10081003        0.940605   -0.286302   -0.513200
    5          6      10061003        1.860510   -1.177220    0.142827
    6          1      10011000       -2.905356   -1.076649   -0.311588
    7          1      10011000       -1.331771   -1.849753   -0.464153
    8          1      10011000       -1.918944   -1.297753    1.132263
    9          6      10061003        0.302502    1.988505    0.027672
   10          1      10011000        0.043851    0.379609    1.377261
   11          1      10011000        2.461149   -1.666137   -0.624131
   12          1      10011000        2.534924   -0.634990    0.810994
   13          1      10011000        1.338642   -1.959612    0.702044
   14          1      10011000       -0.400396    2.603400    0.594415
   15          1      10011000        0.205019    2.225784   -1.034384
   16          1      10011000        1.317139    2.228465    0.353065
 ---------------------------------------------------------------------
 Rotational constants (GHZ):      4.0185019      2.9633163      1.8642037
 Leave Link  202 at Wed Jan 16 17:34:30 2008, MaxMem=    6291456 cpu:       0.0
 (Enter C:\G03W\l301.exe)
 Standard basis: Dummy (5D, 7F)
 There are    16 symmetry adapted basis functions of A   symmetry.
 Integral buffers will be    262144 words long.
 Raffenetti 1 integral format.
 Two-electron integral symmetry is turned on.
    16 basis functions,    16 primitive gaussians,    16 cartesian basis functions
    11 alpha electrons       11 beta electrons
       nuclear repulsion energy        49.5248228550 Hartrees.
 IExCor=   0 DFT=F Ex=HF Corr=None ExCW=0 ScaHFX=  1.000000
 ScaDFX=  1.000000  1.000000  1.000000  1.000000
 IRadAn=      0 IRanWt=     -1 IRanGd=            0 ICorTp=0
 NAtoms=   16 NActive=   16 NUniq=   16 SFac= 7.50D-01 NAtFMM=   80 NAOKFM=F Big=F
 Leave Link  301 at Wed Jan 16 17:34:30 2008, MaxMem=    6291456 cpu:       0.0
 (Enter C:\G03W\l402.exe)
 Dreiding calculation of energy and first derivatives.
 MO and density RWFs will be updated without deorthogonalization.
 Energy=    0.022155028260 NIter=   0.
 Dipole moment=       0.000000       0.000000       0.000000
 Leave Link  402 at Wed Jan 16 17:34:31 2008, MaxMem=    6291456 cpu:       0.0
 (Enter C:\G03W\l716.exe)
 Dipole        = 0.00000000D+00 0.00000000D+00 0.00000000D+00
 ***** Axes restored to original set *****
 -------------------------------------------------------------------
 Center     Atomic                   Forces (Hartrees/Bohr)
 Number     Number              X              Y              Z
 -------------------------------------------------------------------
    1          6           0.000225626    0.001298373    0.001907960
    2          8          -0.000715377   -0.002290728   -0.000376919
    3          6           0.004054989   -0.001731510    0.000345921
    4          8          -0.001444335   -0.001944424    0.002093821
    5          6          -0.000149348   -0.002872473    0.002504107
    6          1           0.000150731   -0.000473600   -0.000570692
    7          1          -0.002336356   -0.001034693   -0.001012323
    8          1          -0.001709285    0.000246212   -0.002679434
    9          6          -0.000180806    0.000932735   -0.000540646
   10          1          -0.000338880    0.012806609    0.002260895
   11          1          -0.000385084   -0.000248541   -0.000669661
   12          1           0.001891103   -0.001531877   -0.000263124
   13          1           0.000774724   -0.003113930   -0.001868706
   14          1           0.000048009   -0.000087962   -0.001135129
   15          1          -0.000211978    0.000150461    0.000368369
   16          1           0.000326268   -0.000104652   -0.000364439
 -------------------------------------------------------------------
 Cartesian Forces:  Max     0.012806609 RMS     0.002356482
 Leave Link  716 at Wed Jan 16 17:34:31 2008, MaxMem=    6291456 cpu:       0.0
 (Enter C:\G03W\l103.exe)

 GradGradGradGradGradGradGradGradGradGradGradGradGradGradGradGradGradGrad
 Berny optimization.
 Internal  Forces:  Max     0.021528703 RMS     0.005046610
 Search for a local minimum.
 Step number   2 out of a maximum of  63
 All quantities printed in internal units (Hartrees-Bohrs-Radians)
   2   1  0.1156237E-01  0.1694449E-01  0.6823679    
 Update second derivatives using D2CorL and points  1  2
 Trust test= 4.16D-01 RLast= 3.08D-01 DXMaxT set to 3.00D-01
 lowest eigenvalue of the Hessian is  0.1306E-02.
 RFO step:  Lambda= 2.91496582D-04.
 Quartic linear search produced a step of -0.33390.
 Iteration  1 RMS(Cart)=  0.08930649 RMS(Int)=  0.00381249
 Iteration  2 RMS(Cart)=  0.00450034 RMS(Int)=  0.00021334
 Iteration  3 RMS(Cart)=  0.00000976 RMS(Int)=  0.00021326
 Iteration  4 RMS(Cart)=  0.00000000 RMS(Int)=  0.00021326
 Iteration  1 RMS(Cart)=  0.00012781 RMS(Int)=  0.00007468
 Iteration  2 RMS(Cart)=  0.00005043 RMS(Int)=  0.00008312
 Iteration  3 RMS(Cart)=  0.00001989 RMS(Int)=  0.00009037
 Iteration  4 RMS(Cart)=  0.00000785 RMS(Int)=  0.00009369
 Iteration  5 RMS(Cart)=  0.00000310 RMS(Int)=  0.00009506
 Iteration  6 RMS(Cart)=  0.00000122 RMS(Int)=  0.00009561
 Iteration  7 RMS(Cart)=  0.00000048 RMS(Int)=  0.00009583
 Variable       Old X    -DE/DX   Delta X   Delta X   Delta X     New X
                                 (Linear)    (Quad)   (Total)
    R1        2.71909  -0.00338  -0.01382   0.00817  -0.00564   2.71345
    R2        2.05897   0.00025   0.01606  -0.01175   0.00431   2.06329
    R3        2.06539  -0.00097   0.01364  -0.01339   0.00024   2.06563
    R4        2.06766  -0.00149   0.01368  -0.01422  -0.00054   2.06712
    R5        2.72907  -0.00439  -0.01279   0.00823  -0.00456   2.72450
    R6        2.74433  -0.00987  -0.01761   0.00362  -0.01399   2.73034
    R7        2.91224   0.00090  -0.00212   0.00298   0.00086   2.91310
    R8        2.08187  -0.00334   0.01097  -0.01481  -0.00384   2.07803
    R9        2.71906  -0.00565  -0.01391   0.00641  -0.00749   2.71157
   R10        2.05974  -0.00001   0.01594  -0.01241   0.00353   2.06327
   R11        2.06603  -0.00116   0.01416  -0.01316   0.00100   2.06703
   R12        2.06768  -0.00171   0.01330  -0.01461  -0.00131   2.06637
   R13        2.06436  -0.00010   0.01373  -0.01151   0.00223   2.06658
   R14        2.06471  -0.00036   0.01338  -0.01154   0.00185   2.06656
   R15        2.06400  -0.00025   0.01400  -0.01196   0.00204   2.06604
    A1        1.88523   0.00143  -0.00099   0.00166   0.00067   1.88589
    A2        1.94906  -0.00290  -0.00654  -0.00480  -0.01133   1.93773
    A3        1.95704  -0.00353  -0.00971  -0.00396  -0.01367   1.94337
    A4        1.87590   0.00237   0.00488   0.00678   0.01168   1.88758
    A5        1.87856   0.00325   0.00601   0.00515   0.01116   1.88972
    A6        1.91464  -0.00009   0.00698  -0.00384   0.00313   1.91778
    A7        2.05199  -0.01237  -0.02413   0.00864  -0.01548   2.03650
    A8        1.89295   0.00336  -0.00961   0.02740   0.01832   1.91127
    A9        1.87072   0.00281   0.00647  -0.00258   0.00388   1.87460
   A10        1.91100   0.00475   0.00009   0.01055   0.01188   1.92288
   A11        1.88668  -0.00152   0.00653  -0.01031  -0.00422   1.88246
   A12        2.05827  -0.01716  -0.03071  -0.04378  -0.07412   1.98415
   A13        1.83544   0.00935   0.02939   0.02051   0.04929   1.88474
   A14        2.08643  -0.02153  -0.03976  -0.00835  -0.04811   2.03832
   A15        1.88518   0.00236  -0.00027   0.00596   0.00569   1.89087
   A16        1.94543  -0.00339  -0.00908  -0.00736  -0.01645   1.92898
   A17        1.95071  -0.00378  -0.00638  -0.00319  -0.00960   1.94111
   A18        1.88870   0.00144   0.00298   0.00056   0.00356   1.89226
   A19        1.87728   0.00415   0.00692   0.01042   0.01731   1.89460
   A20        1.91400  -0.00028   0.00631  -0.00539   0.00088   1.91488
   A21        1.91526   0.00168   0.00708   0.00444   0.01154   1.92680
   A22        1.93263  -0.00119   0.00298  -0.00836  -0.00536   1.92727
   A23        1.91646   0.00075   0.00563  -0.00098   0.00470   1.92115
   A24        1.90144  -0.00117  -0.00551   0.00012  -0.00540   1.89604
   A25        1.89601   0.00021  -0.00543   0.00443  -0.00096   1.89504
   A26        1.90156  -0.00028  -0.00534   0.00057  -0.00473   1.89683
    D1        3.09324  -0.00084  -0.00615  -0.02792  -0.03405   3.05918
    D2       -1.13082   0.00127  -0.00456  -0.02138  -0.02595  -1.15678
    D3        1.21684  -0.00069   0.02438   0.12101   0.14535   1.36219
    D4       -3.03322   0.00073   0.03039   0.12159   0.15203  -2.88119
    D5       -2.18353   0.00390   0.02816  -0.00451   0.02449  -2.15903
    D6        2.07685  -0.00037   0.02226  -0.01039   0.01246   2.08931
    D7        0.00000   0.00035   0.00000   0.00000   0.00000   0.00000
    D8        1.07847  -0.00216  -0.00067  -0.09092  -0.09174   0.98673
    D9       -1.02123  -0.00103  -0.00039  -0.08862  -0.08905  -1.11028
   D10        3.11573   0.00246  -0.00511  -0.06549  -0.07041   3.04532
   D11        3.13952  -0.00070  -0.00492  -0.03639  -0.04127   3.09825
   D12       -1.07104   0.00055  -0.00669  -0.03629  -0.04302  -1.11406
         Item               Value     Threshold  Converged?
 Maximum Force            0.021529     0.000450     NO 
 RMS     Force            0.005095     0.000300     NO 
 Maximum Displacement     0.304900     0.001800     NO 
 RMS     Displacement     0.089572     0.001200     NO 
 Predicted change in Energy=-1.295861D-03
 GradGradGradGradGradGradGradGradGradGradGradGradGradGradGradGradGradGrad

 Leave Link  103 at Wed Jan 16 17:34:31 2008, MaxMem=    6291456 cpu:       0.0
 (Enter C:\G03W\l202.exe)
                          Input orientation:                          
 ---------------------------------------------------------------------
 Center     Atomic     Atomic              Coordinates (Angstroms)
 Number     Number      Type              X           Y           Z
 ---------------------------------------------------------------------
    1          6      10061003        1.693975   -0.209735    1.349596
    2          8      10081003        1.175499   -0.651388    0.085507
    3          6      10061003       -0.233118   -0.446683   -0.143675
    4          8      10081003       -0.469728    0.936037   -0.489577
    5          6      10061003       -1.404680    1.655994    0.326794
    6          1      10011000        2.743050   -0.506755    1.407444
    7          1      10011000        1.643020    0.878765    1.435635
    8          1      10011000        1.159533   -0.674210    2.183382
    9          6      10061003       -0.633860   -1.312163   -1.354755
   10          1      10011000       -0.812568   -0.789929    0.725603
   11          1      10011000       -1.444430    2.688635   -0.025600
   12          1      10011000       -2.404763    1.221880    0.238290
   13          1      10011000       -1.094882    1.657926    1.375464
   14          1      10011000       -0.380213   -2.360566   -1.174614
   15          1      10011000       -0.110665   -0.975617   -2.254148
   16          1      10011000       -1.710850   -1.239192   -1.528185
 ---------------------------------------------------------------------
                    Distance matrix (angstroms):
                    1          2          3          4          5
     1  C    0.000000
     2  O    1.435896   0.000000
     3  C    2.449427   1.441746   0.000000
     4  O    3.062183   2.357416   1.444835   0.000000
     5  C    3.758821   3.469806   2.452580   1.434899   0.000000
     6  H    1.091845   2.055640   3.356659   4.000285   4.800932
     7  H    1.093084   2.093512   2.787639   2.858920   3.334980
     8  H    1.093875   2.098060   2.721477   3.520241   3.930898
     9  C    3.734659   2.405152   1.541546   2.414514   3.497388
    10  H    2.647405   2.093162   1.099647   2.138496   2.547977
    11  H    4.487906   4.246425   3.363248   2.058377   1.091837
    12  H    4.481537   4.043605   2.765147   2.087069   1.093825
    13  H    3.356569   3.485907   2.734921   2.095309   1.093474
    14  H    3.911517   2.632382   2.178858   3.368217   4.408687
    15  H    4.102472   2.689484   2.179189   2.626225   3.906548
    16  H    4.575395   3.358649   2.174541   2.711220   3.452071
                    6          7          8          9         10
     6  H    0.000000
     7  H    1.769330   0.000000
     8  H    1.771340   1.790144   0.000000
     9  C    4.436434   4.215522   4.017668   0.000000
    10  H    3.631462   3.052638   2.455136   2.152337   0.000000
    11  H    5.458857   3.865642   4.792593   4.293024   3.614411
    12  H    5.554735   4.235081   4.481378   3.477824   2.611500
    13  H    4.406426   2.847248   3.342750   4.060549   2.548336
    14  H    4.456278   4.626029   4.060881   1.093589   2.502930
    15  H    4.665917   4.486496   4.625573   1.093574   3.066931
    16  H    5.384386   4.951608   4.725890   1.093302   2.467450
                   11         12         13         14         15
    11  H    0.000000
    12  H    1.772920   0.000000
    13  H    1.774126   1.788599   0.000000
    14  H    5.286513   4.350749   4.812684   0.000000
    15  H    4.491336   4.037836   4.591112   1.776551   0.000000
    16  H    4.213854   3.107865   4.147756   1.775693   1.776819
                   16
    16  H    0.000000
 Stoichiometry    C4H10O2
 Framework group  C1[X(C4H10O2)]
 Deg. of freedom    42
 Full point group                 C1
 Largest Abelian subgroup         C1      NOp   1
 Largest concise Abelian subgroup C1      NOp   1
                         Standard orientation:                         
 ---------------------------------------------------------------------
 Center     Atomic     Atomic              Coordinates (Angstroms)
 Number     Number      Type              X           Y           Z
 ---------------------------------------------------------------------
    1          6      10061003       -1.928163   -1.007186    0.096462
    2          8      10081003       -1.307019    0.237868   -0.258244
    3          6      10061003        0.023255    0.465366    0.248950
    4          8      10081003        0.975659   -0.276648   -0.544705
    5          6      10061003        1.825446   -1.195596    0.156960
    6          1      10011000       -2.950868   -0.996094   -0.285737
    7          1      10011000       -1.403514   -1.850983   -0.359153
    8          1      10011000       -1.969034   -1.136789    1.181863
    9          6      10061003        0.331974    1.965874    0.077099
   10          1      10011000        0.065049    0.230847    1.322486
   11          1      10011000        2.453558   -1.709090   -0.573729
   12          1      10011000        2.474977   -0.660305    0.855549
   13          1      10011000        1.238676   -1.943178    0.697801
   14          1      10011000       -0.425379    2.571207    0.582990
   15          1      10011000        0.342978    2.234267   -0.982971
   16          1      10011000        1.309364    2.199615    0.507660
 ---------------------------------------------------------------------
 Rotational constants (GHZ):      4.0970323      2.9297852      1.8790954
 Leave Link  202 at Wed Jan 16 17:34:31 2008, MaxMem=    6291456 cpu:       0.0
 (Enter C:\G03W\l301.exe)
 Standard basis: Dummy (5D, 7F)
 There are    16 symmetry adapted basis functions of A   symmetry.
 Integral buffers will be    262144 words long.
 Raffenetti 1 integral format.
 Two-electron integral symmetry is turned on.
    16 basis functions,    16 primitive gaussians,    16 cartesian basis functions
    11 alpha electrons       11 beta electrons
       nuclear repulsion energy        49.7011578237 Hartrees.
 IExCor=   0 DFT=F Ex=HF Corr=None ExCW=0 ScaHFX=  1.000000
 ScaDFX=  1.000000  1.000000  1.000000  1.000000
 IRadAn=      0 IRanWt=     -1 IRanGd=            0 ICorTp=0
 NAtoms=   16 NActive=   16 NUniq=   16 SFac= 7.50D-01 NAtFMM=   80 NAOKFM=F Big=F
 Leave Link  301 at Wed Jan 16 17:34:31 2008, MaxMem=    6291456 cpu:       0.0
 (Enter C:\G03W\l402.exe)
 Dreiding calculation of energy and first derivatives.
 MO and density RWFs will be updated without deorthogonalization.
 Energy=    0.020548576753 NIter=   0.
 Dipole moment=       0.000000       0.000000       0.000000
 Leave Link  402 at Wed Jan 16 17:34:32 2008, MaxMem=    6291456 cpu:       0.0
 (Enter C:\G03W\l716.exe)
 Dipole        = 0.00000000D+00 0.00000000D+00 0.00000000D+00
 ***** Axes restored to original set *****
 -------------------------------------------------------------------
 Center     Atomic                   Forces (Hartrees/Bohr)
 Number     Number              X              Y              Z
 -------------------------------------------------------------------
    1          6           0.000631605    0.001878621    0.000358818
    2          8          -0.000069512   -0.002503005   -0.000877936
    3          6           0.000749324    0.000929510    0.001322401
    4          8           0.002379972    0.000436824    0.001343117
    5          6          -0.001993554    0.000444503    0.000080964
    6          1          -0.001026167    0.000424602    0.000096877
    7          1          -0.001319750   -0.000998863   -0.000227201
    8          1           0.000543540    0.000676620   -0.000712949
    9          6          -0.001265855   -0.001025890   -0.001561364
   10          1          -0.000042781   -0.000489980   -0.001613112
   11          1          -0.000023212   -0.000982354    0.000524762
   12          1           0.001147561    0.000199456    0.000485957
   13          1          -0.000023154    0.000033326   -0.000884749
   14          1          -0.000485534    0.001046327    0.000465189
   15          1          -0.000152134   -0.000351381    0.000909511
   16          1           0.000949651    0.000281684    0.000289716
 -------------------------------------------------------------------
 Cartesian Forces:  Max     0.002503005 RMS     0.000984731
 Leave Link  716 at Wed Jan 16 17:34:32 2008, MaxMem=    6291456 cpu:       0.0
 (Enter C:\G03W\l103.exe)

 GradGradGradGradGradGradGradGradGradGradGradGradGradGradGradGradGradGrad
 Berny optimization.
 Internal  Forces:  Max     0.005892609 RMS     0.001270089
 Search for a local minimum.
 Step number   3 out of a maximum of  63
 All quantities printed in internal units (Hartrees-Bohrs-Radians)
   2   1 -0.4199406E-03  0.3760443E-02  0.1116732    
 Update second derivatives using D2CorL and points  2  3
 Trust test= 1.24D+00 RLast= 2.91D-01 DXMaxT set to 4.24D-01
 lowest eigenvalue of the Hessian is  0.1273E-02.
 RFO step:  Lambda= 1.61597744D-04.
 Quartic linear search produced a step of -0.16924.
 Iteration  1 RMS(Cart)=  0.10963829 RMS(Int)=  0.00767192
 Iteration  2 RMS(Cart)=  0.00858993 RMS(Int)=  0.00003923
 Iteration  3 RMS(Cart)=  0.00005587 RMS(Int)=  0.00001630
 Iteration  4 RMS(Cart)=  0.00000000 RMS(Int)=  0.00001630
 Iteration  1 RMS(Cart)=  0.00000136 RMS(Int)=  0.00000079
 Iteration  2 RMS(Cart)=  0.00000054 RMS(Int)=  0.00000088
 Variable       Old X    -DE/DX   Delta X   Delta X   Delta X     New X
                                 (Linear)    (Quad)   (Total)
    R1        2.71345  -0.00024   0.00095  -0.00173  -0.00078   2.71267
    R2        2.06329  -0.00110  -0.00073  -0.00247  -0.00320   2.06009
    R3        2.06563  -0.00095  -0.00004  -0.00329  -0.00333   2.06230
    R4        2.06712  -0.00110   0.00009  -0.00389  -0.00380   2.06332
    R5        2.72450  -0.00135   0.00077  -0.00389  -0.00312   2.72138
    R6        2.73034  -0.00049   0.00237  -0.00414  -0.00177   2.72857
    R7        2.91310   0.00019  -0.00015   0.00081   0.00066   2.91376
    R8        2.07803  -0.00110   0.00065  -0.00471  -0.00406   2.07397
    R9        2.71157   0.00055   0.00127  -0.00007   0.00120   2.71276
   R10        2.06327  -0.00110  -0.00060  -0.00270  -0.00330   2.05997
   R11        2.06703  -0.00117  -0.00017  -0.00363  -0.00379   2.06324
   R12        2.06637  -0.00085   0.00022  -0.00340  -0.00317   2.06319
   R13        2.06658  -0.00104  -0.00038  -0.00296  -0.00334   2.06324
   R14        2.06656  -0.00093  -0.00031  -0.00268  -0.00299   2.06356
   R15        2.06604  -0.00096  -0.00035  -0.00277  -0.00311   2.06293
    A1        1.88589   0.00078  -0.00011   0.00485   0.00474   1.89063
    A2        1.93773  -0.00127   0.00192  -0.01050  -0.00858   1.92914
    A3        1.94337   0.00018   0.00231  -0.00292  -0.00061   1.94275
    A4        1.88758   0.00075  -0.00198   0.00954   0.00757   1.89516
    A5        1.88972   0.00001  -0.00189   0.00183  -0.00006   1.88966
    A6        1.91778  -0.00038  -0.00053  -0.00196  -0.00249   1.91529
    A7        2.03650  -0.00589   0.00262  -0.02569  -0.02307   2.01343
    A8        1.91127  -0.00176  -0.00310   0.00004  -0.00308   1.90820
    A9        1.87460   0.00133  -0.00066   0.00797   0.00732   1.88193
   A10        1.92288   0.00048  -0.00201   0.00820   0.00625   1.92913
   A11        1.88246   0.00153   0.00071   0.00612   0.00685   1.88931
   A12        1.98415   0.00047   0.01254  -0.01750  -0.00490   1.97925
   A13        1.88474  -0.00195  -0.00834  -0.00353  -0.01183   1.87290
   A14        2.03832  -0.00207   0.00814  -0.01868  -0.01054   2.02778
   A15        1.89087   0.00031  -0.00096   0.00319   0.00223   1.89310
   A16        1.92898   0.00021   0.00278  -0.00283  -0.00004   1.92894
   A17        1.94111  -0.00047   0.00162  -0.00511  -0.00347   1.93765
   A18        1.89226   0.00020  -0.00060   0.00278   0.00218   1.89444
   A19        1.89460  -0.00030  -0.00293   0.00202  -0.00090   1.89370
   A20        1.91488   0.00006  -0.00015   0.00028   0.00015   1.91502
   A21        1.92680  -0.00055  -0.00195  -0.00078  -0.00273   1.92407
   A22        1.92727  -0.00010   0.00091  -0.00230  -0.00140   1.92587
   A23        1.92115  -0.00033  -0.00080  -0.00041  -0.00119   1.91996
   A24        1.89604   0.00037   0.00091   0.00016   0.00106   1.89710
   A25        1.89504   0.00055   0.00016   0.00341   0.00358   1.89862
   A26        1.89683   0.00010   0.00080   0.00003   0.00085   1.89767
    D1        3.05918   0.00072   0.00576   0.05736   0.06313   3.12231
    D2       -1.15678   0.00138   0.00439   0.06587   0.07026  -1.08652
    D3        1.36219  -0.00308  -0.02460  -0.10472  -0.12932   1.23287
    D4       -2.88119  -0.00146  -0.02573  -0.09301  -0.11874  -2.99993
    D5       -2.15903   0.00038  -0.00415   0.00183  -0.00230  -2.16134
    D6        2.08931  -0.00111  -0.00211  -0.01109  -0.01320   2.07611
    D7        0.00000  -0.00033   0.00000   0.00000   0.00000   0.00000
    D8        0.98673   0.00081   0.01553   0.14608   0.16157   1.14830
    D9       -1.11028   0.00077   0.01507   0.14787   0.16292  -0.94736
   D10        3.04532   0.00025   0.01192   0.15358   0.16555  -3.07232
   D11        3.09825   0.00026   0.00698   0.01917   0.02614   3.12439
   D12       -1.11406   0.00081   0.00728   0.02283   0.03013  -1.08393
         Item               Value     Threshold  Converged?
 Maximum Force            0.005893     0.000450     NO 
 RMS     Force            0.001281     0.000300     NO 
 Maximum Displacement     0.350716     0.001800     NO 
 RMS     Displacement     0.110385     0.001200     NO 
 Predicted change in Energy=-7.570900D-04
 GradGradGradGradGradGradGradGradGradGradGradGradGradGradGradGradGradGrad

 Leave Link  103 at Wed Jan 16 17:34:32 2008, MaxMem=    6291456 cpu:       0.0
 (Enter C:\G03W\l202.exe)
                          Input orientation:                          
 ---------------------------------------------------------------------
 Center     Atomic     Atomic              Coordinates (Angstroms)
 Number     Number      Type              X           Y           Z
 ---------------------------------------------------------------------
    1          6      10061003        1.675503   -0.159741    1.327115
    2          8      10081003        1.166399   -0.714624    0.105013
    3          6      10061003       -0.232431   -0.479378   -0.143600
    4          8      10081003       -0.434642    0.916179   -0.454033
    5          6      10061003       -1.375870    1.618754    0.371333
    6          1      10011000        2.730798   -0.420782    1.408621
    7          1      10011000        1.585771    0.927865    1.320265
    8          1      10011000        1.154022   -0.567300    2.195515
    9          6      10061003       -0.639406   -1.312038   -1.375872
   10          1      10011000       -0.837934   -0.830045    0.701916
   11          1      10011000       -1.417209    2.656806    0.041123
   12          1      10011000       -2.371977    1.182882    0.272075
   13          1      10011000       -1.068351    1.600377    1.418764
   14          1      10011000       -0.565804   -2.378209   -1.152402
   15          1      10011000        0.014975   -1.085381   -2.220178
   16          1      10011000       -1.668524   -1.082365   -1.658494
 ---------------------------------------------------------------------
                    Distance matrix (angstroms):
                    1          2          3          4          5
     1  C    0.000000
     2  O    1.435484   0.000000
     3  C    2.430099   1.440095   0.000000
     4  O    2.963579   2.352739   1.443896   0.000000
     5  C    3.658886   3.461028   2.444334   1.435532   0.000000
     6  H    1.090153   2.057446   3.345676   3.908575   4.701107
     7  H    1.091323   2.085781   2.725636   2.688929   3.185769
     8  H    1.091863   2.095723   2.720559   3.427049   3.808783
     9  C    3.740686   2.410572   1.541898   2.420055   3.490652
    10  H    2.675359   2.094508   1.097497   2.132642   2.528889
    11  H    4.376252   4.248018   3.357599   2.059224   1.090092
    12  H    4.392930   4.018525   2.741086   2.086056   1.091817
    13  H    3.261158   3.475526   2.732238   2.092148   1.091795
    14  H    4.011616   2.710929   2.175863   3.370150   4.353584
    15  H    4.024606   2.621021   2.177298   2.706966   3.995339
    16  H    4.576857   3.358866   2.172755   2.639578   3.391444
                    6          7          8          9         10
     6  H    0.000000
     7  H    1.771368   0.000000
     8  H    1.768302   1.785495   0.000000
     9  C    4.461616   4.151836   4.065197   0.000000
    10  H    3.660980   3.057279   2.503550   2.142180   0.000000
    11  H    5.342993   3.693688   4.652687   4.285392   3.595878
    12  H    5.468253   4.102134   4.381259   3.455743   2.567085
    13  H    4.303339   2.739770   3.200173   4.059082   2.544389
    14  H    4.610634   4.655479   4.176810   1.091822   2.430918
    15  H    4.581001   4.365237   4.589573   1.091990   3.054715
    16  H    5.403603   4.848141   4.804732   1.091654   2.514971
                   11         12         13         14         15
    11  H    0.000000
    12  H    1.771263   0.000000
    13  H    1.770774   1.785676   0.000000
    14  H    5.244118   4.239430   4.763675   0.000000
    15  H    4.600935   4.129635   4.650677   1.774501   0.000000
    16  H    4.115004   3.058314   4.126358   1.775199   1.774731
                   16
    16  H    0.000000
 Stoichiometry    C4H10O2
 Framework group  C1[X(C4H10O2)]
 Deg. of freedom    42
 Full point group                 C1
 Largest Abelian subgroup         C1      NOp   1
 Largest concise Abelian subgroup C1      NOp   1
                         Standard orientation:                         
 ---------------------------------------------------------------------
 Center     Atomic     Atomic              Coordinates (Angstroms)
 Number     Number      Type              X           Y           Z
 ---------------------------------------------------------------------
    1          6      10061003       -1.882330   -1.006063    0.075945
    2          8      10081003       -1.321893    0.285812   -0.202593
    3          6      10061003        0.028785    0.484116    0.255902
    4          8      10081003        0.928343   -0.306163   -0.551001
    5          6      10061003        1.768811   -1.229743    0.157071
    6          1      10011000       -2.905518   -1.024058   -0.299816
    7          1      10011000       -1.312413   -1.787573   -0.429449
    8          1      10011000       -1.908357   -1.204276    1.149351
    9          6      10061003        0.381471    1.971780    0.056106
   10          1      10011000        0.105796    0.271651    1.329879
   11          1      10011000        2.378597   -1.767960   -0.568727
   12          1      10011000        2.432429   -0.696568    0.840739
   13          1      10011000        1.171870   -1.954931    0.713650
   14          1      10011000       -0.234053    2.596544    0.706394
   15          1      10011000        0.207151    2.267361   -0.980565
   16          1      10011000        1.432473    2.142074    0.297151
 ---------------------------------------------------------------------
 Rotational constants (GHZ):      4.0290721      3.0457861      1.9060716
 Leave Link  202 at Wed Jan 16 17:34:32 2008, MaxMem=    6291456 cpu:       0.0
 (Enter C:\G03W\l301.exe)
 Standard basis: Dummy (5D, 7F)
 There are    16 symmetry adapted basis functions of A   symmetry.
 Integral buffers will be    262144 words long.
 Raffenetti 1 integral format.
 Two-electron integral symmetry is turned on.
    16 basis functions,    16 primitive gaussians,    16 cartesian basis functions
    11 alpha electrons       11 beta electrons
       nuclear repulsion energy        49.9202793636 Hartrees.
 IExCor=   0 DFT=F Ex=HF Corr=None ExCW=0 ScaHFX=  1.000000
 ScaDFX=  1.000000  1.000000  1.000000  1.000000
 IRadAn=      0 IRanWt=     -1 IRanGd=            0 ICorTp=0
 NAtoms=   16 NActive=   16 NUniq=   16 SFac= 7.50D-01 NAtFMM=   80 NAOKFM=F Big=F
 Leave Link  301 at Wed Jan 16 17:34:32 2008, MaxMem=    6291456 cpu:       0.0
 (Enter C:\G03W\l402.exe)
 Dreiding calculation of energy and first derivatives.
 MO and density RWFs will be updated without deorthogonalization.
 Energy=    0.020102336402 NIter=   0.
 Dipole moment=       0.000000       0.000000       0.000000
 Leave Link  402 at Wed Jan 16 17:34:32 2008, MaxMem=    6291456 cpu:       0.0
 (Enter C:\G03W\l716.exe)
 Dipole        = 0.00000000D+00 0.00000000D+00 0.00000000D+00
 ***** Axes restored to original set *****
 -------------------------------------------------------------------
 Center     Atomic                   Forces (Hartrees/Bohr)
 Number     Number              X              Y              Z
 -------------------------------------------------------------------
    1          6           0.000212939    0.000653184   -0.000388039
    2          8          -0.000160117   -0.002749812    0.000800122
    3          6          -0.000666194   -0.000107992   -0.001349407
    4          8           0.000453859    0.000918354   -0.000346686
    5          6          -0.000802015    0.000708017   -0.000697866
    6          1           0.000016676    0.000435486   -0.000102101
    7          1           0.001041860    0.000315374    0.001195843
    8          1          -0.000319785    0.000012591   -0.000004813
    9          6           0.000201325    0.000640509   -0.000647590
   10          1           0.000952910   -0.000965108    0.000762680
   11          1          -0.000084242   -0.000071485    0.000009157
   12          1          -0.000298549    0.000232494    0.000326259
   13          1          -0.000131102    0.000148754    0.000186951
   14          1           0.000181018    0.000045023    0.000156560
   15          1          -0.000333911    0.000396939   -0.000122940
   16          1          -0.000264672   -0.000612329    0.000221869
 -------------------------------------------------------------------
 Cartesian Forces:  Max     0.002749812 RMS     0.000666307
 Leave Link  716 at Wed Jan 16 17:34:33 2008, MaxMem=    6291456 cpu:       0.0
 (Enter C:\G03W\l103.exe)

 GradGradGradGradGradGradGradGradGradGradGradGradGradGradGradGradGradGrad
 Berny optimization.
 Internal  Forces:  Max     0.002554881 RMS     0.000922821
 Search for a local minimum.
 Step number   4 out of a maximum of  63
 All quantities printed in internal units (Hartrees-Bohrs-Radians)
   2   1  0.6978759E-03  0.2519916E-02  0.2769442    
 Update second derivatives using D2CorL and points  3  4
 Trust test= 5.89D-01 RLast= 3.51D-01 DXMaxT set to 4.24D-01
 lowest eigenvalue of the Hessian is  0.1279E-02.
 RFO step:  Lambda= 5.11861952D-05.
 Quartic linear search produced a step of -0.25595.
 Iteration  1 RMS(Cart)=  0.06120267 RMS(Int)=  0.00307005
 Iteration  2 RMS(Cart)=  0.00333730 RMS(Int)=  0.00000992
 Iteration  3 RMS(Cart)=  0.00000884 RMS(Int)=  0.00000769
 Iteration  4 RMS(Cart)=  0.00000000 RMS(Int)=  0.00000769
 Iteration  1 RMS(Cart)=  0.00000350 RMS(Int)=  0.00000205
 Iteration  2 RMS(Cart)=  0.00000138 RMS(Int)=  0.00000228
 Iteration  3 RMS(Cart)=  0.00000054 RMS(Int)=  0.00000248
 Variable       Old X    -DE/DX   Delta X   Delta X   Delta X     New X
                                 (Linear)    (Quad)   (Total)
    R1        2.71267   0.00148   0.00020   0.00229   0.00249   2.71516
    R2        2.06009  -0.00010   0.00082  -0.00219  -0.00137   2.05872
    R3        2.06230   0.00022   0.00085  -0.00131  -0.00046   2.06184
    R4        2.06332   0.00014   0.00097  -0.00164  -0.00066   2.06266
    R5        2.72138   0.00125   0.00080   0.00088   0.00168   2.72306
    R6        2.72857   0.00210   0.00045   0.00288   0.00333   2.73190
    R7        2.91376   0.00012  -0.00017   0.00065   0.00048   2.91425
    R8        2.07397   0.00037   0.00104  -0.00124  -0.00020   2.07376
    R9        2.71276   0.00126  -0.00031   0.00243   0.00213   2.71489
   R10        2.05997  -0.00007   0.00084  -0.00213  -0.00129   2.05869
   R11        2.06324   0.00015   0.00097  -0.00176  -0.00079   2.06244
   R12        2.06319   0.00014   0.00081  -0.00138  -0.00057   2.06263
   R13        2.06324   0.00000   0.00085  -0.00179  -0.00093   2.06231
   R14        2.06356  -0.00002   0.00077  -0.00173  -0.00096   2.06260
   R15        2.06293   0.00006   0.00080  -0.00162  -0.00082   2.06211
    A1        1.89063  -0.00028  -0.00121   0.00116  -0.00006   1.89057
    A2        1.92914   0.00235   0.00220   0.00660   0.00880   1.93794
    A3        1.94275  -0.00059   0.00016  -0.00195  -0.00179   1.94096
    A4        1.89516  -0.00114  -0.00194  -0.00243  -0.00437   1.89078
    A5        1.88966   0.00007   0.00001  -0.00005  -0.00003   1.88963
    A6        1.91529  -0.00048   0.00064  -0.00343  -0.00279   1.91250
    A7        2.01343   0.00173   0.00590  -0.00424   0.00167   2.01510
    A8        1.90820   0.00163   0.00079   0.00468   0.00546   1.91366
    A9        1.88193  -0.00030  -0.00187   0.00254   0.00066   1.88259
   A10        1.92913  -0.00145  -0.00160  -0.00215  -0.00379   1.92534
   A11        1.88931  -0.00139  -0.00175  -0.00174  -0.00348   1.88583
   A12        1.97925   0.00156   0.00125   0.00656   0.00780   1.98704
   A13        1.87290  -0.00019   0.00303  -0.01032  -0.00728   1.86563
   A14        2.02778   0.00255   0.00270   0.00362   0.00632   2.03410
   A15        1.89310  -0.00019  -0.00057   0.00056  -0.00001   1.89309
   A16        1.92894   0.00073   0.00001   0.00375   0.00376   1.93270
   A17        1.93765   0.00022   0.00089  -0.00075   0.00014   1.93779
   A18        1.89444  -0.00027  -0.00056  -0.00001  -0.00057   1.89387
   A19        1.89370  -0.00029   0.00023  -0.00213  -0.00190   1.89180
   A20        1.91502  -0.00022  -0.00004  -0.00151  -0.00155   1.91348
   A21        1.92407  -0.00076   0.00070  -0.00438  -0.00368   1.92038
   A22        1.92587   0.00045   0.00036   0.00165   0.00201   1.92788
   A23        1.91996   0.00029   0.00030  -0.00071  -0.00041   1.91955
   A24        1.89710   0.00031  -0.00027   0.00361   0.00334   1.90044
   A25        1.89862  -0.00095  -0.00092  -0.00266  -0.00359   1.89504
   A26        1.89767   0.00066  -0.00022   0.00257   0.00235   1.90002
    D1        3.12231  -0.00017  -0.01616   0.02034   0.00418   3.12649
    D2       -1.08652  -0.00036  -0.01798   0.02195   0.00397  -1.08255
    D3        1.23287   0.00020   0.03310  -0.09066  -0.05757   1.17530
    D4       -2.99993  -0.00074   0.03039  -0.08875  -0.05836  -3.05828
    D5       -2.16134  -0.00046   0.00059  -0.00542  -0.00485  -2.16619
    D6        2.07611  -0.00021   0.00338  -0.01005  -0.00669   2.06942
    D7        0.00000  -0.00130   0.00000   0.00000   0.00000   0.00000
    D8        1.14830  -0.00113  -0.04136  -0.09289  -0.13424   1.01406
    D9       -0.94736  -0.00131  -0.04170  -0.09563  -0.13732  -1.08467
   D10       -3.07232  -0.00012  -0.04237  -0.08690  -0.12929   3.08157
   D11        3.12439   0.00015  -0.00669   0.02313   0.01644   3.14082
   D12       -1.08393   0.00013  -0.00771   0.02567   0.01796  -1.06597
         Item               Value     Threshold  Converged?
 Maximum Force            0.002555     0.000450     NO 
 RMS     Force            0.000914     0.000300     NO 
 Maximum Displacement     0.199289     0.001800     NO 
 RMS     Displacement     0.061373     0.001200     NO 
 Predicted change in Energy=-2.594207D-04
 GradGradGradGradGradGradGradGradGradGradGradGradGradGradGradGradGradGrad

 Leave Link  103 at Wed Jan 16 17:34:33 2008, MaxMem=    6291456 cpu:       0.0
 (Enter C:\G03W\l202.exe)
                          Input orientation:                          
 ---------------------------------------------------------------------
 Center     Atomic     Atomic              Coordinates (Angstroms)
 Number     Number      Type              X           Y           Z
 ---------------------------------------------------------------------
    1          6      10061003        1.671681   -0.160585    1.333719
    2          8      10081003        1.151834   -0.757882    0.134806
    3          6      10061003       -0.238664   -0.494040   -0.135995
    4          8      10081003       -0.417105    0.908009   -0.439883
    5          6      10061003       -1.365551    1.624254    0.367228
    6          1      10011000        2.718635   -0.445315    1.432028
    7          1      10011000        1.615140    0.927952    1.285283
    8          1      10011000        1.136214   -0.515747    2.216064
    9          6      10061003       -0.640611   -1.308088   -1.382589
   10          1      10011000       -0.862699   -0.851293    0.692989
   11          1      10011000       -1.394564    2.659354    0.028786
   12          1      10011000       -2.364126    1.196822    0.260923
   13          1      10011000       -1.072115    1.613744    1.418488
   14          1      10011000       -0.460344   -2.370404   -1.209419
   15          1      10011000       -0.060960   -0.988212   -2.250354
   16          1      10011000       -1.701444   -1.165568   -1.594915
 ---------------------------------------------------------------------
                    Distance matrix (angstroms):
                    1          2          3          4          5
     1  C    0.000000
     2  O    1.436800   0.000000
     3  C    2.433243   1.440983   0.000000
     4  O    2.941188   2.359455   1.445659   0.000000
     5  C    3.653017   3.473588   2.451586   1.436657   0.000000
     6  H    1.089426   2.057996   3.347640   3.894664   4.700796
     7  H    1.091080   2.092912   2.734717   2.665823   3.195649
     8  H    1.091512   2.095353   2.724507   3.390271   3.775794
     9  C    3.747237   2.412069   1.542152   2.418623   3.490849
    10  H    2.703829   2.092519   1.097389   2.139415   2.547020
    11  H    4.365406   4.262967   3.362611   2.059681   1.089411
    12  H    4.391035   4.024767   2.744840   2.089362   1.091399
    13  H    3.268615   3.495482   2.748419   2.092999   1.091496
    14  H    3.987027   2.646940   2.173045   3.367796   4.388907
    15  H    4.066028   2.685686   2.178600   2.645808   3.921564
    16  H    4.578740   3.361449   2.172354   2.698767   3.427234
                    6          7          8          9         10
     6  H    0.000000
     7  H    1.767794   0.000000
     8  H    1.767408   1.783253   0.000000
     9  C    4.466653   4.147991   4.090870   0.000000
    10  H    3.679260   3.107444   2.535350   2.136823   0.000000
    11  H    5.341017   3.692541   4.611972   4.277969   3.612297
    12  H    5.468324   4.117786   4.359799   3.456329   2.575993
    13  H    4.313895   2.776579   3.169791   4.070544   2.578102
    14  H    4.559509   4.627129   4.209832   1.091330   2.467538
    15  H    4.645516   4.356801   4.648154   1.091481   3.053654
    16  H    5.405391   4.866014   4.795636   1.091220   2.456983
                   11         12         13         14         15
    11  H    0.000000
    12  H    1.770010   0.000000
    13  H    1.768770   1.784117   0.000000
    14  H    5.263496   4.302487   4.811818   0.000000
    15  H    4.503078   4.047896   4.610099   1.775812   0.000000
    16  H    4.166606   3.076389   4.147436   1.772165   1.775456
                   16
    16  H    0.000000
 Stoichiometry    C4H10O2
 Framework group  C1[X(C4H10O2)]
 Deg. of freedom    42
 Full point group                 C1
 Largest Abelian subgroup         C1      NOp   1
 Largest concise Abelian subgroup C1      NOp   1
                         Standard orientation:                         
 ---------------------------------------------------------------------
 Center     Atomic     Atomic              Coordinates (Angstroms)
 Number     Number      Type              X           Y           Z
 ---------------------------------------------------------------------
    1          6      10061003       -1.876245   -1.010602    0.061966
    2          8      10081003       -1.331624    0.298137   -0.172520
    3          6      10061003        0.028610    0.490039    0.262643
    4          8      10081003        0.915908   -0.314807   -0.546588
    5          6      10061003        1.768771   -1.233499    0.155275
    6          1      10011000       -2.905692   -1.022021   -0.294343
    7          1      10011000       -1.315837   -1.771494   -0.483417
    8          1      10011000       -1.879934   -1.251853    1.126477
    9          6      10061003        0.391793    1.972237    0.040327
   10          1      10011000        0.114577    0.298765    1.339809
   11          1      10011000        2.375566   -1.767693   -0.574967
   12          1      10011000        2.434958   -0.699775    0.835337
   13          1      10011000        1.181397   -1.963574    0.715048
   14          1      10011000       -0.299410    2.613027    0.590443
   15          1      10011000        0.338024    2.223247   -1.020538
   16          1      10011000        1.404504    2.165684    0.397754
 ---------------------------------------------------------------------
 Rotational constants (GHZ):      4.0175531      3.0533110      1.9030072
 Leave Link  202 at Wed Jan 16 17:34:33 2008, MaxMem=    6291456 cpu:       0.0
 (Enter C:\G03W\l301.exe)
 Standard basis: Dummy (5D, 7F)
 There are    16 symmetry adapted basis functions of A   symmetry.
 Integral buffers will be    262144 words long.
 Raffenetti 1 integral format.
 Two-electron integral symmetry is turned on.
    16 basis functions,    16 primitive gaussians,    16 cartesian basis functions
    11 alpha electrons       11 beta electrons
       nuclear repulsion energy        49.8943460076 Hartrees.
 IExCor=   0 DFT=F Ex=HF Corr=None ExCW=0 ScaHFX=  1.000000
 ScaDFX=  1.000000  1.000000  1.000000  1.000000
 IRadAn=      0 IRanWt=     -1 IRanGd=            0 ICorTp=0
 NAtoms=   16 NActive=   16 NUniq=   16 SFac= 7.50D-01 NAtFMM=   80 NAOKFM=F Big=F
 Leave Link  301 at Wed Jan 16 17:34:33 2008, MaxMem=    6291456 cpu:       0.0
 (Enter C:\G03W\l402.exe)
 Dreiding calculation of energy and first derivatives.
 MO and density RWFs will be updated without deorthogonalization.
 Energy=    0.019953999461 NIter=   0.
 Dipole moment=       0.000000       0.000000       0.000000
 Leave Link  402 at Wed Jan 16 17:34:33 2008, MaxMem=    6291456 cpu:       0.0
 (Enter C:\G03W\l716.exe)
 Dipole        = 0.00000000D+00 0.00000000D+00 0.00000000D+00
 ***** Axes restored to original set *****
 -------------------------------------------------------------------
 Center     Atomic                   Forces (Hartrees/Bohr)
 Number     Number              X              Y              Z
 -------------------------------------------------------------------
    1          6          -0.000202268   -0.000111936    0.000020520
    2          8          -0.000128553   -0.000914509    0.000315706
    3          6          -0.000724231   -0.000081182   -0.001874130
    4          8          -0.000548450    0.000479138    0.000075463
    5          6          -0.000186266   -0.000370480   -0.000360594
    6          1           0.000348913   -0.000016271   -0.000078414
    7          1           0.000546022    0.000376447    0.000373259
    8          1          -0.000453176   -0.000166940    0.000056107
    9          6           0.000117398    0.000388831    0.000507104
   10          1           0.001424984    0.000685922    0.001609129
   11          1          -0.000063105    0.000274850   -0.000222005
   12          1          -0.000345996   -0.000096934   -0.000000849
   13          1           0.000132165   -0.000294066    0.000199544
   14          1           0.000007572   -0.000375418   -0.000169006
   15          1           0.000311561   -0.000052856   -0.000135192
   16          1          -0.000236569    0.000275404   -0.000316644
 -------------------------------------------------------------------
 Cartesian Forces:  Max     0.001874130 RMS     0.000525705
 Leave Link  716 at Wed Jan 16 17:34:34 2008, MaxMem=    6291456 cpu:       0.0
 (Enter C:\G03W\l103.exe)

 GradGradGradGradGradGradGradGradGradGradGradGradGradGradGradGradGradGrad
 Berny optimization.
 Internal  Forces:  Max     0.002455816 RMS     0.000666868
 Search for a local minimum.
 Step number   5 out of a maximum of  63
 All quantities printed in internal units (Hartrees-Bohrs-Radians)
   2   1  0.2257496E-03  0.1221696E-02  0.1847839    
 Update second derivatives using D2CorL and points  4  5
 Trust test= 5.72D-01 RLast= 2.48D-01 DXMaxT set to 4.24D-01
 lowest eigenvalue of the Hessian is  0.1264E-02.
 RFO step:  Lambda= 1.52256241D-05.
 Quartic linear search produced a step of -0.28557.
 Iteration  1 RMS(Cart)=  0.02205101 RMS(Int)=  0.00023303
 Iteration  2 RMS(Cart)=  0.00030155 RMS(Int)=  0.00000334
 Iteration  3 RMS(Cart)=  0.00000006 RMS(Int)=  0.00000334
 Iteration  1 RMS(Cart)=  0.00000136 RMS(Int)=  0.00000080
 Iteration  2 RMS(Cart)=  0.00000054 RMS(Int)=  0.00000089
 Variable       Old X    -DE/DX   Delta X   Delta X   Delta X     New X
                                 (Linear)    (Quad)   (Total)
[...]
    11 alpha electrons       11 beta electrons
       nuclear repulsion energy        49.8704345485 Hartrees.
 IExCor=   0 DFT=F Ex=HF Corr=None ExCW=0 ScaHFX=  1.000000
 ScaDFX=  1.000000  1.000000  1.000000  1.000000
 IRadAn=      0 IRanWt=     -1 IRanGd=            0 ICorTp=0
 NAtoms=   16 NActive=   16 NUniq=   16 SFac= 7.50D-01 NAtFMM=   80 NAOKFM=F Big=F
 Leave Link  301 at Wed Jan 16 17:34:36 2008, MaxMem=    6291456 cpu:       0.0
 (Enter C:\G03W\l402.exe)
 Dreiding calculation of energy and first derivatives.
 MO and density RWFs will be updated without deorthogonalization.
 Energy=    0.019880090175 NIter=   0.
 Dipole moment=       0.000000       0.000000       0.000000
 Leave Link  402 at Wed Jan 16 17:34:36 2008, MaxMem=    6291456 cpu:       0.0
 (Enter C:\G03W\l716.exe)
 Dipole        = 0.00000000D+00 0.00000000D+00 0.00000000D+00
 ***** Axes restored to original set *****
 -------------------------------------------------------------------
 Center     Atomic                   Forces (Hartrees/Bohr)
 Number     Number              X              Y              Z
 -------------------------------------------------------------------
    1          6          -0.000022476   -0.000007257   -0.000002275
    2          8          -0.000003288    0.000001957    0.000012169
    3          6          -0.000765036   -0.000256956   -0.000694158
    4          8           0.000649953    0.000231491    0.000598888
    5          6          -0.000363439   -0.000123823   -0.000329243
    6          1           0.000001801   -0.000008632    0.000003824
    7          1          -0.000001636    0.000000804   -0.000012585
    8          1          -0.000001140   -0.000002592    0.000002167
    9          6           0.000007054    0.000007829    0.000002016
   10          1           0.000506399    0.000165331    0.000439584
   11          1          -0.000000821    0.000003541   -0.000002724
   12          1          -0.000008100    0.000004293   -0.000000809
   13          1           0.000006618   -0.000004764    0.000001841
   14          1          -0.000001212   -0.000005685   -0.000004603
   15          1           0.000000441   -0.000000709   -0.000004668
   16          1          -0.000005117   -0.000004827   -0.000009426
 -------------------------------------------------------------------
 Cartesian Forces:  Max     0.000765036 RMS     0.000237267
 Leave Link  716 at Wed Jan 16 17:34:36 2008, MaxMem=    6291456 cpu:       0.0
 (Enter C:\G03W\l103.exe)

 GradGradGradGradGradGradGradGradGradGradGradGradGradGradGradGradGradGrad
 Berny optimization.
 Internal  Forces:  Max     0.001235340 RMS     0.000170225
 Search for a local minimum.
 Step number   8 out of a maximum of  63
 All quantities printed in internal units (Hartrees-Bohrs-Radians)
   2   1  0.2942131E-07  0.1391606E-05  0.2114197E-01
 Update second derivatives using D2CorL and points  7  8
 Trust test= 9.70D-01 RLast= 8.16D-03 DXMaxT set to 4.24D-01
 lowest eigenvalue of the Hessian is  0.1100E-02.
 RFO step:  Lambda= 1.05357716D-08.
 Quartic linear search produced a step of -0.02603.
 Iteration  1 RMS(Cart)=  0.00040907 RMS(Int)=  0.00000011
 Iteration  2 RMS(Cart)=  0.00000012 RMS(Int)=  0.00000000
 Iteration  1 RMS(Cart)=  0.00000000 RMS(Int)=  0.00000000
 Variable       Old X    -DE/DX   Delta X   Delta X   Delta X     New X
                                 (Linear)    (Quad)   (Total)
    R1        2.71598  -0.00002   0.00000  -0.00004  -0.00004   2.71594
    R2        2.05977   0.00000   0.00000   0.00001   0.00001   2.05978
    R3        2.06289   0.00000   0.00000   0.00000   0.00000   2.06289
    R4        2.06376   0.00000   0.00000   0.00001   0.00001   2.06377
    R5        2.72358  -0.00002   0.00000  -0.00004  -0.00004   2.72353
    R6        2.73281   0.00001   0.00000   0.00005   0.00005   2.73286
    R7        2.91376   0.00001   0.00000   0.00004   0.00004   2.91380
    R8        2.07452   0.00000   0.00000   0.00000   0.00000   2.07451
    R9        2.71489  -0.00001   0.00000  -0.00001  -0.00001   2.71488
   R10        2.05974   0.00000   0.00000   0.00001   0.00001   2.05975
   R11        2.06358   0.00001   0.00000   0.00001   0.00002   2.06359
   R12        2.06345   0.00000   0.00000   0.00001   0.00001   2.06346
   R13        2.06332   0.00000   0.00000   0.00001   0.00001   2.06333
   R14        2.06344   0.00000   0.00000   0.00001   0.00001   2.06345
   R15        2.06310   0.00001   0.00000   0.00002   0.00002   2.06312
    A1        1.88957   0.00000   0.00000   0.00001   0.00001   1.88958
    A2        1.94044  -0.00002   0.00000  -0.00014  -0.00014   1.94030
    A3        1.93979   0.00000   0.00000   0.00005   0.00005   1.93984
    A4        1.88918   0.00001   0.00000   0.00005   0.00006   1.88924
    A5        1.89057   0.00000   0.00000  -0.00001  -0.00001   1.89056
    A6        1.91276   0.00001   0.00000   0.00004   0.00004   1.91280
    A7        2.01576  -0.00004   0.00000  -0.00015  -0.00015   2.01560
    A8        1.92418   0.00003  -0.00003   0.00021   0.00018   1.92436
    A9        1.88177   0.00000   0.00000  -0.00001  -0.00001   1.88176
   A10        1.91589  -0.00004   0.00001  -0.00036  -0.00035   1.91554
   A11        1.88262  -0.00001   0.00001  -0.00002  -0.00001   1.88261
   A12        1.98349   0.00000   0.00000  -0.00002  -0.00001   1.98348
   A13        1.87223   0.00002   0.00001   0.00020   0.00021   1.87243
   A14        2.03201   0.00002   0.00000   0.00011   0.00011   2.03212
   A15        1.89312   0.00000   0.00000  -0.00001  -0.00001   1.89311
   A16        1.93309   0.00001   0.00000   0.00005   0.00005   1.93314
   A17        1.93638  -0.00001   0.00000  -0.00005  -0.00005   1.93633
   A18        1.89356   0.00000   0.00000  -0.00002  -0.00002   1.89354
   A19        1.89347   0.00000   0.00000   0.00001   0.00001   1.89348
   A20        1.91317   0.00000   0.00000   0.00002   0.00002   1.91320
   A21        1.92226   0.00001   0.00000   0.00002   0.00002   1.92229
   A22        1.92612   0.00000   0.00000   0.00001   0.00000   1.92612
   A23        1.92061   0.00002   0.00000   0.00006   0.00007   1.92067
   A24        1.89898  -0.00001   0.00000  -0.00002  -0.00003   1.89895
   A25        1.89615   0.00000   0.00000  -0.00005  -0.00004   1.89611
   A26        1.89919  -0.00001   0.00000  -0.00002  -0.00003   1.89916
    D1        3.10962  -0.00001   0.00004  -0.00069  -0.00065   3.10897
    D2       -1.10053  -0.00001   0.00004  -0.00070  -0.00066  -1.10119
    D3        1.18572   0.00001   0.00014  -0.00019  -0.00005   1.18567
    D4       -3.04639   0.00001   0.00014  -0.00010   0.00004  -3.04635
    D5       -2.15930   0.00003   0.00001   0.00032   0.00033  -2.15897
    D6        2.07334   0.00002   0.00002   0.00023   0.00024   2.07358
    D7        0.00000  -0.00124   0.00000   0.00000   0.00000   0.00000
    D8        1.04498  -0.00001   0.00003  -0.00021  -0.00019   1.04479
    D9       -1.05202   0.00000   0.00003  -0.00020  -0.00017  -1.05219
   D10        3.12274   0.00002   0.00000   0.00002   0.00002   3.12275
   D11        3.13747   0.00000  -0.00002  -0.00018  -0.00020   3.13727
   D12       -1.06946   0.00000  -0.00002  -0.00019  -0.00021  -1.06967
         Item               Value     Threshold  Converged?
 Maximum Force            0.000040     0.000450     YES
 RMS     Force            0.000014     0.000300     YES
 Maximum Displacement     0.001272     0.001800     YES
 RMS     Displacement     0.000409     0.001200     YES
 Predicted change in Energy=-3.682997D-08
 Optimization completed.
    -- Stationary point found.
                           ----------------------------
                           !   Optimized Parameters   !
                           ! (Angstroms and Degrees)  !
 --------------------------                            --------------------------
 ! Name  Definition              Value          Derivative Info.                !
 --------------------------------------------------------------------------------
 ! R1    R(1,2)                  1.4372         -DE/DX =    0.0                 !
 ! R2    R(1,6)                  1.09           -DE/DX =    0.0                 !
 ! R3    R(1,7)                  1.0916         -DE/DX =    0.0                 !
 ! R4    R(1,8)                  1.0921         -DE/DX =    0.0                 !
 ! R5    R(2,3)                  1.4413         -DE/DX =    0.0                 !
 ! R6    R(3,4)                  1.4461         -DE/DX =    0.0                 !
 ! R7    R(3,9)                  1.5419         -DE/DX =    0.0                 !
 ! R8    R(3,10)                 1.0978         -DE/DX =    0.0                 !
 ! R9    R(4,5)                  1.4367         -DE/DX =    0.0                 !
 ! R10   R(5,11)                 1.09           -DE/DX =    0.0                 !
 ! R11   R(5,12)                 1.092          -DE/DX =    0.0                 !
 ! R12   R(5,13)                 1.0919         -DE/DX =    0.0                 !
 ! R13   R(9,14)                 1.0919         -DE/DX =    0.0                 !
 ! R14   R(9,15)                 1.0919         -DE/DX =    0.0                 !
 ! R15   R(9,16)                 1.0917         -DE/DX =    0.0                 !
 ! A1    A(2,1,6)              108.2646         -DE/DX =    0.0                 !
 ! A2    A(2,1,7)              111.179          -DE/DX =    0.0                 !
 ! A3    A(2,1,8)              111.1417         -DE/DX =    0.0                 !
 ! A4    A(6,1,7)              108.2421         -DE/DX =    0.0                 !
 ! A5    A(6,1,8)              108.3218         -DE/DX =    0.0                 !
 ! A6    A(7,1,8)              109.5931         -DE/DX =    0.0                 !
 ! A7    A(1,2,3)              115.4943         -DE/DX =    0.0                 !
 ! A8    A(2,3,4)              110.2471         -DE/DX =    0.0                 !
 ! A9    A(2,3,9)              107.8174         -DE/DX =    0.0                 !
 ! A10   A(2,3,10)             109.7727         -DE/DX =    0.0                 !
 ! A11   A(4,3,9)              107.8661         -DE/DX =    0.0                 !
 ! A12   A(4,3,10)             113.6456         -DE/DX =    0.0                 !
 ! A13   A(9,3,10)             107.2708         -DE/DX =    0.0                 !
 ! A14   A(3,4,5)              116.4255         -DE/DX =    0.0                 !
 ! A15   A(4,5,11)             108.4679         -DE/DX =    0.0                 !
 ! A16   A(4,5,12)             110.758          -DE/DX =    0.0                 !
 ! A17   A(4,5,13)             110.9462         -DE/DX =    0.0                 !
 ! A18   A(11,5,12)            108.4932         -DE/DX =    0.0                 !
 ! A19   A(11,5,13)            108.4876         -DE/DX =    0.0                 !
 ! A20   A(12,5,13)            109.6167         -DE/DX =    0.0                 !
 ! A21   A(3,9,14)             110.1376         -DE/DX =    0.0                 !
 ! A22   A(3,9,15)             110.3585         -DE/DX =    0.0                 !
 ! A23   A(3,9,16)             110.0426         -DE/DX =    0.0                 !
 ! A24   A(14,9,15)            108.8035         -DE/DX =    0.0                 !
 ! A25   A(14,9,16)            108.6414         -DE/DX =    0.0                 !
 ! A26   A(15,9,16)            108.8155         -DE/DX =    0.0                 !
 ! D1    D(6,1,2,3)            178.1681         -DE/DX =    0.0                 !
 ! D2    D(7,1,2,3)            -63.0556         -DE/DX =    0.0                 !
 ! D3    D(1,2,3,4)             67.9367         -DE/DX =    0.0                 !
 ! D4    D(1,2,3,9)           -174.5453         -DE/DX =    0.0                 !
 ! D5    D(2,3,4,5)           -123.7188         -DE/DX =    0.0                 !
 ! D6    D(9,3,4,5)            118.7934         -DE/DX =    0.0                 !
 ! D7    D(10,3,4,5)             0.0001         -DE/DX =   -0.0012              !
 ! D8    D(2,3,9,14)            59.8729         -DE/DX =    0.0                 !
 ! D9    D(2,3,9,15)           -60.2763         -DE/DX =    0.0                 !
 ! D10   D(4,3,9,14)           178.9196         -DE/DX =    0.0                 !
 ! D11   D(3,4,5,11)           179.7636         -DE/DX =    0.0                 !
 ! D12   D(3,4,5,12)           -61.2754         -DE/DX =    0.0                 !
 --------------------------------------------------------------------------------
 GradGradGradGradGradGradGradGradGradGradGradGradGradGradGradGradGradGrad

 Largest change from initial coordinates is atom   13       0.183 Angstoms.
 Leave Link  103 at Wed Jan 16 17:34:37 2008, MaxMem=    6291456 cpu:       1.0
 (Enter C:\G03W\l202.exe)
                          Input orientation:                          
 ---------------------------------------------------------------------
 Center     Atomic     Atomic              Coordinates (Angstroms)
 Number     Number      Type              X           Y           Z
 ---------------------------------------------------------------------
    1          6      10061003        1.676605   -0.162029    1.332417
    2          8      10081003        1.156351   -0.750771    0.128936
    3          6      10061003       -0.235013   -0.487372   -0.139283
    4          8      10081003       -0.429002    0.912073   -0.447907
    5          6      10061003       -1.375224    1.621494    0.367794
    6          1      10011000        2.719748   -0.460806    1.435595
    7          1      10011000        1.636156    0.927936    1.287684
    8          1      10011000        1.130488   -0.513036    2.210612
    9          6      10061003       -0.639244   -1.306222   -1.381668
   10          1      10011000       -0.848522   -0.842554    0.698922
   11          1      10011000       -1.415989    2.656494    0.028471
   12          1      10011000       -2.372030    1.186019    0.271877
   13          1      10011000       -1.070643    1.612618    1.416346
   14          1      10011000       -0.488591   -2.371431   -1.195134
   15          1      10011000       -0.037109   -1.011218   -2.243471
   16          1      10011000       -1.692661   -1.138195   -1.614032
 ---------------------------------------------------------------------
                    Distance matrix (angstroms):
                    1          2          3          4          5
     1  C    0.000000
     2  O    1.437236   0.000000
     3  C    2.434345   1.441255   0.000000
     4  O    2.959194   2.368785   1.446142   0.000000
     5  C    3.664029   3.477580   2.450413   1.436656   0.000000
     6  H    1.089982   2.058069   3.348367   3.917525   4.716457
     7  H    1.091632   2.095463   2.746016   2.697667   3.224225
     8  H    1.092097   2.095366   2.717951   3.395683   3.772371
     9  C    3.746812   2.411352   1.541895   2.415977   3.489098
    10  H    2.690855   2.086342   1.097786   2.137740   2.541376
    11  H    4.382748   4.270419   3.362550   2.060118   1.089967
    12  H    4.396979   4.027537   2.745201   2.090094   1.091999
    13  H    3.271664   3.493212   2.743759   2.092345   1.091930
    14  H    3.994752   2.661867   2.174581   3.367981   4.378619
    15  H    4.055233   2.668425   2.177427   2.660203   3.942135
    16  H    4.581094   3.362277   2.173291   2.675871   3.412372
                    6          7          8          9         10
     6  H    0.000000
     7  H    1.767669   0.000000
     8  H    1.768934   1.784348   0.000000
     9  C    4.464810   4.158648   4.082349   0.000000
    10  H    3.663464   3.107234   2.512025   2.141879   0.000000
    11  H    5.366738   3.726811   4.614347   4.277260   3.607611
    12  H    5.476538   4.142949   4.348920   3.456591   2.572654
    13  H    4.320477   2.795015   3.161367   4.066278   2.567470
    14  H    4.567785   4.643787   4.204064   1.091861   2.460582
    15  H    4.630198   4.362246   4.631449   1.091924   3.056880
    16  H    5.406333   4.875436   4.794674   1.091747   2.479866
                   11         12         13         14         15
    11  H    0.000000
    12  H    1.770751   0.000000
    13  H    1.770632   1.784770   0.000000
    14  H    5.257120   4.284263   4.799089   0.000000
    15  H    4.529365   4.075130   4.620278   1.775675   0.000000
    16  H    4.144157   3.069229   4.139695   1.773733   1.775717
                   16
    16  H    0.000000
 Stoichiometry    C4H10O2
 Framework group  C1[X(C4H10O2)]
 Deg. of freedom    42
 Full point group                 C1
 Largest Abelian subgroup         C1      NOp   1
 Largest concise Abelian subgroup C1      NOp   1
                         Standard orientation:                         
 ---------------------------------------------------------------------
 Center     Atomic     Atomic              Coordinates (Angstroms)
 Number     Number      Type              X           Y           Z
 ---------------------------------------------------------------------
    1          6      10061003       -1.882707   -1.010085    0.063079
    2          8      10081003       -1.333174    0.296139   -0.176585
    3          6      10061003        0.027746    0.485947    0.258255
    4          8      10081003        0.926493   -0.309352   -0.548641
    5          6      10061003        1.773474   -1.230645    0.156926
    6          1      10011000       -2.917809   -1.013139   -0.278408
    7          1      10011000       -1.337354   -1.775382   -0.492414
    8          1      10011000       -1.871750   -1.252738    1.127821
    9          6      10061003        0.388481    1.969846    0.045285
   10          1      10011000        0.105562    0.282802    1.334271
   11          1      10011000        2.388613   -1.760497   -0.570321
   12          1      10011000        2.432707   -0.699732    0.846858
   13          1      10011000        1.179934   -1.963289    0.707611
   14          1      10011000       -0.282562    2.606782    0.625089
   15          1      10011000        0.300218    2.234511   -1.010394
   16          1      10011000        1.413928    2.156010    0.370423
 ---------------------------------------------------------------------
 Rotational constants (GHZ):      4.0288737      3.0349164      1.8988531
 Leave Link  202 at Wed Jan 16 17:34:37 2008, MaxMem=    6291456 cpu:       0.0
 (Enter C:\G03W\l9999.exe)
 1|1|UNPC-UNK|FOpt|Dreiding|ZDO|C4H10O2|PCUSER|16-Jan-2008|0||#p Opt=(M
 odredun,nomicro) dreiding||acetaldehyde dimethylacetal-g ecl||0,1|C,1.
 676605132,-0.1620287594,1.3324172653|O,1.1563509291,-0.7507707166,0.12
 89364042|C,-0.23501343,-0.4873720932,-0.1392825053|O,-0.4290016522,0.9
 120730172,-0.4479071033|C,-1.3752236183,1.6214940251,0.3677936505|H,2.
 7197479748,-0.4608057137,1.4355948388|H,1.636156206,0.9279360364,1.287
 6839643|H,1.1304877312,-0.513035796,2.2106119007|C,-0.6392444367,-1.30
 62224637,-1.3816684188|H,-0.8485222911,-0.8425536679,0.6989223875|H,-1
 .415988604,2.6564944219,0.0284713862|H,-2.3720298339,1.1860185519,0.27
 18770457|H,-1.0706432489,1.6126176617,1.4163460306|H,-0.4885912871,-2.
 371430611,-1.1951340017|H,-0.0371086246,-1.0112184664,-2.2434706567|H,
 -1.6926609465,-1.1381954263,-1.6140321881||Version=IA32W-G03RevD.01|HF
 =0.0198801|RMSD=0.000e+000|RMSF=2.373e-004|Thermal=0.|Dipole=0.,0.,0.|
 PG=C01 [X(C4H10O2)]||@


 AN OPTIMIST IS A GUY
 THAT HAS NEVER HAD
 MUCH EXPERIENCE
   (CERTAIN MAXIMS OF ARCHY  -- DON MARQUIS)
 Job cpu time:  0 days  0 hours  0 minutes  9.0 seconds.
 File lengths (MBytes):  RWF=     11 Int=      0 D2E=      0 Chk=      4 Scr=      1
 Normal termination of Gaussian 03 at Wed Jan 16 17:34:37 2008.
