 Entering Link 1 = C:\G03W\l1.exe PID=      2304.
  
 Copyright (c) 1988,1990,1992,1993,1995,1998,2003,2004, Gaussian, Inc.
                  All Rights Reserved.
  
 This is the Gaussian(R) 03 program.  It is based on the
 the Gaussian(R) 98 system (copyright 1998, Gaussian, Inc.),
 the Gaussian(R) 94 system (copyright 1995, Gaussian, Inc.),
 the Gaussian 92(TM) system (copyright 1992, Gaussian, Inc.),
 the Gaussian 90(TM) system (copyright 1990, Gaussian, Inc.),
 the Gaussian 88(TM) system (copyright 1988, Gaussian, Inc.),
 the Gaussian 86(TM) system (copyright 1986, Carnegie Mellon
 University), and the Gaussian 82(TM) system (copyright 1983,
 Carnegie Mellon University). Gaussian is a federally registered
 trademark of Gaussian, Inc.
  
 This software contains proprietary and confidential information,
 including trade secrets, belonging to Gaussian, Inc.
  
 This software is provided under written license and may be
 used, copied, transmitted, or stored only in accord with that
 written license.
  
 The following legend is applicable only to US Government
 contracts under FAR:
  
                    RESTRICTED RIGHTS LEGEND
  
 Use, reproduction and disclosure by the US Government is
 subject to restrictions as set forth in subparagraphs (a)
 and (c) of the Commercial Computer Software - Restricted
 Rights clause in FAR 52.227-19.
  
 Gaussian, Inc.
 340 Quinnipiac St., Bldg. 40, Wallingford CT 06492
  
  
 ---------------------------------------------------------------
 Warning -- This program may not be used in any manner that
 competes with the business of Gaussian, Inc. or will provide
 assistance to any competitor of Gaussian, Inc.  The licensee
 of this program is prohibited from giving any competitor of
 Gaussian, Inc. access to this program.  By using this program,
 the user acknowledges that Gaussian, Inc. is engaged in the
 business of creating and licensing software in the field of
 computational chemistry and represents and warrants to the
 licensee that it is not a competitor of Gaussian, Inc. and that
 it will not use this program in any manner prohibited above.
 ---------------------------------------------------------------
  

 Cite this work as:
 Gaussian 03, Revision D.01,
 M. J. Frisch, G. W. Trucks, H. B. Schlegel, G. E. Scuseria, 
 M. A. Robb, J. R. Cheeseman, J. A. Montgomery, Jr., T. Vreven, 
 K. N. Kudin, J. C. Burant, J. M. Millam, S. S. Iyengar, J. Tomasi, 
 V. Barone, B. Mennucci, M. Cossi, G. Scalmani, N. Rega, 
 G. A. Petersson, H. Nakatsuji, M. Hada, M. Ehara, K. Toyota, 
 R. Fukuda, J. Hasegawa, M. Ishida, T. Nakajima, Y. Honda, O. Kitao, 
 H. Nakai, M. Klene, X. Li, J. E. Knox, H. P. Hratchian, J. B. Cross, 
 V. Bakken, C. Adamo, J. Jaramillo, R. Gomperts, R. E. Stratmann, 
 O. Yazyev, A. J. Austin, R. Cammi, C. Pomelli, J. W. Ochterski, 
 P. Y. Ayala, K. Morokuma, G. A. Voth, P. Salvador, J. J. Dannenberg, 
 V. G. Zakrzewski, S. Dapprich, A. D. Daniels, M. C. Strain, 
 O. Farkas, D. K. Malick, A. D. Rabuck, K. Raghavachari, 
 J. B. Foresman, J. V. Ortiz, Q. Cui, A. G. Baboul, S. Clifford, 
 J. Cioslowski, B. B. Stefanov, G. Liu, A. Liashenko, P. Piskorz, 
 I. Komaromi, R. L. Martin, D. J. Fox, T. Keith, M. A. Al-Laham, 
 C. Y. Peng, A. Nanayakkara, M. Challacombe, P. M. W. Gill, 
 B. Johnson, W. Chen, M. W. Wong, C. Gonzalez, and J. A. Pople, 
 Gaussian, Inc., Wallingford CT, 2004.
 
 ******************************************
 Gaussian 03:  IA32W-G03RevD.01 13-Oct-2005
                13-Dec-2007 
 ******************************************
 --------------
 # opt dreiding
 --------------
 1/6=10,10=10,14=-1,18=4000020,38=1,56=1,64=1/1,3;
 2/9=110,17=6,18=5,40=1/2;
 3/5=30,11=9,16=1,25=1,30=1/1;
 4/20=9,22=1001,24=3/2;
 7/44=-1/16;
 1/6=10,10=10,14=-1,18=4000020,64=1/3(2);
 2/9=110/2;
 99//99;
 2/9=110/2;
 3/5=30,11=9,16=1,25=1,30=1/1;
 4/16=2,20=9,22=1001,24=3/2;
 7/44=-1/16;
 1/6=10,10=10,14=-1,18=4000020,64=1/3(-4);
 2/9=110/2;
 99//99;
 --------------------------------
 acetaldehyde dimethylacetal-g-g-
 --------------------------------
 Symbolic Z-matrix:
 Charge =  0 Multiplicity = 1
 C                     1.73508  -0.46814  -0.767 
 O                     1.00308  -0.48014   0.446 
 C                    -0.40992  -0.41114   0.296 
 O                    -0.74792   0.90886  -0.11 
 C                    -0.64692   1.85886   0.937 
 H                     2.81508  -0.36014  -0.511 
 H                     1.60908  -1.43514  -1.308 
 H                     1.43608   0.39386  -1.408 
 C                    -0.97092  -1.42914  -0.709 
 H                    -0.86192  -0.62014   1.299 
 H                    -0.91292   2.85786   0.519 
 H                    -1.36692   1.61186   1.753 
 H                     0.39508   1.90386   1.33 
 H                    -0.61692  -2.46014  -0.478 
 H                    -0.69692  -1.18314  -1.76 
 H                    -2.08492  -1.44114  -0.666 
 
 Include all MM classes
 MMInit generated parameter data with length LenPar=  1458.

 GradGradGradGradGradGradGradGradGradGradGradGradGradGradGradGradGradGrad
 Berny optimization.
 Initialization pass.
 No Z-matrix variables, so optimization will use Cartesian coordinates.
 Trust Radius=1.00D-01 FncErr=1.00D-07 GrdErr=1.00D-07
 Number of steps in this run=   2 maximum allowed number of steps=   2.
 GradGradGradGradGradGradGradGradGradGradGradGradGradGradGradGradGradGrad

                          Input orientation:                          
 ---------------------------------------------------------------------
 Center     Atomic     Atomic              Coordinates (Angstroms)
 Number     Number      Type              X           Y           Z
 ---------------------------------------------------------------------
    1          6      10061003        1.735080   -0.468140   -0.767000
    2          8      10081003        1.003080   -0.480140    0.446000
    3          6      10061003       -0.409920   -0.411140    0.296000
    4          8      10081003       -0.747920    0.908860   -0.110000
    5          6      10061003       -0.646920    1.858860    0.937000
    6          1      10011000        2.815080   -0.360140   -0.511000
    7          1      10011000        1.609080   -1.435140   -1.308000
    8          1      10011000        1.436080    0.393860   -1.408000
    9          6      10061003       -0.970920   -1.429140   -0.709000
   10          1      10011000       -0.861920   -0.620140    1.299000
   11          1      10011000       -0.912920    2.857860    0.519000
   12          1      10011000       -1.366920    1.611860    1.753000
   13          1      10011000        0.395080    1.903860    1.330000
   14          1      10011000       -0.616920   -2.460140   -0.478000
   15          1      10011000       -0.696920   -1.183140   -1.760000
   16          1      10011000       -2.084920   -1.441140   -0.666000
 ---------------------------------------------------------------------
                    Distance matrix (angstroms):
                    1          2          3          4          5
     1  C    0.000000
     2  O    1.416805   0.000000
     3  C    2.394628   1.422614   0.000000
     4  O    2.914287   2.303141   1.421788   0.000000
     5  C    3.740651   2.904221   2.370643   1.417360   0.000000
     6  H    1.115168   2.052704   3.324827   3.803437   4.359600
     7  H    1.115189   2.087050   2.774482   3.533410   4.580393
     8  H    1.115045   2.094918   2.638059   2.592274   3.461812
     9  C    2.872163   2.476147   1.536577   2.423793   3.691238
    10  H    3.322028   2.055586   1.119819   2.082335   2.514500
    11  H    4.441619   3.849497   3.314981   2.054621   1.115115
    12  H    4.505464   3.420762   2.670436   2.085219   1.115914
    13  H    3.437934   2.614302   2.660151   2.090472   1.114557
    14  H    3.095721   2.720032   2.200074   3.391570   4.544985
    15  H    2.722480   2.872394   2.214834   2.664876   4.065719
    16  H    3.943264   3.419914   2.189057   2.760291   3.940489
                    6          7          8          9         10
     6  H    0.000000
     7  H    1.801463   0.000000
     8  H    1.809631   1.839883   0.000000
     9  C    3.939005   2.648629   3.099287   0.000000
    10  H    4.106584   3.683275   3.692810   2.167585   0.000000
    11  H    5.031343   5.303608   3.911832   4.459789   3.564756
    12  H    5.148165   5.245046   4.396846   3.932676   2.333016
    13  H    3.790960   4.425128   3.295516   4.139126   2.819856
    14  H    4.023644   2.587393   3.636623   1.114288   2.569699
    15  H    3.817260   2.363354   2.675915   1.113640   3.114751
    16  H    5.020218   3.749378   4.039212   1.114894   2.455808
                   11         12         13         14         15
    11  H    0.000000
    12  H    1.811460   0.000000
    13  H    1.810718   1.835439   0.000000
    14  H    5.418741   4.703302   4.830891   0.000000
    15  H    4.644371   4.538953   4.502236   1.811257   0.000000
    16  H    4.610771   3.960795   4.617731   1.796866   1.786041
                   16
    16  H    0.000000
 Stoichiometry    C4H10O2
 Framework group  C1[X(C4H10O2)]
 Deg. of freedom    42
 Full point group                 C1
 Largest Abelian subgroup         C1      NOp   1
 Largest concise Abelian subgroup C1      NOp   1
                         Standard orientation:                         
 ---------------------------------------------------------------------
 Center     Atomic     Atomic              Coordinates (Angstroms)
 Number     Number      Type              X           Y           Z
 ---------------------------------------------------------------------
    1          6      10061003       -1.484082   -1.219509   -0.358114
    2          8      10081003       -0.658554   -0.730488    0.684335
    3          6      10061003       -0.012790    0.506925    0.409329
    4          8      10081003        1.015490    0.267453   -0.542918
    5          6      10061003        2.144873   -0.388977    0.007084
    6          1      10011000       -1.793333   -2.256462   -0.088499
    7          1      10011000       -2.408077   -0.601361   -0.446272
    8          1      10011000       -0.930335   -1.256232   -1.325245
    9          6      10061003       -0.965910    1.594600   -0.109895
   10          1      10011000        0.442395    0.865261    1.367659
   11          1      10011000        2.882460   -0.546326   -0.814310
   12          1      10011000        2.617424    0.248298    0.791839
   13          1      10011000        1.859725   -1.382488    0.424055
   14          1      10011000       -1.845909    1.713707    0.563197
   15          1      10011000       -1.329396    1.383346   -1.141129
   16          1      10011000       -0.442990    2.578307   -0.153052
 ---------------------------------------------------------------------
 Rotational constants (GHZ):      4.7096987      2.9127660      2.1464381
 Standard basis: Dummy (5D, 7F)
 There are    16 symmetry adapted basis functions of A   symmetry.
 Integral buffers will be    262144 words long.
 Raffenetti 1 integral format.
 Two-electron integral symmetry is turned on.
    16 basis functions,    16 primitive gaussians,    16 cartesian basis functions
    11 alpha electrons       11 beta electrons
       nuclear repulsion energy        50.5122198802 Hartrees.
 NAtoms=   16 NActive=   16 NUniq=   16 SFac= 7.50D-01 NAtFMM=   80 NAOKFM=F Big=F
 Dreiding calculation of energy and first derivatives.
 MO and density RWFs will be updated without deorthogonalization.
 NRF= 0 NRA=   0 NVA=  16 HaveQM=F
 Convergence limit is  0.750E-04 MaxStp=  5000 StMxLn= 1.00D-04 StpMin= 1.00D-06.
 Convergence criteria           0.00011250 0.00007500 0.00045000 0.00030000
  Step  NS  ND Rises OKQ   Scale  Max. Force  RMS Force Max. Disp.  RMS Disp.     Energy   Flag
     1   0   0   F    T  1.00D+00 0.03396741 0.01105758 0.03396741 0.01105758    0.0289475 ----
     2   0   0   F    F  4.17D-01 0.03396741 0.01105758 0.03396741 0.01105758    0.0251619 ----
     3   0   0   F    T  3.13D+00 0.00983066 0.00461245 0.01127592 0.00499765    0.0248056 ----
     4   0   0   F    F -1.29D-01 0.00983066 0.00461245 0.03534002 0.01566320    0.0234427 ----
     5   0   0   F    T  2.69D+00 0.01508144 0.00379310 0.01226954 0.00508068    0.0234121 ----
     6   0   0   F    F  1.97D-01 0.01508144 0.00379310 0.03294698 0.01364298    0.0223354 ----
     7   0   0   F    T  3.63D+00 0.00865887 0.00304732 0.01137025 0.00450309    0.0223055 ----
     8   0   0   F    F -1.01D-01 0.00865887 0.00304732 0.04124372 0.01633420    0.0215878 ----
     9   0   0   F    T  4.36D+00 0.00725134 0.00224893 0.00857599 0.00336712    0.0215786 ----
    10   0   0   F    F  1.57D-01 0.00725134 0.00224893 0.03741085 0.01468829    0.0209792 ----
    11   0   0   F    T  4.25D+00 0.00523712 0.00222364 0.00835553 0.00399930    0.0209680 ----
    12   0   0   F    F -3.67D-01 0.00523712 0.00222364 0.03551638 0.01699963    0.0207559 ----
    13   0   0   F    T  3.58D+00 0.00475506 0.00173259 0.00781036 0.00300255    0.0206492 ----
    14   0   0   F    F  1.84D-01 0.00475506 0.00173259 0.02799316 0.01076144    0.0203526 ----
    15   0   0   F    T  9.40D+00 0.00214201 0.00095603 0.00371667 0.00135594    0.0203453 ----
    16   0   0   T    F  4.97D-01 0.00214201 0.00095603 0.03493619 0.01274565    0.0203470 ----
    17   0   0   F    T  2.24D+00 0.00330338 0.00129802 0.00667596 0.00282441    0.0202428 ----
    18   0   0   F    F  3.31D-01 0.00330338 0.00129802 0.01498704 0.00634060    0.0201295 ----
    19   0   0   F    T  7.62D+00 0.00194323 0.00070706 0.00257994 0.00110673    0.0201220 ----
    20   0   0   F    F -3.25D-01 0.00194323 0.00070706 0.01967098 0.00843833    0.0200746 ----
    21   0   0   F    T  3.60D+00 0.00205751 0.00078661 0.00389078 0.00158016    0.0200602 ----
    22   0   0   F    F -3.45D-01 0.00205751 0.00078661 0.01402301 0.00569516    0.0200349 ----
    23   0   0   F    T  3.61D+00 0.00150872 0.00057943 0.00222415 0.00103415    0.0200252 ----
    24   0   0   F    F  6.38D-01 0.00150872 0.00057943 0.00802287 0.00373037    0.0199848 ----
    25   0   0   F    T  3.77D+00 0.00189692 0.00068975 0.00304947 0.00161851    0.0199776 ----
    26   0   0   F    F -6.37D-02 0.00189692 0.00068975 0.01151010 0.00610900    0.0199374 ----
    27   0   0   F    T  3.04D+00 0.00191465 0.00071439 0.00442798 0.00187934    0.0199373 ----
    28   0   0   F    F  3.72D-01 0.00191465 0.00071439 0.01347648 0.00571974    0.0198899 ----
    29   0   0   F    T  3.08D+00 0.00262969 0.00080810 0.00662637 0.00254562    0.0198862 ----
    30   0   0   F    F  1.16D+00 0.00262969 0.00080810 0.02042376 0.00784609    0.0198119 ----
    31   0   0   F    T  6.90D+00 0.00189577 0.00077052 0.00660859 0.00245676    0.0197817 ----
    32   0   0   T    F  3.83D-01 0.00189577 0.00077052 0.04561078 0.01695593    0.0198419 ----
    33   0   0   F    T  3.13D+00 0.00198309 0.00068769 0.00590550 0.00207100    0.0197441 ----
    34   0   0   F    F  9.73D-01 0.00198309 0.00068769 0.01851201 0.00649198    0.0196910 ----
    35   0   0   F    T  4.30D+00 0.00187070 0.00080844 0.00867957 0.00297744    0.0196740 ----
    36   0   0   T    F  4.99D-01 0.00187070 0.00080844 0.03733061 0.01280589    0.0196744 ----
    37   0   0   F    T  3.46D+00 0.00129954 0.00061831 0.00559819 0.00184379    0.0196403 ----
    38   0   0   F    F  1.53D+00 0.00129954 0.00061831 0.01939062 0.00638639    0.0195895 ----
    39   0   0   F    T  6.96D+00 0.00185960 0.00067478 0.00766955 0.00231628    0.0195607 ----
    40   0   0   F    F -1.21D-01 0.00185960 0.00067478 0.05339653 0.01612625    0.0194949 ----
    41   0   0   F    T  3.74D+00 0.00276277 0.00084962 0.01226396 0.00379294    0.0194936 ----
    42   0   0   F    F -3.26D-01 0.00276277 0.00084962 0.04584130 0.01417760    0.0194601 ----
    43   0   0   F    T  4.22D+00 0.00163613 0.00065308 0.00671353 0.00226715    0.0194498 ----
    44   0   0   F    F  1.25D+00 0.00163613 0.00065308 0.02831254 0.00956111    0.0193828 ----
    45   0   0   F    F -6.15D-03 0.00163613 0.00065308 0.03529268 0.01191830    0.0193533 ----
    46   0   0   F    T  2.64D+00 0.00316559 0.00123397 0.02360838 0.00812226    0.0193533 ----
    47   0   0   F    F  2.50D-01 0.00316559 0.00123397 0.06221956 0.02140611    0.0192372 ----
    48   0   0   F    F -9.32D-03 0.00316559 0.00123397 0.01554669 0.00534871    0.0192324 ----
    49   0   0   F    T  4.99D+00 0.00270152 0.00100175 0.01461820 0.00534877    0.0192324 ----
    50   0   0   T    F  4.91D-01 0.00270152 0.00100175 0.07298460 0.02670494    0.0192377 ----
    51   0   0   F    T  6.43D+00 0.00149747 0.00061434 0.00519166 0.00203969    0.0191733 ----
    52   0   0   F    F  1.54D-01 0.00149747 0.00061434 0.03336755 0.01310939    0.0191075 ----
    53   0   0   F    T  3.68D+00 0.00264323 0.00086225 0.01056145 0.00410968    0.0191063 ----
    54   0   0   F    F -2.80D-01 0.00264323 0.00086225 0.03888748 0.01513195    0.0190661 ----
    55   0   0   F    T  7.03D+00 0.00133469 0.00050881 0.00381384 0.00155007    0.0190590 ----
    56   0   0   F    F -1.52D-01 0.00133469 0.00050881 0.02681399 0.01089810    0.0190230 ----
    57   0   0   F    T  3.74D+00 0.00138819 0.00063451 0.00678675 0.00246784    0.0190217 ----
    58   0   0   F    F -1.66D-01 0.00138819 0.00063451 0.02541613 0.00924195    0.0189927 ----
    59   0   0   F    T  3.54D+00 0.00145267 0.00059298 0.00641373 0.00217367    0.0189915 ----
    60   0   0   F    F  4.32D-01 0.00145267 0.00059298 0.02273061 0.00770360    0.0189528 ----
    61   0   0   F    T  7.91D+00 0.00101674 0.00045854 0.00371978 0.00139404    0.0189490 ----
    62   0   0   T    F  2.71D-01 0.00101674 0.00045854 0.02943935 0.01103284    0.0190162 ----
    63   0   0   F    T  3.34D+00 0.00109083 0.00035051 0.00229797 0.00089688    0.0189382 ----
    64   0   0   F    F  2.03D-01 0.00109083 0.00035051 0.00766452 0.00299140    0.0189267 ----
    65   0   0   F    T  8.33D+00 0.00083676 0.00022486 0.00103965 0.00043207    0.0189264 ----
    66   0   0   T    F  3.18D-01 0.00083676 0.00022486 0.00865605 0.00359740    0.0189380 ----
    67   0   0   F    T  5.88D+00 0.00031989 0.00013045 0.00045843 0.00019448    0.0189232 ---+
    68   0   0   F    F -4.39D-01 0.00031989 0.00013045 0.00269342 0.00114266    0.0189226 ----
    69   0   0   F    T  2.38D+00 0.00042552 0.00014154 0.00076287 0.00026906    0.0189218 ---+
    70   0   0   F    F  1.17D+00 0.00042552 0.00014154 0.00181658 0.00064070    0.0189201 ----
    71   0   0   F    T  4.80D+00 0.00041354 0.00013786 0.00084800 0.00028970    0.0189193 ---+
    72   0   0   F    F -2.80D-01 0.00041354 0.00013786 0.00406833 0.00138986    0.0189180 ----
    73   0   0   F    T  3.18D+00 0.00048112 0.00013632 0.00089594 0.00031447    0.0189178 ----
    74   0   0   F    F  1.50D-01 0.00048112 0.00013632 0.00285045 0.00100048    0.0189162 ----
    75   0   0   F    T  6.77D+00 0.00020684 0.00009185 0.00045033 0.00016998    0.0189161 ---+
    76   0   0   F    F -1.31D-01 0.00020684 0.00009185 0.00304706 0.00115013    0.0189150 ----
    77   0   0   F    T  1.86D+00 0.00052543 0.00015972 0.00141578 0.00053815    0.0189149 ----
    78   0   0   F    F  9.84D-01 0.00052543 0.00015972 0.00263074 0.00099998    0.0189132 ----
    79   0   0   F    T  7.16D+00 0.00028649 0.00011024 0.00086360 0.00027713    0.0189127 ---+
    80   0   0   F    F -3.31D-01 0.00028649 0.00011024 0.00618172 0.00198375    0.0189116 ----
    81   0   0   F    T  2.22D+00 0.00040804 0.00015892 0.00202597 0.00059746    0.0189113 ----
    82   0   0   F    F  1.51D+00 0.00040804 0.00015892 0.00449718 0.00132623    0.0189091 ----
    83   0   0   F    T  4.69D+00 0.00043764 0.00017065 0.00244198 0.00071056    0.0189079 ----
    84   0   0   F    F -2.90D-01 0.00043764 0.00017065 0.01145739 0.00333385    0.0189060 ----
    85   0   0   F    T  8.43D+00 0.00027209 0.00010401 0.00085910 0.00028078    0.0189056 ---+
    86   0   0   T    F  4.45D-01 0.00027209 0.00010401 0.00724544 0.00236804    0.0189061 ----
    87   0   0   F    T  3.48D+00 0.00036960 0.00010455 0.00082376 0.00030227    0.0189046 ----
    88   0   0   F    F -8.08D-02 0.00036960 0.00010455 0.00287005 0.00105312    0.0189038 ----
    89   0   0   F    T  3.37D+00 0.00027802 0.00009871 0.00066811 0.00028748    0.0189038 ---+
    90   0   0   F    F  5.81D-01 0.00027802 0.00009871 0.00224982 0.00096805    0.0189027 ----
    91   0   0   F    T  3.08D+00 0.00033186 0.00012743 0.00112737 0.00049665    0.0189025 ----
    92   0   0   F    F -6.55D-02 0.00033186 0.00012743 0.00347366 0.00153028    0.0189014 ----
    93   0   0   F    T  6.99D+00 0.00020957 0.00007855 0.00048899 0.00020451    0.0189014 ---+
    94   0   0   F    F -1.01D-01 0.00020957 0.00007855 0.00341911 0.00142999    0.0189005 ----
    95   0   0   F    T  8.63D+00 0.00018894 0.00006385 0.00035637 0.00014900    0.0189005 -+++
    96   0   0   T    F  2.42D-01 0.00018894 0.00006385 0.00307473 0.00128556    0.0189023 -+--
    97   0   0   F    T  3.40D+00 0.00012512 0.00004638 0.00022376 0.00009126    0.0189003 -+++
    98   0   0   F    F  1.38D+00 0.00012512 0.00004638 0.00076142 0.00031053    0.0189000 -+--
    99   0   0   F    T  4.48D+00 0.00017298 0.00006022 0.00043796 0.00016534    0.0188998 -+++
   100   0   0   F    F -2.40D-01 0.00017298 0.00006022 0.00196079 0.00074027    0.0188996 -+--
   101   0   0   F    T  4.02D+00 0.00011665 0.00005328 0.00043152 0.00014006    0.0188995 -+++
   102   0   0   F    F -2.76D-01 0.00011665 0.00005328 0.00173403 0.00056280    0.0188994 -+--
   103   0   0   F    T  3.31D+00 0.00017117 0.00004796 0.00043210 0.00012319    0.0188993 -+++
   104   0   0   F    F  3.62D-01 0.00017117 0.00004796 0.00142878 0.00040735    0.0188991 -+--
   105   0   0   F    T  5.45D+00 0.00010598 0.00004164 0.00035384 0.00010178    0.0188991 ====
 Energy=    0.018899091402 NIter=   0.
 Dipole moment=       0.000000       0.000000       0.000000
 ***** Axes restored to original set *****
 -------------------------------------------------------------------
 Center     Atomic                   Forces (Hartrees/Bohr)
 Number     Number              X              Y              Z
 -------------------------------------------------------------------
    1          6          -0.000006556    0.000016917   -0.000013880
    2          8           0.000092572    0.000009617   -0.000052439
    3          6          -0.000005624    0.000019726   -0.000107699
    4          8           0.000052214   -0.000024352    0.000008535
    5          6          -0.000021489   -0.000117054   -0.000053423
    6          1          -0.000053816    0.000031875    0.000001884
    7          1          -0.000008841    0.000039091    0.000066783
    8          1           0.000008789   -0.000066912    0.000029132
    9          6           0.000023614    0.000065383    0.000020656
   10          1          -0.000020940    0.000031170    0.000066274
   11          1          -0.000006258    0.000013931   -0.000046689
   12          1          -0.000009413   -0.000010003    0.000041566
   13          1           0.000026052   -0.000008504    0.000030148
   14          1          -0.000006661   -0.000019769    0.000020672
   15          1          -0.000012587    0.000040463   -0.000023354
   16          1          -0.000051054   -0.000021579    0.000011834
 -------------------------------------------------------------------
 Cartesian Forces:  Max     0.000117054 RMS     0.000041637

 GradGradGradGradGradGradGradGradGradGradGradGradGradGradGradGradGradGrad
 Berny optimization.
 Search for a local minimum.
 Step number   1 out of a maximum of   2
 All quantities printed in internal units (Hartrees-Bohrs-Radians)
 Second derivative matrix not updated -- unit matrix used.
 RFO step:  Lambda=-8.32148650D-08.
 Linear search not attempted -- first point.
 TrRot=  0.000000  0.000000  0.000000  0.000000  0.000000  0.000000
 Variable       Old X    -DE/DX   Delta X   Delta X   Delta X     New X
                                 (Linear)    (Quad)   (Total)
    X1        3.39495  -0.00001   0.00000  -0.00001  -0.00001   3.39494
    Y1       -0.66496   0.00002   0.00000   0.00002   0.00002  -0.66494
    Z1       -1.31786  -0.00001   0.00000  -0.00001  -0.00001  -1.31787
    X2        1.82251   0.00009   0.00000   0.00009   0.00009   1.82260
    Y2       -1.24356   0.00001   0.00000   0.00001   0.00001  -1.24355
    Z2        0.82326  -0.00005   0.00000  -0.00005  -0.00005   0.82320
    X3       -0.88106  -0.00001   0.00000  -0.00001  -0.00001  -0.88106
    Y3       -0.95161   0.00002   0.00000   0.00002   0.00002  -0.95159
    Z3        0.54809  -0.00011   0.00000  -0.00011  -0.00011   0.54799
    X4       -1.63140   0.00005   0.00000   0.00005   0.00005  -1.63135
    Y4        1.56556  -0.00002   0.00000  -0.00002  -0.00002   1.56553
    Z4       -0.19532   0.00001   0.00000   0.00001   0.00001  -0.19531
    X5       -1.10777  -0.00002   0.00000  -0.00002  -0.00002  -1.10779
    Y5        3.52920  -0.00012   0.00000  -0.00012  -0.00012   3.52908
    Z5        1.60903  -0.00005   0.00000  -0.00005  -0.00005   1.60897
    X6        5.36248  -0.00005   0.00000  -0.00005  -0.00005   5.36243
    Y6       -0.81274   0.00003   0.00000   0.00003   0.00003  -0.81271
    Z6       -0.72626   0.00000   0.00000   0.00000   0.00000  -0.72626
    X7        3.08709  -0.00001   0.00000  -0.00001  -0.00001   3.08708
    Y7       -2.00624   0.00004   0.00000   0.00004   0.00004  -2.00620
    Z7       -2.85230   0.00007   0.00000   0.00007   0.00007  -2.85223
    X8        3.06882   0.00001   0.00000   0.00001   0.00001   3.06883
    Y8        1.25330  -0.00007   0.00000  -0.00007  -0.00007   1.25323
    Z8       -2.00205   0.00003   0.00000   0.00003   0.00003  -2.00202
    X9       -2.04712   0.00002   0.00000   0.00002   0.00002  -2.04710
    Y9       -2.87502   0.00007   0.00000   0.00007   0.00007  -2.87495
    Z9       -1.31718   0.00002   0.00000   0.00002   0.00002  -1.31716
   X10       -1.70021  -0.00002   0.00000  -0.00002  -0.00002  -1.70023
   Y10       -1.37788   0.00003   0.00000   0.00003   0.00003  -1.37784
   Z10        2.39876   0.00007   0.00000   0.00007   0.00007   2.39882
   X11       -1.74612  -0.00001   0.00000  -0.00001  -0.00001  -1.74612
   Y11        5.32081   0.00001   0.00000   0.00001   0.00001   5.32082
   Z11        0.81854  -0.00005   0.00000  -0.00005  -0.00005   0.81850
   X12       -2.12522  -0.00001   0.00000  -0.00001  -0.00001  -2.12523
   Y12        3.20042  -0.00001   0.00000  -0.00001  -0.00001   3.20041
   Z12        3.37371   0.00004   0.00000   0.00004   0.00004   3.37376
   X13        0.91315   0.00003   0.00000   0.00003   0.00003   0.91317
   Y13        3.67517  -0.00001   0.00000  -0.00001  -0.00001   3.67517
   Z13        1.99607   0.00003   0.00000   0.00003   0.00003   1.99610
   X14       -1.42538  -0.00001   0.00000  -0.00001  -0.00001  -1.42539
   Y14       -4.78454  -0.00002   0.00000  -0.00002  -0.00002  -4.78456
   Z14       -0.84601   0.00002   0.00000   0.00002   0.00002  -0.84599
   X15       -1.48855  -0.00001   0.00000  -0.00001  -0.00001  -1.48856
   Y15       -2.44691   0.00004   0.00000   0.00004   0.00004  -2.44687
   Z15       -3.25474  -0.00002   0.00000  -0.00002  -0.00002  -3.25476
   X16       -4.10601  -0.00005   0.00000  -0.00005  -0.00005  -4.10606
   Y16       -2.80443  -0.00002   0.00000  -0.00002  -0.00002  -2.80445
   Z16       -1.20436   0.00001   0.00000   0.00001   0.00001  -1.20435
         Item               Value     Threshold  Converged?
 Maximum Force            0.000117     0.000450     YES
 RMS     Force            0.000042     0.000300     YES
 Maximum Displacement     0.000117     0.001800     YES
 RMS     Displacement     0.000042     0.001200     YES
 Predicted change in Energy=-4.160743D-08
 Optimization completed.
    -- Stationary point found.
 GradGradGradGradGradGradGradGradGradGradGradGradGradGradGradGradGradGrad

                          Input orientation:                          
 ---------------------------------------------------------------------
 Center     Atomic     Atomic              Coordinates (Angstroms)
 Number     Number      Type              X           Y           Z
 ---------------------------------------------------------------------
    1          6      10061003        1.796529   -0.351880   -0.697379
    2          8      10081003        0.964432   -0.658062    0.435648
    3          6      10061003       -0.466236   -0.503568    0.290039
    4          8      10081003       -0.863300    0.828457   -0.103359
    5          6      10061003       -0.586208    1.867572    0.851461
    6          1      10011000        2.837704   -0.430082   -0.384319
    7          1      10011000        1.633615   -1.061655   -1.509373
    8          1      10011000        1.623950    0.663216   -1.059441
    9          6      10061003       -1.083289   -1.521394   -0.697020
   10          1      10011000       -0.899714   -0.729140    1.269368
   11          1      10011000       -0.924006    2.815650    0.433155
   12          1      10011000       -1.124620    1.693588    1.785293
   13          1      10011000        0.483217    1.944818    1.056274
   14          1      10011000       -0.754278   -2.531868   -0.447690
   15          1      10011000       -0.787707   -1.294852   -1.722335
   16          1      10011000       -2.172808   -1.484039   -0.637322
 ---------------------------------------------------------------------
                    Distance matrix (angstroms):
                    1          2          3          4          5
     1  C    0.000000
     2  O    1.438708   0.000000
     3  C    2.473481   1.446334   0.000000
     4  O    2.969973   2.416789   1.444545   0.000000
     5  C    3.605871   2.992693   2.439650   1.438131   0.000000
     6  H    1.090031   2.057539   3.372859   3.919220   4.304595
     7  H    1.090713   2.096139   2.821120   3.432780   4.368240
     8  H    1.091463   2.101435   2.747974   2.669796   3.160193
     9  C    3.108233   2.494282   1.546289   2.433645   3.758986
    10  H    3.358592   2.043326   1.094473   2.076490   2.648744
    11  H    4.325813   3.953843   3.353691   2.059240   1.089926
    12  H    4.345194   3.422855   2.738019   2.093740   1.091879
    13  H    3.174099   2.718773   2.735539   2.098599   1.091598
    14  H    3.364715   2.691728   2.177432   3.379679   4.590328
    15  H    2.935644   2.851733   2.186120   2.671186   4.082395
    16  H    4.128078   3.416984   2.175709   2.710640   3.995882
                    6          7          8          9         10
     6  H    0.000000
     7  H    1.764783   0.000000
     8  H    1.767565   1.782614   0.000000
     9  C    4.082025   2.872776   3.497573   0.000000
    10  H    4.097853   3.774880   3.705521   2.127921   0.000000
    11  H    5.035226   5.034713   3.654162   4.484709   3.642166
    12  H    4.991713   5.104316   4.087642   4.061982   2.487242
    13  H    3.641300   4.116411   2.723972   4.188390   3.017940
    14  H    4.162193   2.998455   4.029736   1.091545   2.493845
    15  H    3.960015   2.441830   3.176405   1.090853   3.046778
    16  H    5.126409   3.927816   4.382267   1.091793   2.413734
                   11         12         13         14         15
    11  H    0.000000
    12  H    1.768486   0.000000
    13  H    1.768305   1.783179   0.000000
    14  H    5.422235   4.793521   4.882010   0.000000
    15  H    4.643375   4.620360   4.453243   1.776526   0.000000
    16  H    4.603559   4.130990   4.656158   1.773734   1.769618
                   16
    16  H    0.000000
 Stoichiometry    C4H10O2
 Framework group  C1[X(C4H10O2)]
 Deg. of freedom    42
 Full point group                 C1
 Largest Abelian subgroup         C1      NOp   1
 Largest concise Abelian subgroup C1      NOp   1
                         Standard orientation:                         
 ---------------------------------------------------------------------
 Center     Atomic     Atomic              Coordinates (Angstroms)
 Number     Number      Type              X           Y           Z
 ---------------------------------------------------------------------
    1          6      10061003       -1.302920   -1.436153   -0.377409
    2          8      10081003       -0.773395   -0.664708    0.715457
    3          6      10061003       -0.080008    0.566195    0.405659
    4          8      10081003        1.040254    0.385384   -0.488227
    5          6      10061003        2.127447   -0.401624    0.028348
    6          1      10011000       -1.702641   -2.366303    0.026586
    7          1      10011000       -2.116213   -0.907110   -0.875730
    8          1      10011000       -0.528676   -1.684712   -1.105459
    9          6      10061003       -1.014225    1.652121   -0.176587
   10          1      10011000        0.285847    0.959746    1.359146
   11          1      10011000        2.897458   -0.467714   -0.740192
   12          1      10011000        2.564310    0.068146    0.911901
   13          1      10011000        1.802999   -1.413904    0.276561
   14          1      10011000       -1.894316    1.768987    0.458435
   15          1      10011000       -1.336525    1.386236   -1.184251
   16          1      10011000       -0.488877    2.607991   -0.224899
 ---------------------------------------------------------------------
 Rotational constants (GHZ):      4.2153307      2.9905740      2.0780563
 1|1|UNPC-UNK|FOpt|Dreiding|ZDO|C4H10O2|PCUSER|13-Dec-2007|0||# opt dre
 iding||acetaldehyde dimethylacetal-g-g-||0,1|C,1.7965287244,-0.3518800
 042,-0.6973788399|O,0.964432026,-0.6580620207,0.4356478783|C,-0.466236
 1816,-0.5035679876,0.2900388347|O,-0.863299859,0.8284565597,-0.1033589
 397|C,-0.586208381,1.8675719163,0.8514606951|H,2.8377035872,-0.4300820
 194,-0.3843186504|H,1.633615086,-1.0616549728,-1.5093725785|H,1.623950
 4345,0.663215842,-1.0594410733|C,-1.083288971,-1.5213941531,-0.6970202
 473|H,-0.899713579,-0.7291400851,1.269367706|H,-0.9240062191,2.8156495
 929,0.4331552524|H,-1.1246198933,1.6935878885,1.7852928688|H,0.4832172
 678,1.9448181102,1.0562738497|H,-0.7542784629,-2.5318677396,-0.4476897
 815|H,-0.787707401,-1.2948515242,-1.7223345295|H,-2.172808178,-1.48403
 94028,-0.6373224448||Version=IA32W-G03RevD.01|HF=0.0188991|RMSD=0.000e
 +000|RMSF=4.164e-005|Thermal=0.|Dipole=0.,0.,0.|PG=C01 [X(C4H10O2)]||@


 The juvenile sea squirt wanders through the sea searching
 for a suitable rock or hunk of coral to cling to and make
 its home for life.  For this task it has a rudimentary
 nervous system.  When it finds its spot and takes root, it
 doesn't need its brain any more so it eats it.
 It's rather like getting tenure.

                               -- source unknown
 Job cpu time:  0 days  0 hours  0 minutes  3.0 seconds.
 File lengths (MBytes):  RWF=     11 Int=      0 D2E=      0 Chk=      4 Scr=      1
 Normal termination of Gaussian 03 at Thu Dec 13 16:36:34 2007.
