 Entering Link 1 = C:\G03W\l1.exe PID=      1704.
  
 Copyright (c) 1988,1990,1992,1993,1995,1998,2003,2004, Gaussian, Inc.
                  All Rights Reserved.
  
 This is the Gaussian(R) 03 program.  It is based on the
 the Gaussian(R) 98 system (copyright 1998, Gaussian, Inc.),
 the Gaussian(R) 94 system (copyright 1995, Gaussian, Inc.),
 the Gaussian 92(TM) system (copyright 1992, Gaussian, Inc.),
 the Gaussian 90(TM) system (copyright 1990, Gaussian, Inc.),
 the Gaussian 88(TM) system (copyright 1988, Gaussian, Inc.),
 the Gaussian 86(TM) system (copyright 1986, Carnegie Mellon
 University), and the Gaussian 82(TM) system (copyright 1983,
 Carnegie Mellon University). Gaussian is a federally registered
 trademark of Gaussian, Inc.
  
 This software contains proprietary and confidential information,
 including trade secrets, belonging to Gaussian, Inc.
  
 This software is provided under written license and may be
 used, copied, transmitted, or stored only in accord with that
 written license.
  
 The following legend is applicable only to US Government
 contracts under FAR:
  
                    RESTRICTED RIGHTS LEGEND
  
 Use, reproduction and disclosure by the US Government is
 subject to restrictions as set forth in subparagraphs (a)
 and (c) of the Commercial Computer Software - Restricted
 Rights clause in FAR 52.227-19.
  
 Gaussian, Inc.
 340 Quinnipiac St., Bldg. 40, Wallingford CT 06492
  
  
 ---------------------------------------------------------------
 Warning -- This program may not be used in any manner that
 competes with the business of Gaussian, Inc. or will provide
 assistance to any competitor of Gaussian, Inc.  The licensee
 of this program is prohibited from giving any competitor of
 Gaussian, Inc. access to this program.  By using this program,
 the user acknowledges that Gaussian, Inc. is engaged in the
 business of creating and licensing software in the field of
 computational chemistry and represents and warrants to the
 licensee that it is not a competitor of Gaussian, Inc. and that
 it will not use this program in any manner prohibited above.
 ---------------------------------------------------------------
  

 Cite this work as:
 Gaussian 03, Revision D.01,
 M. J. Frisch, G. W. Trucks, H. B. Schlegel, G. E. Scuseria, 
 M. A. Robb, J. R. Cheeseman, J. A. Montgomery, Jr., T. Vreven, 
 K. N. Kudin, J. C. Burant, J. M. Millam, S. S. Iyengar, J. Tomasi, 
 V. Barone, B. Mennucci, M. Cossi, G. Scalmani, N. Rega, 
 G. A. Petersson, H. Nakatsuji, M. Hada, M. Ehara, K. Toyota, 
 R. Fukuda, J. Hasegawa, M. Ishida, T. Nakajima, Y. Honda, O. Kitao, 
 H. Nakai, M. Klene, X. Li, J. E. Knox, H. P. Hratchian, J. B. Cross, 
 V. Bakken, C. Adamo, J. Jaramillo, R. Gomperts, R. E. Stratmann, 
 O. Yazyev, A. J. Austin, R. Cammi, C. Pomelli, J. W. Ochterski, 
 P. Y. Ayala, K. Morokuma, G. A. Voth, P. Salvador, J. J. Dannenberg, 
 V. G. Zakrzewski, S. Dapprich, A. D. Daniels, M. C. Strain, 
 O. Farkas, D. K. Malick, A. D. Rabuck, K. Raghavachari, 
 J. B. Foresman, J. V. Ortiz, Q. Cui, A. G. Baboul, S. Clifford, 
 J. Cioslowski, B. B. Stefanov, G. Liu, A. Liashenko, P. Piskorz, 
 I. Komaromi, R. L. Martin, D. J. Fox, T. Keith, M. A. Al-Laham, 
 C. Y. Peng, A. Nanayakkara, M. Challacombe, P. M. W. Gill, 
 B. Johnson, W. Chen, M. W. Wong, C. Gonzalez, and J. A. Pople, 
 Gaussian, Inc., Wallingford CT, 2004.
 
 ******************************************
 Gaussian 03:  IA32W-G03RevD.01 13-Oct-2005
                13-Dec-2007 
 ******************************************
 --------------
 # opt dreiding
 --------------
 1/6=10,10=10,14=-1,18=4000020,38=1,56=1,64=1/1,3;
 2/9=110,17=6,18=5,40=1/2;
 3/5=30,11=9,16=1,25=1,30=1/1;
 4/20=9,22=1001,24=3/2;
 7/44=-1/16;
 1/6=10,10=10,14=-1,18=4000020,64=1/3(2);
 2/9=110/2;
 99//99;
 2/9=110/2;
 3/5=30,11=9,16=1,25=1,30=1/1;
 4/16=2,20=9,22=1001,24=3/2;
 7/44=-1/16;
 1/6=10,10=10,14=-1,18=4000020,64=1/3(-4);
 2/9=110/2;
 99//99;
 ---------------------------------
 formaldehyde dimethylacetal-g ecl
 ---------------------------------
 Symbolic Z-matrix:
 Charge =  0 Multiplicity = 1
 C                     1.50731  -0.60807   0.82698 
 O                     0.93431  -0.97807  -0.41302 
 C                    -0.44169  -0.63507  -0.51102 
 O                    -0.60369   0.76793  -0.67602 
 C                    -1.29769   1.37093   0.40298 
 H                     2.56031  -0.97707   0.84198 
 H                     1.52331   0.50193   0.93098 
 H                     0.95131  -1.07907   1.67098 
 H                    -0.83269  -1.12707  -1.43702 
 H                    -1.01369  -1.04107   0.35998 
 H                    -1.34469   2.46893   0.21198 
 H                    -2.33769   0.97193   0.45598 
 H                    -0.75869   1.19593   1.36398 
 
 Include all MM classes
 MMInit generated parameter data with length LenPar=  1129.

 GradGradGradGradGradGradGradGradGradGradGradGradGradGradGradGradGradGrad
 Berny optimization.
 Initialization pass.
 No Z-matrix variables, so optimization will use Cartesian coordinates.
 Trust Radius=1.00D-01 FncErr=1.00D-07 GrdErr=1.00D-07
 Number of steps in this run=   2 maximum allowed number of steps=   2.
 GradGradGradGradGradGradGradGradGradGradGradGradGradGradGradGradGradGrad

                          Input orientation:                          
 ---------------------------------------------------------------------
 Center     Atomic     Atomic              Coordinates (Angstroms)
 Number     Number      Type              X           Y           Z
 ---------------------------------------------------------------------
    1          6      10061003        1.507310   -0.608071    0.826976
    2          8      10081003        0.934310   -0.978071   -0.413024
    3          6      10061003       -0.441690   -0.635071   -0.511024
    4          8      10081003       -0.603690    0.767929   -0.676024
    5          6      10061003       -1.297690    1.370929    0.402976
    6          1      10011000        2.560310   -0.977071    0.841976
    7          1      10011000        1.523310    0.501929    0.930976
    8          1      10011000        0.951310   -1.079071    1.670976
    9          1      10011000       -0.832690   -1.127071   -1.437024
   10          1      10011000       -1.013690   -1.041071    0.359976
   11          1      10011000       -1.344690    2.468929    0.211976
   12          1      10011000       -2.337690    0.971929    0.455976
   13          1      10011000       -0.758690    1.195929    1.363976
 ---------------------------------------------------------------------
                    Distance matrix (angstroms):
                    1          2          3          4          5
     1  C    0.000000
     2  O    1.415213   0.000000
     3  C    2.364228   1.421488   0.000000
     4  O    2.934060   2.341608   1.421928   0.000000
     5  C    3.458937   3.341479   2.364777   1.417563   0.000000
     6  H    1.115883   2.053997   3.310525   3.919215   4.537619
     7  H    1.114976   2.084144   2.689490   2.679055   2.998664
     8  H    1.115039   2.086515   2.626539   3.367171   3.559259
     9  H    3.297068   2.047698   1.119116   2.054893   3.137169
    10  H    2.600196   2.096712   1.118330   2.124589   2.429043
    11  H    4.240290   4.179267   3.312545   2.056946   1.115479
    12  H    4.173496   3.906872   2.666900   2.080816   1.115173
    13  H    2.945767   3.278758   2.639825   2.090170   1.115646
                    6          7          8          9         10
     6  H    0.000000
     7  H    1.808516   0.000000
     8  H    1.812878   1.836939   0.000000
     9  H    4.090084   3.716423   3.583940   0.000000
    10  H    3.606923   3.023782   2.362497   1.808139   0.000000
    11  H    5.246031   3.551264   4.470861   3.989055   3.528678
    12  H    5.285641   3.918398   4.062062   3.202230   2.411299
    13  H    4.001272   2.424180   2.862512   3.639699   2.465200
                   11         12         13
    11  H    0.000000
    12  H    1.812897   0.000000
    13  H    1.814119   1.835179   0.000000
 Stoichiometry    C3H8O2
 Framework group  C1[X(C3H8O2)]
 Deg. of freedom    33
 Full point group                 C1
 Largest Abelian subgroup         C1      NOp   1
 Largest concise Abelian subgroup C1      NOp   1
                         Standard orientation:                         
 ---------------------------------------------------------------------
 Center     Atomic     Atomic              Coordinates (Angstroms)
 Number     Number      Type              X           Y           Z
 ---------------------------------------------------------------------
    1          6      10061003        1.622519    0.832259    0.019988
    2          8      10081003        1.299112   -0.532225   -0.170854
    3          6      10061003        0.009157   -0.869317    0.322112
    4          8      10081003       -1.008509   -0.347469   -0.522819
    5          6      10061003       -1.827386    0.607959    0.129932
    6          1      10011000        2.670931    0.988320   -0.328828
    7          1      10011000        0.950060    1.479220   -0.590267
    8          1      10011000        1.561293    1.101469    1.100307
    9          1      10011000       -0.068864   -1.985190    0.288059
   10          1      10011000       -0.102712   -0.550674    1.388233
   11          1      10011000       -2.567488    0.991478   -0.611321
   12          1      10011000       -2.379387    0.124572    0.969718
   13          1      10011000       -1.214401    1.462952    0.501288
 ---------------------------------------------------------------------
 Rotational constants (GHZ):      9.8296526      3.3517421      2.8182583
 Standard basis: Dummy (5D, 7F)
 There are    13 symmetry adapted basis functions of A   symmetry.
 Integral buffers will be    262144 words long.
 Raffenetti 1 integral format.
 Two-electron integral symmetry is turned on.
    13 basis functions,    13 primitive gaussians,    13 cartesian basis functions
     9 alpha electrons        9 beta electrons
       nuclear repulsion energy        35.9134324460 Hartrees.
 NAtoms=   13 NActive=   13 NUniq=   13 SFac= 7.50D-01 NAtFMM=   80 NAOKFM=F Big=F
 Dreiding calculation of energy and first derivatives.
 MO and density RWFs will be updated without deorthogonalization.
 NRF= 0 NRA=   0 NVA=  13 HaveQM=F
 Convergence limit is  0.750E-04 MaxStp=  5000 StMxLn= 1.00D-04 StpMin= 1.00D-06.
 Convergence criteria           0.00011250 0.00007500 0.00045000 0.00030000
  Step  NS  ND Rises OKQ   Scale  Max. Force  RMS Force Max. Disp.  RMS Disp.     Energy   Flag
     1   0   0   F    T  1.00D+00 0.02380306 0.01044569 0.02380306 0.01044569    0.0247239 ----
     2   0   0   F    F  4.80D-01 0.02380306 0.01044569 0.02380306 0.01044569    0.0219102 ----
     3   0   0   F    T  3.67D+00 0.01024522 0.00393792 0.01197645 0.00420846    0.0215802 ----
     4   0   0   F    F  2.42D-01 0.01024522 0.00393792 0.04399853 0.01546084    0.0202556 ----
     5   0   0   F    T  5.44D+00 0.00667715 0.00280813 0.01222549 0.00353085    0.0202035 ----
     6   0   0   F    F -4.42D-01 0.00667715 0.00280813 0.06648492 0.01920158    0.0200259 ----
     7   0   0   F    T  2.41D+00 0.01136193 0.00277892 0.01361502 0.00445346    0.0197388 ----
     8   0   0   F    F  4.47D-01 0.01136193 0.00277892 0.03275998 0.01071575    0.0192658 ----
     9   0   0   F    T  6.96D+00 0.00396520 0.00160520 0.00451182 0.00222778    0.0192161 ----
    10   0   0   F    F -2.36D-01 0.00396520 0.00160520 0.03140699 0.01550770    0.0189746 ----
    11   0   0   F    T  2.86D+00 0.00652306 0.00203646 0.00884311 0.00414857    0.0189494 ----
    12   0   0   F    F -1.26D-01 0.00652306 0.00203646 0.02527093 0.01185536    0.0187516 ----
    13   0   0   F    T  7.07D+00 0.00318649 0.00101744 0.00364941 0.00146456    0.0187474 ----
    14   0   0   F    F -2.40D-01 0.00318649 0.00101744 0.02581529 0.01036006    0.0186499 ----
    15   0   0   F    T  4.82D+00 0.00224890 0.00096211 0.00431248 0.00163421    0.0186392 ----
    16   0   0   F    F -3.98D-01 0.00224890 0.00096211 0.02078223 0.00787543    0.0186097 ----
    17   0   0   F    T  2.64D+00 0.00224285 0.00093058 0.00459499 0.00179794    0.0185869 ----
    18   0   0   F    F  4.87D-01 0.00224285 0.00093058 0.01211466 0.00474026    0.0185278 ----
    19   0   0   F    T  1.66D+01 0.00126381 0.00034305 0.00116755 0.00042456    0.0185207 ----
    20   0   0   T    F  1.17D-01 0.00126381 0.00034305 0.01938108 0.00704757    0.0187719 ----
    21   0   0   F    T  2.17D+00 0.00058539 0.00027072 0.00120143 0.00037835    0.0185162 ----
    22   0   0   F    F  1.45D+00 0.00058539 0.00027072 0.00261290 0.00082285    0.0185113 ----
    23   0   0   F    T  1.02D+01 0.00042896 0.00015492 0.00055826 0.00019825    0.0185086 ---+
    24   0   0   T    F  2.63D-01 0.00042896 0.00015492 0.00568336 0.00201835    0.0185172 ----
    25   0   0   F    T  2.12D+00 0.00039436 0.00015422 0.00063256 0.00024985    0.0185074 ---+
    26   0   0   F    F  4.01D+00 0.00039436 0.00015422 0.00134379 0.00053077    0.0185056 ----
    27   0   0   F    T  7.79D+00 0.00047044 0.00016801 0.00084464 0.00034114    0.0185024 ----
    28   0   0   T    F  4.62D-01 0.00047044 0.00016801 0.00658217 0.00265844    0.0185031 ----
    29   0   0   F    T  3.61D+00 0.00037188 0.00015795 0.00076904 0.00034061    0.0185005 ----
    30   0   0   F    F -2.75D-01 0.00037188 0.00015795 0.00277373 0.00122848    0.0184994 ----
    31   0   0   F    T  4.41D+00 0.00022132 0.00011112 0.00047242 0.00020190    0.0184992 ---+
    32   0   0   F    F  9.82D-01 0.00022132 0.00011112 0.00208455 0.00089087    0.0184976 ----
    33   0   0   F    T  4.64D+00 0.00038845 0.00014651 0.00082001 0.00038050    0.0184971 ----
    34   0   0   T    F  4.66D-01 0.00038845 0.00014651 0.00380434 0.00176529    0.0184974 ----
    35   0   0   F    T  3.19D+00 0.00029707 0.00011432 0.00056379 0.00025813    0.0184962 ---+
    36   0   0   F    F  2.56D+00 0.00029707 0.00011432 0.00179843 0.00082340    0.0184948 ----
    37   0   0   F    T  6.50D+00 0.00036296 0.00014683 0.00095772 0.00045067    0.0184933 ----
    38   0   0   T    F  4.37D-01 0.00036296 0.00014683 0.00622869 0.00293101    0.0184941 ----
    39   0   0   F    T  2.79D+00 0.00047144 0.00014423 0.00097853 0.00045826    0.0184921 ----
    40   0   0   F    F  4.66D-01 0.00047144 0.00014423 0.00273303 0.00127991    0.0184906 ----
    41   0   0   F    T  4.65D+00 0.00042452 0.00013135 0.00091868 0.00040344    0.0184904 ----
    42   0   0   F    F  5.78D-01 0.00042452 0.00013135 0.00427311 0.00187657    0.0184883 ----
    43   0   0   F    T  2.33D+00 0.00064877 0.00023108 0.00285607 0.00127218    0.0184880 ----
    44   0   0   F    F  4.75D-01 0.00064877 0.00023108 0.00664855 0.00296148    0.0184847 ----
    45   0   0   F    T  1.64D+01 0.00024508 0.00010069 0.00061119 0.00026612    0.0184844 ---+
    46   0   0   T    F  4.07D-01 0.00024508 0.00010069 0.01003281 0.00436848    0.0184858 ----
    47   0   0   F    T  3.30D+00 0.00044062 0.00014073 0.00125480 0.00053845    0.0184831 ----
    48   0   0   F    F -2.81D-01 0.00044062 0.00014073 0.00414598 0.00177908    0.0184823 ----
    49   0   0   F    T  1.26D+01 0.00012315 0.00005585 0.00023890 0.00010137    0.0184821 -+++
    50   0   0   F    F -2.52D-01 0.00012315 0.00005585 0.00301514 0.00127937    0.0184816 -+--
    51   0   0   F    T  3.26D+00 0.00029661 0.00009257 0.00072808 0.00029342    0.0184816 ---+
    52   0   0   F    F -1.62D-01 0.00029661 0.00009257 0.00237439 0.00095689    0.0184811 ----
    53   0   0   F    T  2.95D+00 0.00020053 0.00008665 0.00069610 0.00027173    0.0184811 ---+
    54   0   0   F    F  8.11D-01 0.00020053 0.00008665 0.00205407 0.00080183    0.0184805 ----
    55   0   0   F    T  7.32D+00 0.00022851 0.00007134 0.00047501 0.00019826    0.0184803 -+-+
    56   0   0   F    F -4.59D-02 0.00022851 0.00007134 0.00347903 0.00145208    0.0184796 -+--
    57   0   0   F    T  2.01D+00 0.00039877 0.00013168 0.00173108 0.00068826    0.0184796 ----
    58   0   0   F    F  8.80D-01 0.00039877 0.00013168 0.00348454 0.00138543    0.0184786 ----
    59   0   0   F    T  9.47D+00 0.00021811 0.00008178 0.00071372 0.00027488    0.0184783 ---+
    60   0   0   T    F  4.08D-01 0.00021811 0.00008178 0.00676133 0.00260404    0.0184789 ----
    61   0   0   F    T  4.04D+00 0.00018750 0.00007804 0.00057285 0.00026285    0.0184778 ---+
    62   0   0   F    F -3.97D-01 0.00018750 0.00007804 0.00231594 0.00106269    0.0184777 ----
    63   0   0   F    T  4.79D+00 0.00011036 0.00005319 0.00032142 0.00013376    0.0184776 ====
 Energy=    0.018477554389 NIter=   0.
 Dipole moment=       0.000000       0.000000       0.000000
 ***** Axes restored to original set *****
 -------------------------------------------------------------------
 Center     Atomic                   Forces (Hartrees/Bohr)
 Number     Number              X              Y              Z
 -------------------------------------------------------------------
    1          6          -0.000027716    0.000028753    0.000035404
    2          8          -0.000054177   -0.000038106   -0.000092141
    3          6           0.000040726    0.000000673   -0.000010921
    4          8           0.000021909   -0.000013389   -0.000100114
    5          6          -0.000009431    0.000010022    0.000031435
    6          1           0.000058851   -0.000005642   -0.000007192
    7          1          -0.000069286   -0.000025211   -0.000067184
    8          1           0.000081423   -0.000028895    0.000108176
    9          1           0.000034321    0.000036831    0.000021748
   10          1          -0.000019349   -0.000031756    0.000067108
   11          1           0.000030106    0.000146010    0.000012877
   12          1          -0.000067168   -0.000031747   -0.000066133
   13          1          -0.000020209   -0.000047543    0.000066937
 -------------------------------------------------------------------
 Cartesian Forces:  Max     0.000146010 RMS     0.000053194

 GradGradGradGradGradGradGradGradGradGradGradGradGradGradGradGradGradGrad
 Berny optimization.
 Search for a local minimum.
 Step number   1 out of a maximum of   2
 All quantities printed in internal units (Hartrees-Bohrs-Radians)
 Second derivative matrix not updated -- unit matrix used.
 RFO step:  Lambda=-1.10354183D-07.
 Linear search not attempted -- first point.
 TrRot=  0.000000  0.000000  0.000000  0.000000  0.000000  0.000000
 Variable       Old X    -DE/DX   Delta X   Delta X   Delta X     New X
                                 (Linear)    (Quad)   (Total)
    X1        2.94882  -0.00003   0.00000  -0.00003  -0.00003   2.94879
    Y1       -1.18502   0.00003   0.00000   0.00003   0.00003  -1.18499
    Z1        1.58370   0.00004   0.00000   0.00004   0.00004   1.58373
    X2        1.76031  -0.00005   0.00000  -0.00005  -0.00005   1.76025
    Y2       -1.93535  -0.00004   0.00000  -0.00004  -0.00004  -1.93538
    Z2       -0.73864  -0.00009   0.00000  -0.00009  -0.00009  -0.73873
    X3       -0.85996   0.00004   0.00000   0.00004   0.00004  -0.85992
    Y3       -1.25576   0.00000   0.00000   0.00000   0.00000  -1.25576
    Z3       -0.98750  -0.00001   0.00000  -0.00001  -0.00001  -0.98751
    X4       -1.17663   0.00002   0.00000   0.00002   0.00002  -1.17661
    Y4        1.44241  -0.00001   0.00000  -0.00001  -0.00001   1.44239
    Z4       -1.21798  -0.00010   0.00000  -0.00010  -0.00010  -1.21808
    X5       -2.54023  -0.00001   0.00000  -0.00001  -0.00001  -2.54024
    Y5        2.66862   0.00001   0.00000   0.00001   0.00001   2.66863
    Z5        0.78404   0.00003   0.00000   0.00003   0.00003   0.78407
    X6        4.87375   0.00006   0.00000   0.00006   0.00006   4.87381
    Y6       -1.91764  -0.00001   0.00000  -0.00001  -0.00001  -1.91765
    Z6        1.58917  -0.00001   0.00000  -0.00001  -0.00001   1.58916
    X7        3.04128  -0.00007   0.00000  -0.00007  -0.00007   3.04121
    Y7        0.86965  -0.00003   0.00000  -0.00003  -0.00003   0.86963
    Z7        1.73947  -0.00007   0.00000  -0.00007  -0.00007   1.73940
    X8        1.95469   0.00008   0.00000   0.00008   0.00008   1.95477
    Y8       -1.96124  -0.00003   0.00000  -0.00003  -0.00003  -1.96127
    Z8        3.21728   0.00011   0.00000   0.00011   0.00011   3.21739
    X9       -1.51580   0.00003   0.00000   0.00003   0.00003  -1.51577
    Y9       -2.07960   0.00004   0.00000   0.00004   0.00004  -2.07956
    Z9       -2.75867   0.00002   0.00000   0.00002   0.00002  -2.75865
   X10       -1.98067  -0.00002   0.00000  -0.00002  -0.00002  -1.98069
   Y10       -2.11623  -0.00003   0.00000  -0.00003  -0.00003  -2.11626
   Z10        0.52601   0.00007   0.00000   0.00007   0.00007   0.52608
   X11       -2.61038   0.00003   0.00000   0.00003   0.00003  -2.61035
   Y11        4.68709   0.00015   0.00000   0.00015   0.00015   4.68723
   Z11        0.38177   0.00001   0.00000   0.00001   0.00001   0.38179
   X12       -4.47446  -0.00007   0.00000  -0.00007  -0.00007  -4.47452
   Y12        1.95849  -0.00003   0.00000  -0.00003  -0.00003   1.95846
   Z12        0.89387  -0.00007   0.00000  -0.00007  -0.00007   0.89381
   X13       -1.60142  -0.00002   0.00000  -0.00002  -0.00002  -1.60144
   Y13        2.39697  -0.00005   0.00000  -0.00005  -0.00005   2.39692
   Z13        2.60060   0.00007   0.00000   0.00007   0.00007   2.60066
         Item               Value     Threshold  Converged?
 Maximum Force            0.000146     0.000450     YES
 RMS     Force            0.000053     0.000300     YES
 Maximum Displacement     0.000146     0.001800     YES
 RMS     Displacement     0.000053     0.001200     YES
 Predicted change in Energy=-5.517708D-08
 Optimization completed.
    -- Stationary point found.
 GradGradGradGradGradGradGradGradGradGradGradGradGradGradGradGradGradGrad

                          Input orientation:                          
 ---------------------------------------------------------------------
 Center     Atomic     Atomic              Coordinates (Angstroms)
 Number     Number      Type              X           Y           Z
 ---------------------------------------------------------------------
    1          6      10061003        1.560449   -0.627086    0.838056
    2          8      10081003        0.931515   -1.024141   -0.390871
    3          6      10061003       -0.455072   -0.664519   -0.522562
    4          8      10081003       -0.622646    0.763289   -0.644527
    5          6      10061003       -1.344233    1.412172    0.414896
    6          1      10011000        2.579076   -1.014771    0.840953
    7          1      10011000        1.609376    0.460199    0.920486
    8          1      10011000        1.034379   -1.037844    1.702514
    9          1      10011000       -0.802129   -1.100475   -1.459825
   10          1      10011000       -1.048126   -1.119860    0.278352
   11          1      10011000       -1.381352    2.480301    0.202025
   12          1      10011000       -2.367781    1.036387    0.473017
   13          1      10011000       -0.847432    1.268419    1.376177
 ---------------------------------------------------------------------
                    Distance matrix (angstroms):
                    1          2          3          4          5
     1  C    0.000000
     2  O    1.436479   0.000000
     3  C    2.432079   1.438505   0.000000
     4  O    2.982801   2.382155   1.442772   0.000000
     5  C    3.574188   3.429856   2.445829   1.436703   0.000000
     6  H    1.089912   2.057166   3.344832   3.952109   4.632918
     7  H    1.091503   2.093423   2.758501   2.742819   3.144150
     8  H    1.092134   2.095956   2.703479   3.390931   3.649429
     9  H    3.329584   2.038139   1.090398   2.042190   3.181486
    10  H    2.713072   2.091890   1.095679   2.139857   2.552942
    11  H    4.326035   4.240518   3.357515   2.059227   1.089766
    12  H    4.281517   3.984650   2.746400   2.090211   1.091899
    13  H    3.111335   3.397491   2.737774   2.094977   1.091575
                    6          7          8          9         10
     6  H    0.000000
     7  H    1.766969   0.000000
     8  H    1.768872   1.785027   0.000000
     9  H    4.090656   3.730542   3.657468   0.000000
    10  H    3.672078   3.157728   2.524241   1.755605   0.000000
    11  H    5.320596   3.679871   4.523777   3.989887   3.616355
    12  H    5.367869   4.043514   4.169987   3.279226   2.535505
    13  H    4.152154   2.626173   2.994422   3.695486   2.636167
                   11         12         13
    11  H    0.000000
    12  H    1.769566   0.000000
    13  H    1.769847   1.783535   0.000000
 Stoichiometry    C3H8O2
 Framework group  C1[X(C3H8O2)]
 Deg. of freedom    33
 Full point group                 C1
 Largest Abelian subgroup         C1      NOp   1
 Largest concise Abelian subgroup C1      NOp   1
                         Standard orientation:                         
 ---------------------------------------------------------------------
 Center     Atomic     Atomic              Coordinates (Angstroms)
 Number     Number      Type              X           Y           Z
 ---------------------------------------------------------------------
    1          6      10061003        1.668840    0.854482    0.022465
    2          8      10081003        1.327640   -0.529747   -0.153499
    3          6      10061003        0.016657   -0.908254    0.301860
    4          8      10081003       -1.017608   -0.324081   -0.517059
    5          6      10061003       -1.895075    0.608156    0.134940
    6          1      10011000        2.701452    0.994729   -0.296833
    7          1      10011000        1.032680    1.496388   -0.589611
    8          1      10011000        1.590322    1.151225    1.070576
    9          1      10011000       -0.057394   -1.988618    0.174203
   10          1      10011000       -0.091153   -0.706916    1.373472
   11          1      10011000       -2.610531    0.978339   -0.599007
   12          1      10011000       -2.448270    0.120876    0.940406
   13          1      10011000       -1.339890    1.458289    0.535663
 ---------------------------------------------------------------------
 Rotational constants (GHZ):      9.6757857      3.2004090      2.6837349
 1|1|UNPC-UNK|FOpt|Dreiding|ZDO|C3H8O2|PCUSER|13-Dec-2007|0||# opt drei
 ding||formaldehyde dimethylacetal-g ecl||0,1|C,1.5604489304,-0.6270863
 716,0.8380563601|O,0.9315154108,-1.0241408291,-0.3908712149|C,-0.45507
 21898,-0.6645185378,-0.5225621151|O,-0.6226460032,0.763288669,-0.64452
 70985|C,-1.3442328458,1.4121723118,0.4148961255|H,2.5790757148,-1.0147
 711918,0.8409528312|H,1.6093764276,0.4601994801,0.9204861865|H,1.03437
 9134,-1.0378437586,1.7025137994|H,-0.8021293766,-1.1004752696,-1.45982
 46401|H,-1.0481264516,-1.1198603716,0.2783516655|H,-1.3813515307,2.480
 3006173,0.202025294|H,-2.3677810422,1.0363871642,0.4730166785|H,-0.847
 4324176,1.2684194976,1.3761765979||Version=IA32W-G03RevD.01|HF=0.01847
 76|RMSD=0.000e+000|RMSF=5.319e-005|Thermal=0.|Dipole=0.,0.,0.|PG=C01 [
 X(C3H8O2)]||@


 The juvenile sea squirt wanders through the sea searching
 for a suitable rock or hunk of coral to cling to and make
 its home for life.  For this task it has a rudimentary
 nervous system.  When it finds its spot and takes root, it
 doesn't need its brain any more so it eats it.
 It's rather like getting tenure.

                               -- source unknown
 Job cpu time:  0 days  0 hours  0 minutes  3.0 seconds.
 File lengths (MBytes):  RWF=     11 Int=      0 D2E=      0 Chk=      4 Scr=      1
 Normal termination of Gaussian 03 at Thu Dec 13 16:37:06 2007.
