 Entering Link 1 = C:\G03W\l1.exe PID=      3268.
  
 Copyright (c) 1988,1990,1992,1993,1995,1998,2003,2004, Gaussian, Inc.
                  All Rights Reserved.
  
 This is the Gaussian(R) 03 program.  It is based on the
 the Gaussian(R) 98 system (copyright 1998, Gaussian, Inc.),
 the Gaussian(R) 94 system (copyright 1995, Gaussian, Inc.),
 the Gaussian 92(TM) system (copyright 1992, Gaussian, Inc.),
 the Gaussian 90(TM) system (copyright 1990, Gaussian, Inc.),
 the Gaussian 88(TM) system (copyright 1988, Gaussian, Inc.),
 the Gaussian 86(TM) system (copyright 1986, Carnegie Mellon
 University), and the Gaussian 82(TM) system (copyright 1983,
 Carnegie Mellon University). Gaussian is a federally registered
 trademark of Gaussian, Inc.
  
 This software contains proprietary and confidential information,
 including trade secrets, belonging to Gaussian, Inc.
  
 This software is provided under written license and may be
 used, copied, transmitted, or stored only in accord with that
 written license.
  
 The following legend is applicable only to US Government
 contracts under FAR:
  
                    RESTRICTED RIGHTS LEGEND
  
 Use, reproduction and disclosure by the US Government is
 subject to restrictions as set forth in subparagraphs (a)
 and (c) of the Commercial Computer Software - Restricted
 Rights clause in FAR 52.227-19.
  
 Gaussian, Inc.
 340 Quinnipiac St., Bldg. 40, Wallingford CT 06492
  
  
 ---------------------------------------------------------------
 Warning -- This program may not be used in any manner that
 competes with the business of Gaussian, Inc. or will provide
 assistance to any competitor of Gaussian, Inc.  The licensee
 of this program is prohibited from giving any competitor of
 Gaussian, Inc. access to this program.  By using this program,
 the user acknowledges that Gaussian, Inc. is engaged in the
 business of creating and licensing software in the field of
 computational chemistry and represents and warrants to the
 licensee that it is not a competitor of Gaussian, Inc. and that
 it will not use this program in any manner prohibited above.
 ---------------------------------------------------------------
  

 Cite this work as:
 Gaussian 03, Revision D.01,
 M. J. Frisch, G. W. Trucks, H. B. Schlegel, G. E. Scuseria, 
 M. A. Robb, J. R. Cheeseman, J. A. Montgomery, Jr., T. Vreven, 
 K. N. Kudin, J. C. Burant, J. M. Millam, S. S. Iyengar, J. Tomasi, 
 V. Barone, B. Mennucci, M. Cossi, G. Scalmani, N. Rega, 
 G. A. Petersson, H. Nakatsuji, M. Hada, M. Ehara, K. Toyota, 
 R. Fukuda, J. Hasegawa, M. Ishida, T. Nakajima, Y. Honda, O. Kitao, 
 H. Nakai, M. Klene, X. Li, J. E. Knox, H. P. Hratchian, J. B. Cross, 
 V. Bakken, C. Adamo, J. Jaramillo, R. Gomperts, R. E. Stratmann, 
 O. Yazyev, A. J. Austin, R. Cammi, C. Pomelli, J. W. Ochterski, 
 P. Y. Ayala, K. Morokuma, G. A. Voth, P. Salvador, J. J. Dannenberg, 
 V. G. Zakrzewski, S. Dapprich, A. D. Daniels, M. C. Strain, 
 O. Farkas, D. K. Malick, A. D. Rabuck, K. Raghavachari, 
 J. B. Foresman, J. V. Ortiz, Q. Cui, A. G. Baboul, S. Clifford, 
 J. Cioslowski, B. B. Stefanov, G. Liu, A. Liashenko, P. Piskorz, 
 I. Komaromi, R. L. Martin, D. J. Fox, T. Keith, M. A. Al-Laham, 
 C. Y. Peng, A. Nanayakkara, M. Challacombe, P. M. W. Gill, 
 B. Johnson, W. Chen, M. W. Wong, C. Gonzalez, and J. A. Pople, 
 Gaussian, Inc., Wallingford CT, 2004.
 
 ******************************************
 Gaussian 03:  IA32W-G03RevD.01 13-Oct-2005
                18-Mar-2008 
 ******************************************
 --------------
 # opt dreiding
 --------------
 1/6=10,10=10,14=-1,18=4000020,38=1,56=1,64=1/1,3;
 2/9=110,17=6,18=5,40=1/2;
 3/5=30,11=9,16=1,25=1,30=1/1;
 4/20=9,22=1001,24=3/2;
 7/44=-1/16;
 1/6=10,10=10,14=-1,18=4000020,64=1/3(2);
 2/9=110/2;
 99//99;
 2/9=110/2;
 3/5=30,11=9,16=1,25=1,30=1/1;
 4/16=2,20=9,22=1001,24=3/2;
 7/44=-1/16;
 1/6=10,10=10,14=-1,18=4000020,64=1/3(-4);
 2/9=110/2;
 99//99;
 -----------------
 glycolic acid-cis
 -----------------
 Symbolic Z-matrix:
 Charge =  0 Multiplicity = 1
 C                     0.14178  -0.53875   0.00013 
 C                     0.23878   0.97725  -0.00188 
 O                     1.37078  -1.09275  -0.00388 
 O                    -0.86223  -1.21275   0.00413 
 O                    -1.03222   1.58725   0.00213 
 H                     0.78478   1.32625   0.90713 
 H                     0.77878   1.32525  -0.91388 
 H                     1.25278  -2.05775  -0.00288 
 H                    -0.91023   2.52125   0.00113 
 
 I=    3 IAn=  8 Valence=24.
          JB=  1 J=    1 IAn=  6 IBT=12 Dist= 1.35D+00
          JB=  2 J=    8 IAn=  1 IBT= 1 Dist= 9.72D-01
 Include all MM classes
 MMInit generated parameter data with length LenPar=   777.

 GradGradGradGradGradGradGradGradGradGradGradGradGradGradGradGradGradGrad
 Berny optimization.
 Initialization pass.
 No Z-matrix variables, so optimization will use Cartesian coordinates.
 Trust Radius=1.00D-01 FncErr=1.00D-07 GrdErr=1.00D-07
 Number of steps in this run=   2 maximum allowed number of steps=   2.
 GradGradGradGradGradGradGradGradGradGradGradGradGradGradGradGradGradGrad

                          Input orientation:                          
 ---------------------------------------------------------------------
 Center     Atomic     Atomic              Coordinates (Angstroms)
 Number     Number      Type              X           Y           Z
 ---------------------------------------------------------------------
    1          6      10061000        0.141775   -0.538750    0.000125
    2          6      10061003        0.238775    0.977250   -0.001875
    3          8      10081003        1.370775   -1.092750   -0.003875
    4          8      10081002       -0.862225   -1.212750    0.004125
    5          8      10081003       -1.032225    1.587250    0.002125
    6          1      10011000        0.784775    1.326250    0.907125
    7          1      10011000        0.778775    1.325250   -0.913875
    8          1      10011000        1.252775   -2.057750   -0.002875
    9          1      10011000       -0.910225    2.521250    0.001125
 ---------------------------------------------------------------------
                    Distance matrix (angstroms):
                    1          2          3          4          5
     1  C    0.000000
     2  C    1.519101   0.000000
     3  O    1.348100   2.359307   0.000000
     4  O    1.209259   2.451191   2.236236   0.000000
     5  O    2.428612   1.409807   3.599562   2.805157   0.000000
     6  H    2.171249   1.116332   2.650449   3.158249   2.046615
     7  H    2.171557   1.115548   2.650526   3.158647   2.046319
     8  H    1.881938   3.199910   0.972188   2.277564   4.302008
     9  H    3.235785   1.924616   4.273638   3.734310   0.941935
                    6          7          8          9
     6  H    0.000000
     7  H    1.821010   0.000000
     8  H    3.535333   3.535433   0.000000
     9  H    2.263158   2.262822   5.064171   0.000000
 Stoichiometry    C2H4O3
 Framework group  C1[X(C2H4O3)]
 Deg. of freedom    21
 Full point group                 C1
 Largest Abelian subgroup         C1      NOp   1
 Largest concise Abelian subgroup C1      NOp   1
                         Standard orientation:                         
 ---------------------------------------------------------------------
 Center     Atomic     Atomic              Coordinates (Angstroms)
 Number     Number      Type              X           Y           Z
 ---------------------------------------------------------------------
    1          6      10061000       -0.546758    0.106808    0.000139
    2          6      10061003        0.775950   -0.640263   -0.000158
    3          8      10081003       -1.580386   -0.758632   -0.000039
    4          8      10081002       -0.716667    1.304071    0.000005
    5          8      10081003        1.878275    0.238621   -0.000077
    6          1      10011000        0.853217   -1.280493    0.911069
    7          1      10011000        0.853616   -1.281129   -0.909941
    8          1      10011000       -2.397866   -0.232442   -0.000321
    9          1      10011000        2.666103   -0.277680    0.000191
 ---------------------------------------------------------------------
 Rotational constants (GHZ):     10.6865076      3.8425261      2.8801139
 Standard basis: Dummy (5D, 7F)
 There are     9 symmetry adapted basis functions of A   symmetry.
 Integral buffers will be    262144 words long.
 Raffenetti 1 integral format.
 Two-electron integral symmetry is turned on.
     9 basis functions,     9 primitive gaussians,     9 cartesian basis functions
     7 alpha electrons        7 beta electrons
       nuclear repulsion energy        22.8977703649 Hartrees.
 NAtoms=    9 NActive=    9 NUniq=    9 SFac= 7.50D-01 NAtFMM=   80 NAOKFM=F Big=F
 Dreiding calculation of energy and first derivatives.
 MO and density RWFs will be updated without deorthogonalization.
 NRF= 0 NRA=   0 NVA=   9 HaveQM=F
 Convergence limit is  0.750E-04 MaxStp=  5000 StMxLn= 1.00D-04 StpMin= 1.00D-06.
 Convergence criteria           0.00011250 0.00007500 0.00045000 0.00030000
  Step  NS  ND Rises OKQ   Scale  Max. Force  RMS Force Max. Disp.  RMS Disp.     Energy   Flag
     1   0   0   F    T  1.00D+00 0.08517923 0.02285427 0.08517923 0.02285427    0.0172562 ----
     2   0   0   F    F -2.15D-01 0.08517923 0.02285427 0.08517923 0.02285427    0.0121438 ----
     3   0   0   F    T  2.02D+00 0.01612606 0.00834214 0.01962559 0.00888050    0.0117294 ----
     4   0   0   F    F -2.71D-01 0.01612606 0.00834214 0.03963646 0.01793534    0.0105384 ----
     5   0   0   F    T  1.69D+00 0.01681202 0.00610792 0.02393518 0.00773026    0.0103460 ----
     6   0   0   F    F  3.76D-01 0.01681202 0.00610792 0.04046058 0.01306741    0.0092619 ----
     7   0   0   F    T  1.91D+00 0.01410308 0.00593112 0.03009420 0.00941346    0.0091744 ----
     8   0   0   F    F  2.30D-01 0.01410308 0.00593112 0.05747816 0.01797917    0.0080967 ----
     9   0   0   F    T  1.16D+01 0.00580714 0.00172491 0.00465216 0.00190357    0.0080575 ----
    10   0   0   T    F  2.48D-01 0.00580714 0.00172491 0.05406142 0.02212080    0.0090000 ----
    11   0   0   F    T  2.37D+00 0.00362267 0.00161195 0.00477497 0.00231431    0.0079420 ----
    12   0   0   F    F  2.74D-01 0.00362267 0.00161195 0.01130344 0.00547850    0.0078409 ----
    13   0   0   F    T  1.77D+00 0.00622866 0.00196250 0.00824783 0.00394824    0.0078359 ----
    14   0   0   F    F -3.43D-01 0.00622866 0.00196250 0.01458521 0.00698194    0.0077920 ----
    15   0   0   F    T  3.28D+00 0.00221094 0.00098962 0.00344311 0.00139989    0.0077755 ----
    16   0   0   F    F -2.56D-01 0.00221094 0.00098962 0.01127830 0.00458550    0.0077471 ----
    17   0   0   F    T  1.99D+00 0.00275779 0.00098899 0.00449030 0.00171226    0.0077433 ----
    18   0   0   F    F  9.00D-01 0.00275779 0.00098899 0.00895194 0.00341359    0.0077045 ----
    19   0   0   F    T  2.62D+00 0.00341854 0.00112064 0.00599212 0.00248027    0.0076932 ----
    20   0   0   F    F -1.34D-01 0.00341854 0.00112064 0.01567180 0.00648690    0.0076558 ----
    21   0   0   F    T  2.77D+00 0.00243653 0.00095110 0.00519294 0.00203094    0.0076549 ----
    22   0   0   F    F  2.19D-01 0.00243653 0.00095110 0.01435853 0.00561555    0.0076149 ----
    23   0   0   F    T  7.46D+00 0.00188289 0.00056934 0.00179912 0.00091751    0.0076136 ----
    24   0   0   T    F  1.16D-01 0.00188289 0.00056934 0.01341833 0.00684301    0.0078302 ----
    25   0   0   F    T  2.09D+00 0.00062044 0.00029212 0.00084836 0.00037856    0.0076098 ----
    26   0   0   F    T  3.64D+00 0.00038745 0.00017122 0.00054175 0.00021756    0.0076075 ---+
    27   0   0   F    F  2.52D-01 0.00038745 0.00017122 0.00197220 0.00079200    0.0076058 ----
    28   0   0   F    T  5.73D+00 0.00038029 0.00013016 0.00045697 0.00017285    0.0076057 ---+
    29   0   0   T    F  2.68D-01 0.00038029 0.00013016 0.00262054 0.00099120    0.0076080 ----
    30   0   0   F    T  1.87D+00 0.00036633 0.00009956 0.00043004 0.00014250    0.0076054 --++
    31   0   0   F    F  1.43D+00 0.00036633 0.00009956 0.00080279 0.00026601    0.0076050 ---+
    32   0   0   F    T  6.28D+00 0.00016346 0.00007157 0.00020621 0.00010267    0.0076047 -+++
    33   0   0   T    F  2.61D-01 0.00016346 0.00007157 0.00129579 0.00064515    0.0076055 -+--
    34   0   0   F    T  6.13D+00 0.00007876 0.00002461 0.00010117 0.00002744    0.0076046 ====
 Energy=    0.007604634925 NIter=   0.
 Dipole moment=       0.000000       0.000000       0.000000
 ***** Axes restored to original set *****
 -------------------------------------------------------------------
 Center     Atomic                   Forces (Hartrees/Bohr)
 Number     Number              X              Y              Z
 -------------------------------------------------------------------
    1          6           0.000019250    0.000004870   -0.000003158
    2          6          -0.000031633   -0.000045257    0.000022462
    3          8           0.000023768    0.000007833    0.000002599
    4          8          -0.000022614   -0.000001432    0.000000120
    5          8           0.000013040   -0.000009385   -0.000000998
    6          1           0.000023278   -0.000030262   -0.000002937
    7          1           0.000031525   -0.000024411   -0.000017103
    8          1          -0.000028266    0.000073821   -0.000001021
    9          1          -0.000028349    0.000024223    0.000000036
 -------------------------------------------------------------------
 Cartesian Forces:  Max     0.000073821 RMS     0.000024609

 GradGradGradGradGradGradGradGradGradGradGradGradGradGradGradGradGradGrad
 Berny optimization.
 Search for a local minimum.
 Step number   1 out of a maximum of   2
 All quantities printed in internal units (Hartrees-Bohrs-Radians)
 Second derivative matrix not updated -- unit matrix used.
 RFO step:  Lambda=-1.63515835D-08.
 Linear search not attempted -- first point.
 TrRot=  0.000000  0.000000  0.000000  0.000000  0.000000  0.000000
 Variable       Old X    -DE/DX   Delta X   Delta X   Delta X     New X
                                 (Linear)    (Quad)   (Total)
    X1        0.40573   0.00002   0.00000   0.00002   0.00002   0.40575
    Y1       -0.92688   0.00000   0.00000   0.00000   0.00000  -0.92687
    Z1       -0.00051   0.00000   0.00000   0.00000   0.00000  -0.00051
    X2        0.46407  -0.00003   0.00000  -0.00003  -0.00003   0.46404
    Y2        1.85673  -0.00005   0.00000  -0.00005  -0.00005   1.85668
    Z2       -0.00285   0.00002   0.00000   0.00002   0.00002  -0.00282
    X3        2.65059   0.00002   0.00000   0.00002   0.00002   2.65061
    Y3       -2.17047   0.00001   0.00000   0.00001   0.00001  -2.17046
    Z3       -0.00731   0.00000   0.00000   0.00000   0.00000  -0.00731
    X4       -1.66555  -0.00002   0.00000  -0.00002  -0.00002  -1.66557
    Y4       -2.08569   0.00000   0.00000   0.00000   0.00000  -2.08569
    Z4        0.00753   0.00000   0.00000   0.00000   0.00000   0.00753
    X5       -2.02104   0.00001   0.00000   0.00001   0.00001  -2.02103
    Y5        2.93082  -0.00001   0.00000  -0.00001  -0.00001   2.93081
    Z5        0.00446   0.00000   0.00000   0.00000   0.00000   0.00446
    X6        1.49245   0.00002   0.00000   0.00002   0.00002   1.49247
    Y6        2.49068  -0.00003   0.00000  -0.00003  -0.00003   2.49064
    Z6        1.67351   0.00000   0.00000   0.00000   0.00000   1.67351
    X7        1.48148   0.00003   0.00000   0.00003   0.00003   1.48152
    Y7        2.48813  -0.00002   0.00000  -0.00002  -0.00002   2.48810
    Z7       -1.68675  -0.00002   0.00000  -0.00002  -0.00002  -1.68677
    X8        2.35685  -0.00003   0.00000  -0.00003  -0.00003   2.35682
    Y8       -4.00675   0.00007   0.00000   0.00007   0.00007  -4.00668
    Z8       -0.00542   0.00000   0.00000   0.00000   0.00000  -0.00542
    X9       -1.83304  -0.00003   0.00000  -0.00003  -0.00003  -1.83307
    Y9        4.78129   0.00002   0.00000   0.00002   0.00002   4.78131
    Z9        0.00246   0.00000   0.00000   0.00000   0.00000   0.00246
         Item               Value     Threshold  Converged?
 Maximum Force            0.000074     0.000450     YES
 RMS     Force            0.000025     0.000300     YES
 Maximum Displacement     0.000074     0.001800     YES
 RMS     Displacement     0.000025     0.001200     YES
 Predicted change in Energy=-8.175791D-09
 Optimization completed.
    -- Stationary point found.
 GradGradGradGradGradGradGradGradGradGradGradGradGradGradGradGradGradGrad

                          Input orientation:                          
 ---------------------------------------------------------------------
 Center     Atomic     Atomic              Coordinates (Angstroms)
 Number     Number      Type              X           Y           Z
 ---------------------------------------------------------------------
    1          6      10061000        0.214705   -0.490482   -0.000270
    2          6      10061003        0.245578    0.982537   -0.001507
    3          8      10081003        1.402631   -1.148562   -0.003871
    4          8      10081002       -0.881371   -1.103700    0.003987
    5          8      10081003       -1.069488    1.550921    0.002360
    6          1      10011000        0.789769    1.318008    0.885585
    7          1      10011000        0.783968    1.316661   -0.892592
    8          1      10011000        1.247189   -2.120281   -0.002869
    9          1      10011000       -0.970005    2.530147    0.001301
 ---------------------------------------------------------------------
                    Distance matrix (angstroms):
                    1          2          3          4          5
     1  C    0.000000
     2  C    1.473343   0.000000
     3  O    1.358032   2.424946   0.000000
     4  O    1.255960   2.371166   2.284455   0.000000
     5  O    2.411738   1.432645   3.660412   2.661279   0.000000
     6  H    2.094296   1.093443   2.692713   3.071579   2.071514
     7  H    2.094293   1.093406   2.692562   3.071702   2.071501
     8  H    1.929320   3.260477   0.984074   2.358866   4.341053
     9  H    3.244647   1.967929   4.377480   3.634929   0.984267
                    6          7          8          9
     6  H    0.000000
     7  H    1.778187   0.000000
     8  H    3.580561   3.580328   0.000000
     9  H    2.312584   2.312578   5.151936   0.000000
 Stoichiometry    C2H4O3
 Framework group  C1[X(C2H4O3)]
 Deg. of freedom    21
 Full point group                 C1
 Largest Abelian subgroup         C1      NOp   1
 Largest concise Abelian subgroup C1      NOp   1
                         Standard orientation:                         
 ---------------------------------------------------------------------
 Center     Atomic     Atomic              Coordinates (Angstroms)
 Number     Number      Type              X           Y           Z
 ---------------------------------------------------------------------
    1          6      10061000       -0.538737    0.059942    0.000031
    2          6      10061003        0.734216   -0.681900    0.000076
    3          8      10081003       -1.690625   -0.659367   -0.000031
    4          8      10081002       -0.542986    1.315895    0.000050
    5          8      10081003        1.869377    0.192103   -0.000102
    6          1      10011000        0.764298   -1.317517    0.889291
    7          1      10011000        0.764224   -1.317796   -0.888896
    8          1      10011000       -2.464814   -0.051887   -0.000336
    9          1      10011000        2.677286   -0.370094   -0.000040
 ---------------------------------------------------------------------
 Rotational constants (GHZ):     11.0156707      3.8154286      2.8854369
 1|1|UNPC-UNK|FOpt|Dreiding|ZDO|C2H4O3|PCUSER|18-Mar-2008|0||# opt drei
 ding||glycolic acid-cis||0,1|C,0.2147046163,-0.4904815382,-0.000270160
 4|C,0.2455776089,0.9825374912,-0.0015065203|O,1.4026307383,-1.14856208
 34,-0.0038706971|O,-0.8813705491,-1.1037000405,0.0039868189|O,-1.06948
 82007,1.5509209211,0.0023602014|H,0.7897690773,1.3180084564,0.88558501
 45|H,0.783967931,1.3166606379,-0.8925920194|H,1.2471888888,-2.12028096
 98,-0.0028685332|H,-0.970005111,2.5301471252,0.0013008958||Version=IA3
 2W-G03RevD.01|HF=0.0076046|RMSD=0.000e+000|RMSF=2.461e-005|Thermal=0.|
 Dipole=0.,0.,0.|PG=C01 [X(C2H4O3)]||@


 BLACK HOLES SUCK.
 Job cpu time:  0 days  0 hours  0 minutes  3.0 seconds.
 File lengths (MBytes):  RWF=     11 Int=      0 D2E=      0 Chk=      4 Scr=      1
 Normal termination of Gaussian 03 at Tue Mar 18 09:01:19 2008.
