 Entering Link 1 = C:\G03W\l1.exe PID=      3388.
  
 Copyright (c) 1988,1990,1992,1993,1995,1998,2003,2004, Gaussian, Inc.
                  All Rights Reserved.
  
 This is the Gaussian(R) 03 program.  It is based on the
 the Gaussian(R) 98 system (copyright 1998, Gaussian, Inc.),
 the Gaussian(R) 94 system (copyright 1995, Gaussian, Inc.),
 the Gaussian 92(TM) system (copyright 1992, Gaussian, Inc.),
 the Gaussian 90(TM) system (copyright 1990, Gaussian, Inc.),
 the Gaussian 88(TM) system (copyright 1988, Gaussian, Inc.),
 the Gaussian 86(TM) system (copyright 1986, Carnegie Mellon
 University), and the Gaussian 82(TM) system (copyright 1983,
 Carnegie Mellon University). Gaussian is a federally registered
 trademark of Gaussian, Inc.
  
 This software contains proprietary and confidential information,
 including trade secrets, belonging to Gaussian, Inc.
  
 This software is provided under written license and may be
 used, copied, transmitted, or stored only in accord with that
 written license.
  
 The following legend is applicable only to US Government
 contracts under FAR:
  
                    RESTRICTED RIGHTS LEGEND
  
 Use, reproduction and disclosure by the US Government is
 subject to restrictions as set forth in subparagraphs (a)
 and (c) of the Commercial Computer Software - Restricted
 Rights clause in FAR 52.227-19.
  
 Gaussian, Inc.
 340 Quinnipiac St., Bldg. 40, Wallingford CT 06492
  
  
 ---------------------------------------------------------------
 Warning -- This program may not be used in any manner that
 competes with the business of Gaussian, Inc. or will provide
 assistance to any competitor of Gaussian, Inc.  The licensee
 of this program is prohibited from giving any competitor of
 Gaussian, Inc. access to this program.  By using this program,
 the user acknowledges that Gaussian, Inc. is engaged in the
 business of creating and licensing software in the field of
 computational chemistry and represents and warrants to the
 licensee that it is not a competitor of Gaussian, Inc. and that
 it will not use this program in any manner prohibited above.
 ---------------------------------------------------------------
  

 Cite this work as:
 Gaussian 03, Revision D.01,
 M. J. Frisch, G. W. Trucks, H. B. Schlegel, G. E. Scuseria, 
 M. A. Robb, J. R. Cheeseman, J. A. Montgomery, Jr., T. Vreven, 
 K. N. Kudin, J. C. Burant, J. M. Millam, S. S. Iyengar, J. Tomasi, 
 V. Barone, B. Mennucci, M. Cossi, G. Scalmani, N. Rega, 
 G. A. Petersson, H. Nakatsuji, M. Hada, M. Ehara, K. Toyota, 
 R. Fukuda, J. Hasegawa, M. Ishida, T. Nakajima, Y. Honda, O. Kitao, 
 H. Nakai, M. Klene, X. Li, J. E. Knox, H. P. Hratchian, J. B. Cross, 
 V. Bakken, C. Adamo, J. Jaramillo, R. Gomperts, R. E. Stratmann, 
 O. Yazyev, A. J. Austin, R. Cammi, C. Pomelli, J. W. Ochterski, 
 P. Y. Ayala, K. Morokuma, G. A. Voth, P. Salvador, J. J. Dannenberg, 
 V. G. Zakrzewski, S. Dapprich, A. D. Daniels, M. C. Strain, 
 O. Farkas, D. K. Malick, A. D. Rabuck, K. Raghavachari, 
 J. B. Foresman, J. V. Ortiz, Q. Cui, A. G. Baboul, S. Clifford, 
 J. Cioslowski, B. B. Stefanov, G. Liu, A. Liashenko, P. Piskorz, 
 I. Komaromi, R. L. Martin, D. J. Fox, T. Keith, M. A. Al-Laham, 
 C. Y. Peng, A. Nanayakkara, M. Challacombe, P. M. W. Gill, 
 B. Johnson, W. Chen, M. W. Wong, C. Gonzalez, and J. A. Pople, 
 Gaussian, Inc., Wallingford CT, 2004.
 
 ******************************************
 Gaussian 03:  IA32W-G03RevD.01 13-Oct-2005
                13-Dec-2007 
 ******************************************
 --------------
 # opt dreiding
 --------------
 1/6=10,10=10,14=-1,18=4000020,38=1,56=1,64=1/1,3;
 2/9=110,17=6,18=5,40=1/2;
 3/5=30,11=9,16=1,25=1,30=1/1;
 4/20=9,22=1001,24=3/2;
 7/44=-1/16;
 1/6=10,10=10,14=-1,18=4000020,64=1/3(2);
 2/9=110/2;
 99//99;
 2/9=110/2;
 3/5=30,11=9,16=1,25=1,30=1/1;
 4/16=2,20=9,22=1001,24=3/2;
 7/44=-1/16;
 1/6=10,10=10,14=-1,18=4000020,64=1/3(-4);
 2/9=110/2;
 99//99;
 ---------------
 Me acetate-E-lp
 ---------------
 Symbolic Z-matrix:
 Charge =  0 Multiplicity = 1
 C                    -0.91255  -1.15808  -0.03273 
 C                     0.43245  -0.45508   0.02528 
 O                     1.47145  -1.07808   0.08228 
 O                     0.40145   0.90793   0.01128 
 C                    -0.82355   1.61093  -0.05673 
 H                    -0.58755   2.70193  -0.05573 
 H                    -1.35955   1.37693  -1.00573 
 H                    -1.45055   1.39493   0.84028 
 H                    -1.54455  -0.90908   0.84928 
 H                    -1.45555  -0.92808  -0.97673 
 H                    -0.76355  -2.26208  -0.01473 
 
 I=    4 IAn=  8 Valence=24.
          JB=  1 J=    2 IAn=  6 IBT=12 Dist= 1.36D+00
          JB=  2 J=    5 IAn=  6 IBT= 1 Dist= 1.41D+00
 Include all MM classes
 MMInit generated parameter data with length LenPar=   953.

 GradGradGradGradGradGradGradGradGradGradGradGradGradGradGradGradGradGrad
 Berny optimization.
 Initialization pass.
 No Z-matrix variables, so optimization will use Cartesian coordinates.
 Trust Radius=1.00D-01 FncErr=1.00D-07 GrdErr=1.00D-07
 Number of steps in this run=   2 maximum allowed number of steps=   2.
 GradGradGradGradGradGradGradGradGradGradGradGradGradGradGradGradGradGrad

                          Input orientation:                          
 ---------------------------------------------------------------------
 Center     Atomic     Atomic              Coordinates (Angstroms)
 Number     Number      Type              X           Y           Z
 ---------------------------------------------------------------------
    1          6      10061003       -0.912550   -1.158075   -0.032725
    2          6      10061000        0.432450   -0.455075    0.025275
    3          8      10081002        1.471450   -1.078075    0.082275
    4          8      10081003        0.401450    0.907925    0.011275
    5          6      10061003       -0.823550    1.610925   -0.056725
    6          1      10011000       -0.587550    2.701925   -0.055725
    7          1      10011000       -1.359550    1.376925   -1.005725
    8          1      10011000       -1.450550    1.394925    0.840275
    9          1      10011000       -1.544550   -0.909075    0.849275
   10          1      10011000       -1.455550   -0.928075   -0.976725
   11          1      10011000       -0.763550   -2.262075   -0.014725
 ---------------------------------------------------------------------
                    Distance matrix (angstroms):
                    1          2          3          4          5
     1  C    0.000000
     2  C    1.518749   0.000000
     3  O    2.388112   1.212806   0.000000
     4  O    2.448854   1.363424   2.257019   0.000000
     5  C    2.770534   2.419218   3.537947   1.414022   0.000000
     6  H    3.873726   3.318676   4.306614   2.049645   1.116234
     7  H    2.751865   2.762327   3.901965   2.086953   1.114743
     8  H    2.751251   2.762682   3.902355   2.086699   1.115524
     9  H    1.113261   2.189434   3.116586   2.791173   2.773279
    10  H    1.113052   2.189127   3.116297   2.792040   2.773508
    11  H    1.114155   2.167317   2.531105   3.377396   3.873692
                    6          7          8          9         10
     6  H    0.000000
     7  H    1.803915   0.000000
     8  H    1.804393   1.848329   0.000000
     9  H    3.843722   2.949754   2.305934   0.000000
    10  H    3.844290   2.307181   2.949211   1.828266   0.000000
    11  H    4.967288   3.818327   3.817937   1.785236   1.784339
                   11
    11  H    0.000000
 Stoichiometry    C3H6O2
 Framework group  C1[X(C3H6O2)]
 Deg. of freedom    27
 Full point group                 C1
 Largest Abelian subgroup         C1      NOp   1
 Largest concise Abelian subgroup C1      NOp   1
                         Standard orientation:                         
 ---------------------------------------------------------------------
 Center     Atomic     Atomic              Coordinates (Angstroms)
 Number     Number      Type              X           Y           Z
 ---------------------------------------------------------------------
    1          6      10061003        0.627479    1.334626   -0.000227
    2          6      10061000        0.600775   -0.183888    0.000343
    3          8      10081002        1.623403   -0.835908    0.000208
    4          8      10081003       -0.632509   -0.765212   -0.000748
    5          6      10061003       -1.810033    0.017662    0.000520
    6          1      10011000       -2.680431   -0.681184    0.000155
    7          1      10011000       -1.869068    0.638379    0.924575
    8          1      10011000       -1.869160    0.639447   -0.923754
    9          1      10011000        0.149781    1.753504   -0.914390
   10          1      10011000        0.150489    1.753888    0.913876
   11          1      10011000        1.681906    1.694521    0.000039
 ---------------------------------------------------------------------
 Rotational constants (GHZ):      9.0940041      4.3068087      3.0425242
 Standard basis: Dummy (5D, 7F)
 There are    11 symmetry adapted basis functions of A   symmetry.
 Integral buffers will be    262144 words long.
 Raffenetti 1 integral format.
 Two-electron integral symmetry is turned on.
    11 basis functions,    11 primitive gaussians,    11 cartesian basis functions
     8 alpha electrons        8 beta electrons
       nuclear repulsion energy        29.1511636314 Hartrees.
 NAtoms=   11 NActive=   11 NUniq=   11 SFac= 7.50D-01 NAtFMM=   80 NAOKFM=F Big=F
 Dreiding calculation of energy and first derivatives.
 MO and density RWFs will be updated without deorthogonalization.
 NRF= 0 NRA=   0 NVA=  11 HaveQM=F
 Convergence limit is  0.750E-04 MaxStp=  5000 StMxLn= 1.00D-04 StpMin= 1.00D-06.
 Convergence criteria           0.00011250 0.00007500 0.00045000 0.00030000
  Step  NS  ND Rises OKQ   Scale  Max. Force  RMS Force Max. Disp.  RMS Disp.     Energy   Flag
     1   0   0   F    T  1.00D+00 0.07066999 0.02186124 0.07066999 0.02186124    0.0264132 ----
     2   0   0   F    F -1.80D-01 0.07066999 0.02186124 0.07066999 0.02186124    0.0202691 ----
     3   0   0   F    T  1.88D+00 0.02165797 0.00885445 0.02420220 0.00955316    0.0199604 ----
     4   0   0   F    F -2.29D-01 0.02165797 0.00885445 0.04542191 0.01792907    0.0182542 ----
     5   0   0   F    T  1.80D+00 0.01653101 0.00617220 0.01649646 0.00768446    0.0180883 ----
     6   0   0   F    F  2.16D-01 0.01653101 0.00617220 0.02966496 0.01381867    0.0167595 ----
     7   0   0   F    T  2.22D+00 0.01508548 0.00519999 0.01722370 0.00756933    0.0167164 ----
     8   0   0   F    F -2.18D-01 0.01508548 0.00519999 0.03823658 0.01680391    0.0160024 ----
     9   0   0   F    T  3.44D+00 0.00907725 0.00293952 0.01049225 0.00382256    0.0159418 ----
    10   0   0   F    F  1.41D-01 0.00907725 0.00293952 0.03604816 0.01313316    0.0153932 ----
    11   0   0   F    T  2.03D+00 0.01030108 0.00377673 0.01987288 0.00737581    0.0153847 ----
    12   0   0   F    F -1.37D-02 0.01030108 0.00377673 0.04037079 0.01498361    0.0149138 ----
    13   0   0   F    T  1.74D+00 0.01363976 0.00380193 0.01876813 0.00849057    0.0149137 ----
    14   0   0   F    F -1.22D-01 0.01363976 0.00380193 0.03266774 0.01477866    0.0145563 ----
    15   0   0   F    T  3.15D+00 0.00647896 0.00237219 0.00912411 0.00412153    0.0145493 ----
    16   0   0   F    F  7.74D-01 0.00647896 0.00237219 0.02874118 0.01298291    0.0141325 ----
    17   0   0   F    T  3.94D+00 0.00924122 0.00262921 0.01178195 0.00584018    0.0140360 ----
    18   0   0   T    F  2.88D-01 0.00924122 0.00262921 0.04647194 0.02303561    0.0147022 ----
    19   0   0   F    T  3.12D+00 0.00410775 0.00136843 0.00428470 0.00212525    0.0139067 ----
    20   0   0   F    F -6.62D-02 0.00410775 0.00136843 0.01336079 0.00662709    0.0138173 ----
    21   0   0   F    T  1.60D+00 0.00586814 0.00173973 0.00822869 0.00385696    0.0138168 ----
    22   0   0   F    F -1.40D-01 0.00586814 0.00173973 0.01320214 0.00618811    0.0137499 ----
    23   0   0   F    T  3.42D+00 0.00232775 0.00096780 0.00353740 0.00155779    0.0137481 ----
    24   0   0   F    F -2.01D-01 0.00232775 0.00096780 0.01208287 0.00532102    0.0137085 ----
    25   0   0   F    T  2.77D+00 0.00263999 0.00087090 0.00376751 0.00153744    0.0137058 ----
    26   0   0   F    F -1.18D-01 0.00263999 0.00087090 0.01042432 0.00425392    0.0136758 ----
    27   0   0   F    T  3.74D+00 0.00254093 0.00062398 0.00282866 0.00100413    0.0136753 ----
    28   0   0   T    F  2.51D-01 0.00254093 0.00062398 0.01057342 0.00375338    0.0137229 ----
    29   0   0   F    T  1.99D+00 0.00132965 0.00035104 0.00170295 0.00047297    0.0136693 ----
    30   0   0   F    F  1.23D+00 0.00132965 0.00035104 0.00339132 0.00094190    0.0136630 ----
    31   0   0   F    T  3.80D+00 0.00084080 0.00033715 0.00184222 0.00055147    0.0136602 ----
    32   0   0   T    F  3.62D-01 0.00084080 0.00033715 0.00700531 0.00209704    0.0136657 ----
    33   0   0   F    T  3.28D+00 0.00048240 0.00017572 0.00057629 0.00023097    0.0136577 ---+
    34   0   0   T    F  4.03D-01 0.00048240 0.00017572 0.00189251 0.00075850    0.0136585 ----
    35   0   0   F    T  2.00D+00 0.00032680 0.00011571 0.00036175 0.00015303    0.0136570 --++
    36   0   0   F    F  3.89D-01 0.00032680 0.00011571 0.00072305 0.00030587    0.0136564 ----
    37   0   0   F    T  1.14D+00 0.00054715 0.00017048 0.00095533 0.00037334    0.0136564 ----
    38   0   0   F    F  1.30D+00 0.00054715 0.00017048 0.00108737 0.00042494    0.0136555 ----
    39   0   0   F    T  5.65D+00 0.00031210 0.00010365 0.00042824 0.00017273    0.0136551 --++
    40   0   0   T    F  3.10D-01 0.00031210 0.00010365 0.00242095 0.00097648    0.0136563 ----
    41   0   0   F    T  2.86D+00 0.00014812 0.00007027 0.00028812 0.00010606    0.0136548 -+++
    42   0   0   F    F  1.89D-01 0.00014812 0.00007027 0.00082325 0.00030305    0.0136545 -+--
    43   0   0   F    T  1.08D+00 0.00049942 0.00012052 0.00091234 0.00033448    0.0136545 ----
    44   0   0   F    F  6.89D-01 0.00049942 0.00012052 0.00098261 0.00036024    0.0136542 ----
    45   0   0   F    T  1.14D+01 0.00012236 0.00003935 0.00011677 0.00005327    0.0136541 -+++
    46   0   0   T    F  2.43D-01 0.00012236 0.00003935 0.00133384 0.00060849    0.0136547 -+--
    47   0   0   F    T  1.56D+00 0.00014136 0.00004862 0.00020468 0.00009477    0.0136540 -+++
    48   0   0   F    T  3.57D+00 0.00007643 0.00003259 0.00008803 0.00004140    0.0136539 ====
 Energy=    0.013653945164 NIter=   0.
 Dipole moment=       0.000000       0.000000       0.000000
 ***** Axes restored to original set *****
 -------------------------------------------------------------------
 Center     Atomic                   Forces (Hartrees/Bohr)
 Number     Number              X              Y              Z
 -------------------------------------------------------------------
    1          6          -0.000020956    0.000057333   -0.000000793
    2          6          -0.000018846    0.000075513   -0.000001445
    3          8          -0.000006018    0.000015577   -0.000002691
    4          8          -0.000056082   -0.000058860    0.000000125
    5          6           0.000040576    0.000051468    0.000001322
    6          1           0.000010481   -0.000030059    0.000001001
    7          1           0.000023278    0.000003333    0.000031088
    8          1           0.000023233    0.000002628   -0.000031707
    9          1          -0.000025243   -0.000041916    0.000025983
   10          1          -0.000023847   -0.000040439   -0.000025402
   11          1           0.000053425   -0.000034577    0.000002520
 -------------------------------------------------------------------
 Cartesian Forces:  Max     0.000075513 RMS     0.000032585

 GradGradGradGradGradGradGradGradGradGradGradGradGradGradGradGradGradGrad
 Berny optimization.
 Search for a local minimum.
 Step number   1 out of a maximum of   2
 All quantities printed in internal units (Hartrees-Bohrs-Radians)
 Second derivative matrix not updated -- unit matrix used.
 RFO step:  Lambda=-3.50398677D-08.
 Linear search not attempted -- first point.
 TrRot=  0.000000  0.000000  0.000000  0.000000  0.000000  0.000000
 Variable       Old X    -DE/DX   Delta X   Delta X   Delta X     New X
                                 (Linear)    (Quad)   (Total)
    X1       -1.72373  -0.00002   0.00000  -0.00002  -0.00002  -1.72375
    Y1       -2.38743   0.00006   0.00000   0.00006   0.00006  -2.38737
    Z1       -0.05990   0.00000   0.00000   0.00000   0.00000  -0.05990
    X2        0.60885  -0.00002   0.00000  -0.00002  -0.00002   0.60883
    Y2       -0.84871   0.00008   0.00000   0.00008   0.00008  -0.84864
    Z2        0.03824   0.00000   0.00000   0.00000   0.00000   0.03824
    X3        2.68715  -0.00001   0.00000  -0.00001  -0.00001   2.68715
    Y3       -1.97367   0.00002   0.00000   0.00002   0.00002  -1.97365
    Z3        0.14988   0.00000   0.00000   0.00000   0.00000   0.14988
    X4        0.74706  -0.00006   0.00000  -0.00006  -0.00006   0.74700
    Y4        1.72264  -0.00006   0.00000  -0.00006  -0.00006   1.72258
    Z4        0.02032   0.00000   0.00000   0.00000   0.00000   0.02032
    X5       -1.52230   0.00004   0.00000   0.00004   0.00004  -1.52226
    Y5        3.20878   0.00005   0.00000   0.00005   0.00005   3.20883
    Z5       -0.10669   0.00000   0.00000   0.00000   0.00000  -0.10669
    X6       -0.99091   0.00001   0.00000   0.00001   0.00001  -0.99090
    Y6        5.19902  -0.00003   0.00000  -0.00003  -0.00003   5.19899
    Z6       -0.10027   0.00000   0.00000   0.00000   0.00000  -0.10027
    X7       -2.56536   0.00002   0.00000   0.00002   0.00002  -2.56533
    Y7        2.82494   0.00000   0.00000   0.00000   0.00000   2.82495
    Z7       -1.84515   0.00003   0.00000   0.00003   0.00003  -1.84511
    X8       -2.73197   0.00002   0.00000   0.00002   0.00002  -2.73195
    Y8        2.85857   0.00000   0.00000   0.00000   0.00000   2.85857
    Z8        1.52779  -0.00003   0.00000  -0.00003  -0.00003   1.52776
    X9       -2.91852  -0.00003   0.00000  -0.00003  -0.00003  -2.91855
    Y9       -1.94681  -0.00004   0.00000  -0.00004  -0.00004  -1.94685
    Z9        1.56019   0.00003   0.00000   0.00003   0.00003   1.56022
   X10       -2.75524  -0.00002   0.00000  -0.00002  -0.00002  -2.75526
   Y10       -1.98025  -0.00004   0.00000  -0.00004  -0.00004  -1.98029
   Z10       -1.79673  -0.00003   0.00000  -0.00003  -0.00003  -1.79675
   X11       -1.29220   0.00005   0.00000   0.00005   0.00005  -1.29215
   Y11       -4.40530  -0.00003   0.00000  -0.00003  -0.00003  -4.40533
   Z11       -0.01881   0.00000   0.00000   0.00000   0.00000  -0.01881
         Item               Value     Threshold  Converged?
 Maximum Force            0.000076     0.000450     YES
 RMS     Force            0.000033     0.000300     YES
 Maximum Displacement     0.000076     0.001800     YES
 RMS     Displacement     0.000033     0.001200     YES
 Predicted change in Energy=-1.751993D-08
 Optimization completed.
    -- Stationary point found.
 GradGradGradGradGradGradGradGradGradGradGradGradGradGradGradGradGradGrad

                          Input orientation:                          
 ---------------------------------------------------------------------
 Center     Atomic     Atomic              Coordinates (Angstroms)
 Number     Number      Type              X           Y           Z
 ---------------------------------------------------------------------
    1          6      10061003       -0.912159   -1.263374   -0.031697
    2          6      10061000        0.322191   -0.449119    0.020236
    3          8      10081002        1.421980   -1.044421    0.079315
    4          8      10081003        0.395327    0.911582    0.010753
    5          6      10061003       -0.805569    1.698014   -0.056460
    6          1      10011000       -0.524369    2.751205   -0.053062
    7          1      10011000       -1.357528    1.494896   -0.976409
    8          1      10011000       -1.445696    1.512689    0.808473
    9          1      10011000       -1.544415   -1.030209    0.825618
   10          1      10011000       -1.458008   -1.047905   -0.950786
   11          1      10011000       -0.683805   -2.331183   -0.009955
 ---------------------------------------------------------------------
                    Distance matrix (angstroms):
                    1          2          3          4          5
     1  C    0.000000
     2  C    1.479639   0.000000
     3  O    2.347013   1.251962   0.000000
     4  O    2.538062   1.362698   2.210127   0.000000
     5  C    2.963409   2.426500   3.535725   1.437061   0.000000
     6  H    4.033322   3.311210   4.267619   2.057700   1.090091
     7  H    2.949388   2.755712   3.910031   2.094575   1.091889
     8  H    2.949080   2.755981   3.910760   2.094529   1.091888
     9  H    1.090459   2.114362   3.058867   2.863068   2.960938
    10  H    1.090460   2.114365   3.058668   2.863389   2.960669
    11  H    1.092169   2.134270   2.469424   3.417672   4.031304
                    6          7          8          9         10
     6  H    0.000000
     7  H    1.767777   0.000000
     8  H    1.767770   1.787147   0.000000
     9  H    4.013934   3.107794   2.544871   0.000000
    10  H    4.013829   2.544914   3.106732   1.778592   0.000000
    11  H    5.085071   4.003350   4.003205   1.769566   1.769564
                   11
    11  H    0.000000
 Stoichiometry    C3H6O2
 Framework group  C1[X(C3H6O2)]
 Deg. of freedom    27
 Full point group                 C1
 Largest Abelian subgroup         C1      NOp   1
 Largest concise Abelian subgroup C1      NOp   1
                         Standard orientation:                         
 ---------------------------------------------------------------------
 Center     Atomic     Atomic              Coordinates (Angstroms)
 Number     Number      Type              X           Y           Z
 ---------------------------------------------------------------------
    1          6      10061003        0.864529    1.286887   -0.000095
    2          6      10061000        0.547294   -0.158344   -0.000068
    3          8      10081002        1.497909   -0.973047    0.000323
    4          8      10081003       -0.696981   -0.713974   -0.000598
    5          6      10061003       -1.862389    0.126839    0.000315
    6          1      10011000       -2.744855   -0.513124    0.000098
    7          1      10011000       -1.894773    0.752879    0.894320
    8          1      10011000       -1.895222    0.754086   -0.892826
    9          1      10011000        0.443658    1.757080   -0.889413
   10          1      10011000        0.443613    1.757126    0.889179
   11          1      10011000        1.943552    1.455834   -0.000069
 ---------------------------------------------------------------------
 Rotational constants (GHZ):      9.0152846      4.2112221      2.9787989
 1|1|UNPC-UNK|FOpt|Dreiding|ZDO|C3H6O2|PCUSER|13-Dec-2007|0||# opt drei
 ding||Me acetate-E-lp||0,1|C,-0.9121591366,-1.2633742473,-0.0316966521
 |C,0.3221914634,-0.4491186744,0.0202360801|O,1.4219796276,-1.044420530
 4,0.0793148005|O,0.3953272915,0.9115820171,0.0107525398|C,-0.805568528
 9,1.6980135948,-0.0564604415|H,-0.524369313,2.7512053533,-0.0530619001
 |H,-1.3575277508,1.4948955806,-0.9764088579|H,-1.4456957862,1.51268851
 23,0.8084731403|H,-1.5444149658,-1.0302090539,0.8256179197|H,-1.458007
 6981,-1.0479045735,-0.9507862375|H,-0.6838052031,-2.3311829786,-0.0099
 553912||Version=IA32W-G03RevD.01|HF=0.0136539|RMSD=0.000e+000|RMSF=3.2
 59e-005|Thermal=0.|Dipole=0.,0.,0.|PG=C01 [X(C3H6O2)]||@


 The juvenile sea squirt wanders through the sea searching
 for a suitable rock or hunk of coral to cling to and make
 its home for life.  For this task it has a rudimentary
 nervous system.  When it finds its spot and takes root, it
 doesn't need its brain any more so it eats it.
 It's rather like getting tenure.

                               -- source unknown
 Job cpu time:  0 days  0 hours  0 minutes  3.0 seconds.
 File lengths (MBytes):  RWF=     11 Int=      0 D2E=      0 Chk=      4 Scr=      1
 Normal termination of Gaussian 03 at Thu Dec 13 16:37:20 2007.
