 Entering Link 1 = C:\G03W\l1.exe PID=      2544.
  
 Copyright (c) 1988,1990,1992,1993,1995,1998,2003,2004, Gaussian, Inc.
                  All Rights Reserved.
  
 This is the Gaussian(R) 03 program.  It is based on the
 the Gaussian(R) 98 system (copyright 1998, Gaussian, Inc.),
 the Gaussian(R) 94 system (copyright 1995, Gaussian, Inc.),
 the Gaussian 92(TM) system (copyright 1992, Gaussian, Inc.),
 the Gaussian 90(TM) system (copyright 1990, Gaussian, Inc.),
 the Gaussian 88(TM) system (copyright 1988, Gaussian, Inc.),
 the Gaussian 86(TM) system (copyright 1986, Carnegie Mellon
 University), and the Gaussian 82(TM) system (copyright 1983,
 Carnegie Mellon University). Gaussian is a federally registered
 trademark of Gaussian, Inc.
  
 This software contains proprietary and confidential information,
 including trade secrets, belonging to Gaussian, Inc.
  
 This software is provided under written license and may be
 used, copied, transmitted, or stored only in accord with that
 written license.
  
 The following legend is applicable only to US Government
 contracts under FAR:
  
                    RESTRICTED RIGHTS LEGEND
  
 Use, reproduction and disclosure by the US Government is
 subject to restrictions as set forth in subparagraphs (a)
 and (c) of the Commercial Computer Software - Restricted
 Rights clause in FAR 52.227-19.
  
 Gaussian, Inc.
 340 Quinnipiac St., Bldg. 40, Wallingford CT 06492
  
  
 ---------------------------------------------------------------
 Warning -- This program may not be used in any manner that
 competes with the business of Gaussian, Inc. or will provide
 assistance to any competitor of Gaussian, Inc.  The licensee
 of this program is prohibited from giving any competitor of
 Gaussian, Inc. access to this program.  By using this program,
 the user acknowledges that Gaussian, Inc. is engaged in the
 business of creating and licensing software in the field of
 computational chemistry and represents and warrants to the
 licensee that it is not a competitor of Gaussian, Inc. and that
 it will not use this program in any manner prohibited above.
 ---------------------------------------------------------------
  

 Cite this work as:
 Gaussian 03, Revision D.01,
 M. J. Frisch, G. W. Trucks, H. B. Schlegel, G. E. Scuseria, 
 M. A. Robb, J. R. Cheeseman, J. A. Montgomery, Jr., T. Vreven, 
 K. N. Kudin, J. C. Burant, J. M. Millam, S. S. Iyengar, J. Tomasi, 
 V. Barone, B. Mennucci, M. Cossi, G. Scalmani, N. Rega, 
 G. A. Petersson, H. Nakatsuji, M. Hada, M. Ehara, K. Toyota, 
 R. Fukuda, J. Hasegawa, M. Ishida, T. Nakajima, Y. Honda, O. Kitao, 
 H. Nakai, M. Klene, X. Li, J. E. Knox, H. P. Hratchian, J. B. Cross, 
 V. Bakken, C. Adamo, J. Jaramillo, R. Gomperts, R. E. Stratmann, 
 O. Yazyev, A. J. Austin, R. Cammi, C. Pomelli, J. W. Ochterski, 
 P. Y. Ayala, K. Morokuma, G. A. Voth, P. Salvador, J. J. Dannenberg, 
 V. G. Zakrzewski, S. Dapprich, A. D. Daniels, M. C. Strain, 
 O. Farkas, D. K. Malick, A. D. Rabuck, K. Raghavachari, 
 J. B. Foresman, J. V. Ortiz, Q. Cui, A. G. Baboul, S. Clifford, 
 J. Cioslowski, B. B. Stefanov, G. Liu, A. Liashenko, P. Piskorz, 
 I. Komaromi, R. L. Martin, D. J. Fox, T. Keith, M. A. Al-Laham, 
 C. Y. Peng, A. Nanayakkara, M. Challacombe, P. M. W. Gill, 
 B. Johnson, W. Chen, M. W. Wong, C. Gonzalez, and J. A. Pople, 
 Gaussian, Inc., Wallingford CT, 2004.
 
 ******************************************
 Gaussian 03:  IA32W-G03RevD.01 13-Oct-2005
                13-Dec-2007 
 ******************************************
 --------------
 # opt dreiding
 --------------
 1/6=10,10=10,14=-1,18=4000020,38=1,56=1,64=1/1,3;
 2/9=110,17=6,18=5,40=1/2;
 3/5=30,11=9,16=1,25=1,30=1/1;
 4/20=9,22=1001,24=3/2;
 7/44=-1/16;
 1/6=10,10=10,14=-1,18=4000020,64=1/3(2);
 2/9=110/2;
 99//99;
 2/9=110/2;
 3/5=30,11=9,16=1,25=1,30=1/1;
 4/16=2,20=9,22=1001,24=3/2;
 7/44=-1/16;
 1/6=10,10=10,14=-1,18=4000020,64=1/3(-4);
 2/9=110/2;
 99//99;
 ------------
 Me formate-Z
 ------------
 Symbolic Z-matrix:
 Charge =  0 Multiplicity = 1
 H                    -0.00263  -1.96391   0.00716 
 C                     0.27738  -0.88691  -0.00484 
 O                     1.40938  -0.46691  -0.03984 
 O                    -0.84563  -0.15491   0.02516 
 C                    -0.69163   1.24309   0.01616 
 H                    -1.71363   1.68109   0.04316 
 H                    -0.12763   1.56309   0.92316 
 H                    -0.18063   1.55709  -0.92384 
 
 I=    4 IAn=  8 Valence=24.
          JB=  1 J=    2 IAn=  6 IBT=12 Dist= 1.34D+00
          JB=  2 J=    5 IAn=  6 IBT= 1 Dist= 1.41D+00
 Include all MM classes
 MMInit generated parameter data with length LenPar=   655.

 GradGradGradGradGradGradGradGradGradGradGradGradGradGradGradGradGradGrad
 Berny optimization.
 Initialization pass.
 No Z-matrix variables, so optimization will use Cartesian coordinates.
 Trust Radius=1.00D-01 FncErr=1.00D-07 GrdErr=1.00D-07
 Number of steps in this run=   2 maximum allowed number of steps=   2.
 GradGradGradGradGradGradGradGradGradGradGradGradGradGradGradGradGradGrad

                          Input orientation:                          
 ---------------------------------------------------------------------
 Center     Atomic     Atomic              Coordinates (Angstroms)
 Number     Number      Type              X           Y           Z
 ---------------------------------------------------------------------
    1          1      10011000       -0.002625   -1.963906    0.007156
    2          6      10061000        0.277375   -0.886906   -0.004844
    3          8      10081002        1.409375   -0.466906   -0.039844
    4          8      10081003       -0.845625   -0.154906    0.025156
    5          6      10061003       -0.691625    1.243094    0.016156
    6          1      10011000       -1.713625    1.681094    0.043156
    7          1      10011000       -0.127625    1.563094    0.923156
    8          1      10011000       -0.180625    1.557094   -0.923844
 ---------------------------------------------------------------------
                    Distance matrix (angstroms):
                    1          2          3          4          5
     1  H    0.000000
     2  C    1.112867   0.000000
     3  O    2.058388   1.207911   0.000000
     4  O    1.995859   1.340840   2.277409   0.000000
     5  C    3.280191   2.340150   2.709509   1.406485   0.000000
     6  H    4.026766   3.249771   3.791296   2.030922   1.112231
     7  H    3.646150   2.650983   2.722249   2.067233   1.114964
     8  H    3.646352   2.650936   2.721421   2.067310   1.115041
                    6          7          8
     6  H    0.000000
     7  H    1.817614   0.000000
     8  H    1.816743   1.847770   0.000000
 Stoichiometry    C2H4O2
 Framework group  C1[X(C2H4O2)]
 Deg. of freedom    18
 Full point group                 C1
 Largest Abelian subgroup         C1      NOp   1
 Largest concise Abelian subgroup C1      NOp   1
                         Standard orientation:                         
 ---------------------------------------------------------------------
 Center     Atomic     Atomic              Coordinates (Angstroms)
 Number     Number      Type              X           Y           Z
 ---------------------------------------------------------------------
    1          1      10011000       -1.375159    1.402114    0.000242
    2          6      10061000       -0.819702    0.437780    0.000202
    3          8      10081002       -1.332595   -0.655834   -0.000141
    4          8      10081003        0.494507    0.703685   -0.000180
    5          6      10061003        1.364915   -0.401119    0.000203
    6          1      10011000        2.400924    0.003529   -0.001241
    7          1      10011000        1.204094   -1.003650    0.924453
    8          1      10011000        1.203568   -1.004770   -0.923317
 ---------------------------------------------------------------------
 Rotational constants (GHZ):     20.7227526      6.7142482      5.2525303
 Standard basis: Dummy (5D, 7F)
 There are     8 symmetry adapted basis functions of A   symmetry.
 Integral buffers will be    262144 words long.
 Raffenetti 1 integral format.
 Two-electron integral symmetry is turned on.
     8 basis functions,     8 primitive gaussians,     8 cartesian basis functions
     6 alpha electrons        6 beta electrons
       nuclear repulsion energy        17.6356875068 Hartrees.
 NAtoms=    8 NActive=    8 NUniq=    8 SFac= 7.50D-01 NAtFMM=   80 NAOKFM=F Big=F
 Dreiding calculation of energy and first derivatives.
 MO and density RWFs will be updated without deorthogonalization.
 NRF= 0 NRA=   0 NVA=   8 HaveQM=F
 Convergence limit is  0.750E-04 MaxStp=  5000 StMxLn= 1.00D-04 StpMin= 1.00D-06.
 Convergence criteria           0.00011250 0.00007500 0.00045000 0.00030000
  Step  NS  ND Rises OKQ   Scale  Max. Force  RMS Force Max. Disp.  RMS Disp.     Energy   Flag
     1   0   0   F    T  1.00D+00 0.11587344 0.02991376 0.11587344 0.02991376    0.0232773 ----
     2   0   0   F    F -1.74D-01 0.11587344 0.02991376 0.11587344 0.02991376    0.0148013 ----
     3   0   0   F    T  2.25D+00 0.02869349 0.01037324 0.02823927 0.01097924    0.0144077 ----
     4   0   0   F    F -4.42D-01 0.02869349 0.01037324 0.06355365 0.02470923    0.0137996 ----
     5   0   0   F    T  1.35D+00 0.02626425 0.00794379 0.02613690 0.01021176    0.0127855 ----
     6   0   0   F    F  6.45D-01 0.02626425 0.00794379 0.03531194 0.01379647    0.0113599 ----
     7   0   0   F    T  3.02D+00 0.01344683 0.00555442 0.01878874 0.00750372    0.0111006 ----
     8   0   0   F    F -3.93D-01 0.01344683 0.00555442 0.05681783 0.02269151    0.0107074 ----
     9   0   0   F    T  4.58D+00 0.00734751 0.00257685 0.00826168 0.00301105    0.0104167 ----
    10   0   0   F    F -4.13D-01 0.00734751 0.00257685 0.03782109 0.01378427    0.0103095 ----
    11   0   0   F    T  2.25D+00 0.00728299 0.00242493 0.00871969 0.00359530    0.0102022 ----
    12   0   0   T    F  4.50D-01 0.00728299 0.00242493 0.01961516 0.00808772    0.0102376 ----
    13   0   0   F    T  1.72D+00 0.00478453 0.00153918 0.00473434 0.00211360    0.0101308 ----
    14   0   0   F    F  1.15D+00 0.00478453 0.00153918 0.00815025 0.00363860    0.0100557 ----
    15   0   0   F    T  5.56D+00 0.00274220 0.00103672 0.00311450 0.00140526    0.0100257 ----
    16   0   0   T    F  3.14D-01 0.00274220 0.00103672 0.01733075 0.00781960    0.0101107 ----
    17   0   0   F    T  2.86D+00 0.00157837 0.00065178 0.00187886 0.00085766    0.0100031 ----
    18   0   0   F    F -4.41D-01 0.00157837 0.00065178 0.00537619 0.00245410    0.0100001 ----
    19   0   0   F    T  3.06D+00 0.00087944 0.00036166 0.00086344 0.00044787    0.0099950 ----
    20   0   0   T    F  2.96D-01 0.00087944 0.00036166 0.00264248 0.00137068    0.0100016 ----
    21   0   0   F    T  2.52D+00 0.00043442 0.00014431 0.00031310 0.00016092    0.0099936 --++
    22   0   0   T    F  4.56D-01 0.00043442 0.00014431 0.00079007 0.00040606    0.0099937 ----
    23   0   0   F    T  2.19D+00 0.00014422 0.00007351 0.00019948 0.00008455    0.0099933 -+++
    24   0   0   F    F  1.55D+00 0.00014422 0.00007351 0.00043694 0.00018519    0.0099931 -+++
    25   0   0   F    T  1.20D+01 0.00008865 0.00003469 0.00009012 0.00003947    0.0099929 ====
 Energy=    0.009992923871 NIter=   0.
 Dipole moment=       0.000000       0.000000       0.000000
 ***** Axes restored to original set *****
 -------------------------------------------------------------------
 Center     Atomic                   Forces (Hartrees/Bohr)
 Number     Number              X              Y              Z
 -------------------------------------------------------------------
    1          1          -0.000037313    0.000043519    0.000004586
    2          6           0.000124655    0.000000373   -0.000003599
    3          8          -0.000039880   -0.000050393    0.000002351
    4          8           0.000006768   -0.000027274   -0.000005270
    5          6          -0.000044408   -0.000002367   -0.000000026
    6          1           0.000033044    0.000029873    0.000001646
    7          1          -0.000020041    0.000000138   -0.000008445
    8          1          -0.000022825    0.000006131    0.000008758
 -------------------------------------------------------------------
 Cartesian Forces:  Max     0.000124655 RMS     0.000034692

 GradGradGradGradGradGradGradGradGradGradGradGradGradGradGradGradGradGrad
 Berny optimization.
 Search for a local minimum.
 Step number   1 out of a maximum of   2
 All quantities printed in internal units (Hartrees-Bohrs-Radians)
 Second derivative matrix not updated -- unit matrix used.
 RFO step:  Lambda=-2.88849298D-08.
 Linear search not attempted -- first point.
 TrRot=  0.000000  0.000000  0.000000  0.000000  0.000000  0.000000
 Variable       Old X    -DE/DX   Delta X   Delta X   Delta X     New X
                                 (Linear)    (Quad)   (Total)
    X1        0.19058  -0.00004   0.00000  -0.00004  -0.00004   0.19054
    Y1       -3.70173   0.00004   0.00000   0.00004   0.00004  -3.70169
    Z1        0.00802   0.00000   0.00000   0.00000   0.00000   0.00803
    X2        0.43774   0.00012   0.00000   0.00012   0.00012   0.43787
    Y2       -1.78988   0.00000   0.00000   0.00000   0.00000  -1.78988
    Z2       -0.00650   0.00000   0.00000   0.00000   0.00000  -0.00650
    X3        2.66105  -0.00004   0.00000  -0.00004  -0.00004   2.66101
    Y3       -0.97376  -0.00005   0.00000  -0.00005  -0.00005  -0.97381
    Z3       -0.07475   0.00000   0.00000   0.00000   0.00000  -0.07474
    X4       -1.66999   0.00001   0.00000   0.00001   0.00001  -1.66999
    Y4       -0.31669  -0.00003   0.00000  -0.00003  -0.00003  -0.31672
    Z4        0.04939  -0.00001   0.00000  -0.00001  -0.00001   0.04938
    X5       -1.33328  -0.00004   0.00000  -0.00004  -0.00004  -1.33333
    Y5        2.37944   0.00000   0.00000   0.00000   0.00000   2.37944
    Z5        0.03080   0.00000   0.00000   0.00000   0.00000   0.03080
    X6       -3.19244   0.00003   0.00000   0.00003   0.00003  -3.19241
    Y6        3.26534   0.00003   0.00000   0.00003   0.00003   3.26537
    Z6        0.08078   0.00000   0.00000   0.00000   0.00000   0.08078
    X7       -0.27039  -0.00002   0.00000  -0.00002  -0.00002  -0.27041
    Y7        3.00422   0.00000   0.00000   0.00000   0.00000   3.00422
    Z7        1.68679  -0.00001   0.00000  -0.00001  -0.00001   1.68678
    X8       -0.36650  -0.00002   0.00000  -0.00002  -0.00002  -0.36652
    Y8        2.99296   0.00001   0.00000   0.00001   0.00001   2.99297
    Z8       -1.68713   0.00001   0.00000   0.00001   0.00001  -1.68712
         Item               Value     Threshold  Converged?
 Maximum Force            0.000125     0.000450     YES
 RMS     Force            0.000035     0.000300     YES
 Maximum Displacement     0.000125     0.001800     YES
 RMS     Displacement     0.000035     0.001200     YES
 Predicted change in Energy=-1.444246D-08
 Optimization completed.
    -- Stationary point found.
 GradGradGradGradGradGradGradGradGradGradGradGradGradGradGradGradGradGrad

                          Input orientation:                          
 ---------------------------------------------------------------------
 Center     Atomic     Atomic              Coordinates (Angstroms)
 Number     Number      Type              X           Y           Z
 ---------------------------------------------------------------------
    1          1      10011000        0.100851   -1.958873    0.004245
    2          6      10061000        0.231642   -0.947164   -0.003439
    3          8      10081002        1.408169   -0.515290   -0.039554
    4          8      10081003       -0.883723   -0.167584    0.026136
    5          6      10061003       -0.705543    1.259145    0.016300
    6          1      10011000       -1.689368    1.727946    0.042745
    7          1      10011000       -0.143085    1.589763    0.892609
    8          1      10011000       -0.193944    1.583809   -0.892791
 ---------------------------------------------------------------------
                    Distance matrix (angstroms):
                    1          2          3          4          5
     1  H    0.000000
     2  C    1.020157   0.000000
     3  O    1.948058   1.253808   0.000000
     4  O    2.044158   1.361124   2.319048   0.000000
     5  C    3.317538   2.397188   2.760348   1.437846   0.000000
     6  H    4.098658   3.293725   3.825391   2.059702   1.090130
     7  H    3.666268   2.716491   2.776071   2.094657   1.092513
     8  H    3.666357   2.716228   2.775067   2.094660   1.092514
                    6          7          8
     6  H    0.000000
     7  H    1.769846   0.000000
     8  H    1.769830   1.786135   0.000000
 Stoichiometry    C2H4O2
 Framework group  C1[X(C2H4O2)]
 Deg. of freedom    18
 Full point group                 C1
 Largest Abelian subgroup         C1      NOp   1
 Largest concise Abelian subgroup C1      NOp   1
                         Standard orientation:                         
 ---------------------------------------------------------------------
 Center     Atomic     Atomic              Coordinates (Angstroms)
 Number     Number      Type              X           Y           Z
 ---------------------------------------------------------------------
    1          1      10011000       -1.470478    1.268865    0.000505
    2          6      10061000       -0.837750    0.468630    0.000139
    3          8      10081002       -1.350585   -0.675501   -0.000086
    4          8      10081003        0.499417    0.722883   -0.000207
    5          6      10061003        1.396092   -0.401116    0.000092
    6          1      10011000        2.418923   -0.024022   -0.000611
    7          1      10011000        1.255821   -1.013938    0.893601
    8          1      10011000        1.255032   -1.015046   -0.892534
 ---------------------------------------------------------------------
 Rotational constants (GHZ):     20.1050825      6.4773617      5.0566224
 1|1|UNPC-UNK|FOpt|Dreiding|ZDO|C2H4O2|PCUSER|13-Dec-2007|0||# opt drei
 ding||Me formate-Z||0,1|H,0.100851104,-1.9588734202,0.0042446919|C,0.2
 316423086,-0.9471644932,-0.0034387038|O,1.4081692755,-0.5152903282,-0.
 0395543236|O,-0.8837227266,-0.167584197,0.026136116|C,-0.7055431413,1.
 2591451742,0.0162999028|H,-1.6893677761,1.7279456189,0.0427445032|H,-0
 .1430854742,1.5897630748,0.8926092734|H,-0.1939435699,1.5838085707,-0.
 89279146||Version=IA32W-G03RevD.01|HF=0.0099929|RMSD=0.000e+000|RMSF=3
 .469e-005|Thermal=0.|Dipole=0.,0.,0.|PG=C01 [X(C2H4O2)]||@


 It is also a good rule not to put too much confidence in
 experimental results until they have been confirmed by
 Theory.
                             -- Sir Arthur Eddington
 Job cpu time:  0 days  0 hours  0 minutes  3.0 seconds.
 File lengths (MBytes):  RWF=     11 Int=      0 D2E=      0 Chk=      4 Scr=      1
 Normal termination of Gaussian 03 at Thu Dec 13 16:37:33 2007.
