 Entering Link 1 = C:\G03W\l1.exe PID=      3824.
  
 Copyright (c) 1988,1990,1992,1993,1995,1998,2003,2004, Gaussian, Inc.
                  All Rights Reserved.
  
 This is the Gaussian(R) 03 program.  It is based on the
 the Gaussian(R) 98 system (copyright 1998, Gaussian, Inc.),
 the Gaussian(R) 94 system (copyright 1995, Gaussian, Inc.),
 the Gaussian 92(TM) system (copyright 1992, Gaussian, Inc.),
 the Gaussian 90(TM) system (copyright 1990, Gaussian, Inc.),
 the Gaussian 88(TM) system (copyright 1988, Gaussian, Inc.),
 the Gaussian 86(TM) system (copyright 1986, Carnegie Mellon
 University), and the Gaussian 82(TM) system (copyright 1983,
 Carnegie Mellon University). Gaussian is a federally registered
 trademark of Gaussian, Inc.
  
 This software contains proprietary and confidential information,
 including trade secrets, belonging to Gaussian, Inc.
  
 This software is provided under written license and may be
 used, copied, transmitted, or stored only in accord with that
 written license.
  
 The following legend is applicable only to US Government
 contracts under FAR:
  
                    RESTRICTED RIGHTS LEGEND
  
 Use, reproduction and disclosure by the US Government is
 subject to restrictions as set forth in subparagraphs (a)
 and (c) of the Commercial Computer Software - Restricted
 Rights clause in FAR 52.227-19.
  
 Gaussian, Inc.
 340 Quinnipiac St., Bldg. 40, Wallingford CT 06492
  
  
 ---------------------------------------------------------------
 Warning -- This program may not be used in any manner that
 competes with the business of Gaussian, Inc. or will provide
 assistance to any competitor of Gaussian, Inc.  The licensee
 of this program is prohibited from giving any competitor of
 Gaussian, Inc. access to this program.  By using this program,
 the user acknowledges that Gaussian, Inc. is engaged in the
 business of creating and licensing software in the field of
 computational chemistry and represents and warrants to the
 licensee that it is not a competitor of Gaussian, Inc. and that
 it will not use this program in any manner prohibited above.
 ---------------------------------------------------------------
  

 Cite this work as:
 Gaussian 03, Revision D.01,
 M. J. Frisch, G. W. Trucks, H. B. Schlegel, G. E. Scuseria, 
 M. A. Robb, J. R. Cheeseman, J. A. Montgomery, Jr., T. Vreven, 
 K. N. Kudin, J. C. Burant, J. M. Millam, S. S. Iyengar, J. Tomasi, 
 V. Barone, B. Mennucci, M. Cossi, G. Scalmani, N. Rega, 
 G. A. Petersson, H. Nakatsuji, M. Hada, M. Ehara, K. Toyota, 
 R. Fukuda, J. Hasegawa, M. Ishida, T. Nakajima, Y. Honda, O. Kitao, 
 H. Nakai, M. Klene, X. Li, J. E. Knox, H. P. Hratchian, J. B. Cross, 
 V. Bakken, C. Adamo, J. Jaramillo, R. Gomperts, R. E. Stratmann, 
 O. Yazyev, A. J. Austin, R. Cammi, C. Pomelli, J. W. Ochterski, 
 P. Y. Ayala, K. Morokuma, G. A. Voth, P. Salvador, J. J. Dannenberg, 
 V. G. Zakrzewski, S. Dapprich, A. D. Daniels, M. C. Strain, 
 O. Farkas, D. K. Malick, A. D. Rabuck, K. Raghavachari, 
 J. B. Foresman, J. V. Ortiz, Q. Cui, A. G. Baboul, S. Clifford, 
 J. Cioslowski, B. B. Stefanov, G. Liu, A. Liashenko, P. Piskorz, 
 I. Komaromi, R. L. Martin, D. J. Fox, T. Keith, M. A. Al-Laham, 
 C. Y. Peng, A. Nanayakkara, M. Challacombe, P. M. W. Gill, 
 B. Johnson, W. Chen, M. W. Wong, C. Gonzalez, and J. A. Pople, 
 Gaussian, Inc., Wallingford CT, 2004.
 
 ******************************************
 Gaussian 03:  IA32W-G03RevD.01 13-Oct-2005
                13-Dec-2007 
 ******************************************
 --------------
 # opt dreiding
 --------------
 1/6=10,10=10,14=-1,18=4000020,38=1,56=1,64=1/1,3;
 2/9=110,17=6,18=5,40=1/2;
 3/5=30,11=9,16=1,25=1,30=1/1;
 4/20=9,22=1001,24=3/2;
 7/44=-1/16;
 1/6=10,10=10,14=-1,18=4000020,64=1/3(2);
 2/9=110/2;
 99//99;
 2/9=110/2;
 3/5=30,11=9,16=1,25=1,30=1/1;
 4/16=2,20=9,22=1001,24=3/2;
 7/44=-1/16;
 1/6=10,10=10,14=-1,18=4000020,64=1/3(-4);
 2/9=110/2;
 99//99;
 ------------
 Me formate-E
 ------------
 Symbolic Z-matrix:
 Charge =  0 Multiplicity = 1
 H                     0.52     -1.35069   0.03175 
 C                     0.709    -0.25369  -0.01225 
 O                     1.808     0.24231  -0.06325 
 O                    -0.431     0.45631  -0.00225 
 C                    -1.648    -0.24869   0.05775 
 H                    -2.461     0.51131   0.05575 
 H                    -1.748    -0.89969  -0.84125 
 H                    -1.693    -0.83569   1.00475 
 
 I=    4 IAn=  8 Valence=24.
          JB=  1 J=    2 IAn=  6 IBT=12 Dist= 1.34D+00
          JB=  2 J=    5 IAn=  6 IBT= 1 Dist= 1.41D+00
 Include all MM classes
 MMInit generated parameter data with length LenPar=   655.

 GradGradGradGradGradGradGradGradGradGradGradGradGradGradGradGradGradGrad
 Berny optimization.
 Initialization pass.
 No Z-matrix variables, so optimization will use Cartesian coordinates.
 Trust Radius=1.00D-01 FncErr=1.00D-07 GrdErr=1.00D-07
 Number of steps in this run=   2 maximum allowed number of steps=   2.
 GradGradGradGradGradGradGradGradGradGradGradGradGradGradGradGradGradGrad

                          Input orientation:                          
 ---------------------------------------------------------------------
 Center     Atomic     Atomic              Coordinates (Angstroms)
 Number     Number      Type              X           Y           Z
 ---------------------------------------------------------------------
    1          1      10011000        0.520000   -1.350688    0.031750
    2          6      10061000        0.709000   -0.253688   -0.012250
    3          8      10081002        1.808000    0.242313   -0.063250
    4          8      10081003       -0.431000    0.456313   -0.002250
    5          6      10061003       -1.648000   -0.248688    0.057750
    6          1      10011000       -2.461000    0.511313    0.055750
    7          1      10011000       -1.748000   -0.899688   -0.841250
    8          1      10011000       -1.693000   -0.835688    1.004750
 ---------------------------------------------------------------------
                    Distance matrix (angstroms):
                    1          2          3          4          5
     1  H    0.000000
     2  C    1.114031   0.000000
     3  O    2.050760   1.206821   0.000000
     4  O    2.042255   1.343056   2.250031   0.000000
     5  C    2.432140   2.358045   3.492801   1.407734   0.000000
     6  H    3.514823   3.261710   4.279122   2.031573   1.112912
     7  H    2.471711   2.672341   3.815047   2.068126   1.114451
     8  H    2.471704   2.672567   3.815719   2.067839   1.115080
                    6          7          8
     6  H    0.000000
     7  H    1.817663   0.000000
     8  H    1.817920   1.847928   0.000000
 Stoichiometry    C2H4O2
 Framework group  C1[X(C2H4O2)]
 Deg. of freedom    18
 Full point group                 C1
 Largest Abelian subgroup         C1      NOp   1
 Largest concise Abelian subgroup C1      NOp   1
                         Standard orientation:                         
 ---------------------------------------------------------------------
 Center     Atomic     Atomic              Coordinates (Angstroms)
 Number     Number      Type              X           Y           Z
 ---------------------------------------------------------------------
    1          1      10011000        0.406839    1.389333   -0.000823
    2          6      10061000        0.685979    0.310840   -0.000357
    3          8      10081002        1.822834   -0.094100    0.000427
    4          8      10081003       -0.392060   -0.490179   -0.000506
    5          6      10061003       -1.663793    0.113485    0.000472
    6          1      10011000       -2.411627   -0.710722    0.000747
    7          1      10011000       -1.786970    0.725021    0.923972
    8          1      10011000       -1.787551    0.724648   -0.923956
 ---------------------------------------------------------------------
 Rotational constants (GHZ):     48.3321935      4.6728757      4.3882510
 Standard basis: Dummy (5D, 7F)
 There are     8 symmetry adapted basis functions of A   symmetry.
 Integral buffers will be    262144 words long.
 Raffenetti 1 integral format.
 Two-electron integral symmetry is turned on.
     8 basis functions,     8 primitive gaussians,     8 cartesian basis functions
     6 alpha electrons        6 beta electrons
       nuclear repulsion energy        17.4577753881 Hartrees.
 NAtoms=    8 NActive=    8 NUniq=    8 SFac= 7.50D-01 NAtFMM=   80 NAOKFM=F Big=F
 Dreiding calculation of energy and first derivatives.
 MO and density RWFs will be updated without deorthogonalization.
 NRF= 0 NRA=   0 NVA=   8 HaveQM=F
 Convergence limit is  0.750E-04 MaxStp=  5000 StMxLn= 1.00D-04 StpMin= 1.00D-06.
 Convergence criteria           0.00011250 0.00007500 0.00045000 0.00030000
  Step  NS  ND Rises OKQ   Scale  Max. Force  RMS Force Max. Disp.  RMS Disp.     Energy   Flag
     1   0   0   F    T  1.00D+00 0.09139571 0.03146931 0.09139571 0.03146931    0.0219126 ----
     2   0   0   F    F -1.73D-01 0.09139571 0.03146931 0.09139571 0.03146931    0.0125039 ----
     3   0   0   F    T  2.37D+00 0.02742995 0.01041922 0.02826328 0.01097546    0.0120710 ----
     4   0   0   F    F -4.20D-01 0.02742995 0.01041922 0.06701072 0.02602223    0.0112218 ----
     5   0   0   F    T  1.36D+00 0.02017070 0.00846989 0.03648965 0.01110867    0.0102805 ----
     6   0   0   F    F  3.83D-01 0.02017070 0.00846989 0.04955130 0.01508507    0.0087908 ----
     7   0   0   F    T  3.44D+00 0.01221242 0.00480265 0.01816829 0.00605711    0.0086675 ----
     8   0   0   T    F  4.63D-01 0.01221242 0.00480265 0.06257818 0.02086289    0.0088241 ----
     9   0   0   F    T  3.84D+00 0.00599990 0.00218308 0.00612116 0.00251388    0.0082251 ----
    10   0   0   F    F -3.40D-01 0.00599990 0.00218308 0.02353104 0.00966389    0.0081183 ----
    11   0   0   F    T  1.56D+00 0.00565338 0.00248005 0.00960343 0.00408330    0.0080800 ----
    12   0   0   F    F -1.53D-01 0.00565338 0.00248005 0.01500744 0.00638105    0.0079856 ----
    13   0   0   F    T  1.92D+00 0.00425903 0.00179717 0.00592992 0.00281147    0.0079824 ----
    14   0   0   F    F  1.25D+00 0.00425903 0.00179717 0.01139662 0.00540332    0.0078667 ----
    15   0   0   F    T  4.26D+00 0.00478629 0.00163289 0.00724315 0.00285206    0.0078153 ----
    16   0   0   T    F  2.69D-01 0.00478629 0.00163289 0.03084999 0.01214746    0.0080464 ----
    17   0   0   F    T  3.97D+00 0.00176745 0.00066533 0.00175502 0.00082508    0.0077786 ----
    18   0   0   F    F -2.99D-01 0.00176745 0.00066533 0.00696116 0.00327260    0.0077666 ----
    19   0   0   F    T  1.20D+00 0.00253859 0.00094194 0.00391964 0.00190451    0.0077639 ----
    20   0   0   F    F  6.62D-01 0.00253859 0.00094194 0.00471888 0.00229285    0.0077460 ----
    21   0   0   F    T  2.21D+00 0.00177214 0.00083584 0.00411544 0.00172545    0.0077426 ----
    22   0   0   F    F -9.45D-02 0.00177214 0.00083584 0.00909001 0.00381110    0.0077260 ----
    23   0   0   F    T  3.53D+00 0.00127149 0.00056542 0.00195146 0.00097874    0.0077258 ----
    24   0   0   F    F  3.81D-02 0.00127149 0.00056542 0.00688038 0.00345080    0.0077118 ----
    25   0   0   F    T  4.81D+00 0.00151220 0.00044261 0.00158595 0.00074538    0.0077118 ----
    26   0   0   T    F  1.86D-01 0.00151220 0.00044261 0.00762216 0.00358231    0.0077498 ----
    27   0   0   F    T  2.02D+00 0.00051277 0.00024269 0.00073169 0.00033027    0.0077097 ----
    28   0   0   F    F  7.87D-01 0.00051277 0.00024269 0.00147609 0.00066627    0.0077076 ----
    29   0   0   F    T  2.01D+00 0.00114150 0.00030176 0.00151877 0.00059345    0.0077071 ----
    30   0   0   F    F -3.37D-01 0.00114150 0.00030176 0.00304700 0.00119059    0.0077060 ----
    31   0   0   F    T  1.30D+01 0.00013944 0.00005708 0.00014905 0.00006084    0.0077057 -+++
    32   0   0   T    F  1.12D-01 0.00013944 0.00005708 0.00193447 0.00078965    0.0077092 -+--
    33   0   0   F    T  1.20D+00 0.00018781 0.00005261 0.00015038 0.00007376    0.0077056 -+++
    34   0   0   F    F  8.13D-01 0.00018781 0.00005261 0.00018093 0.00008874    0.0077056 -+++
    35   0   0   F    T  1.74D+00 0.00014368 0.00005317 0.00018612 0.00009221    0.0077055 -+++
    36   0   0   F    T  1.04D+01 0.00004675 0.00001550 0.00004577 0.00001540    0.0077055 ====
 Energy=    0.007705473803 NIter=   0.
 Dipole moment=       0.000000       0.000000       0.000000
 ***** Axes restored to original set *****
 -------------------------------------------------------------------
 Center     Atomic                   Forces (Hartrees/Bohr)
 Number     Number              X              Y              Z
 -------------------------------------------------------------------
    1          1           0.000002247   -0.000015556    0.000003010
    2          6           0.000026544   -0.000000124   -0.000000474
    3          8          -0.000047689    0.000009286    0.000000185
    4          8           0.000019733   -0.000012137   -0.000001155
    5          6           0.000019648    0.000011647   -0.000001042
    6          1          -0.000005137   -0.000017826    0.000001992
    7          1          -0.000008971    0.000012714   -0.000018688
    8          1          -0.000006375    0.000011996    0.000016172
 -------------------------------------------------------------------
 Cartesian Forces:  Max     0.000047689 RMS     0.000015502

 GradGradGradGradGradGradGradGradGradGradGradGradGradGradGradGradGradGrad
 Berny optimization.
 Search for a local minimum.
 Step number   1 out of a maximum of   2
 All quantities printed in internal units (Hartrees-Bohrs-Radians)
 Second derivative matrix not updated -- unit matrix used.
 RFO step:  Lambda= 0.00000000D+00.
 Linear search not attempted -- first point.
 TrRot=  0.000000  0.000000  0.000000  0.000000  0.000000  0.000000
 Variable       Old X    -DE/DX   Delta X   Delta X   Delta X     New X
                                 (Linear)    (Quad)   (Total)
    X1        1.23982   0.00000   0.00000   0.00000   0.00000   1.23983
    Y1       -2.52267  -0.00002   0.00000  -0.00002  -0.00002  -2.52269
    Z1        0.05157   0.00000   0.00000   0.00000   0.00000   0.05157
    X2        1.31136   0.00003   0.00000   0.00003   0.00003   1.31139
    Y2       -0.58987   0.00000   0.00000   0.00000   0.00000  -0.58987
    Z2       -0.01853   0.00000   0.00000   0.00000   0.00000  -0.01853
    X3        3.42660  -0.00005   0.00000  -0.00005  -0.00005   3.42655
    Y3        0.45692   0.00001   0.00000   0.00001   0.00001   0.45693
    Z3       -0.11977   0.00000   0.00000   0.00000   0.00000  -0.11977
    X4       -0.78981   0.00002   0.00000   0.00002   0.00002  -0.78979
    Y4        0.88785  -0.00001   0.00000  -0.00001  -0.00001   0.88784
    Z4       -0.00634   0.00000   0.00000   0.00000   0.00000  -0.00634
    X5       -3.15544   0.00002   0.00000   0.00002   0.00002  -3.15542
    Y5       -0.44186   0.00001   0.00000   0.00001   0.00001  -0.44185
    Z5        0.10991   0.00000   0.00000   0.00000   0.00000   0.10991
    X6       -4.67780  -0.00001   0.00000  -0.00001  -0.00001  -4.67780
    Y6        0.94608  -0.00002   0.00000  -0.00002  -0.00002   0.94606
    Z6        0.10711   0.00000   0.00000   0.00000   0.00000   0.10711
    X7       -3.39888  -0.00001   0.00000  -0.00001  -0.00001  -3.39889
    Y7       -1.67393   0.00001   0.00000   0.00001   0.00001  -1.67392
    Z7       -1.52955  -0.00002   0.00000  -0.00002  -0.00002  -1.52957
    X8       -3.29867  -0.00001   0.00000  -0.00001  -0.00001  -3.29868
    Y8       -1.55722   0.00001   0.00000   0.00001   0.00001  -1.55721
    Z8        1.84212   0.00002   0.00000   0.00002   0.00002   1.84214
         Item               Value     Threshold  Converged?
 Maximum Force            0.000048     0.000450     YES
 RMS     Force            0.000016     0.000300     YES
 Maximum Displacement     0.000048     0.001800     YES
 RMS     Displacement     0.000016     0.001200     YES
 Predicted change in Energy=-2.883899D-09
 Optimization completed.
    -- Stationary point found.
 GradGradGradGradGradGradGradGradGradGradGradGradGradGradGradGradGradGrad

                          Input orientation:                          
 ---------------------------------------------------------------------
 Center     Atomic     Atomic              Coordinates (Angstroms)
 Number     Number      Type              X           Y           Z
 ---------------------------------------------------------------------
    1          1      10011000        0.656086   -1.334939    0.027287
    2          6      10061000        0.693943   -0.312147   -0.009805
    3          8      10081002        1.813279    0.241790   -0.063377
    4          8      10081003       -0.417949    0.469829   -0.003354
    5          6      10061003       -1.669785   -0.233825    0.058163
    6          1      10011000       -2.475384    0.500643    0.056680
    7          1      10011000       -1.798609   -0.885807   -0.809402
    8          1      10011000       -1.745580   -0.824045    0.974808
 ---------------------------------------------------------------------
                    Distance matrix (angstroms):
                    1          2          3          4          5
     1  H    0.000000
     2  C    1.024164   0.000000
     3  O    1.957905   1.250052   0.000000
     4  O    2.100400   1.359350   2.243654   0.000000
     5  C    2.573535   2.366001   3.517487   1.437361   0.000000
     6  H    3.629922   3.272565   4.298145   2.058542   1.090154
     7  H    2.631976   2.679787   3.856652   2.096112   1.092861
     8  H    2.631883   2.680070   3.857372   2.096072   1.092859
                    6          7          8
     6  H    0.000000
     7  H    1.769284   0.000000
     8  H    1.769285   1.786065   0.000000
 Stoichiometry    C2H4O2
 Framework group  C1[X(C2H4O2)]
 Deg. of freedom    18
 Full point group                 C1
 Largest Abelian subgroup         C1      NOp   1
 Largest concise Abelian subgroup C1      NOp   1
                         Standard orientation:                         
 ---------------------------------------------------------------------
 Center     Atomic     Atomic              Coordinates (Angstroms)
 Number     Number      Type              X           Y           Z
 ---------------------------------------------------------------------
    1          1      10011000        0.558680    1.375804   -0.000675
    2          6      10061000        0.671551    0.357878   -0.000269
    3          8      10081002        1.829146   -0.113929    0.000328
    4          8      10081003       -0.380532   -0.502909   -0.000394
    5          6      10061003       -1.681290    0.108674    0.000258
    6          1      10011000       -2.431220   -0.682553    0.000489
    7          1      10011000       -1.828598    0.720974    0.893418
    8          1      10011000       -1.829341    0.721163   -0.892647
 ---------------------------------------------------------------------
 Rotational constants (GHZ):     46.4155710      4.6243183      4.3209421
 1|1|UNPC-UNK|FOpt|Dreiding|ZDO|C2H4O2|PCUSER|13-Dec-2007|0||# opt drei
 ding||Me formate-E||0,1|H,0.6560860231,-1.3349392163,0.0272872904|C,0.
 6939426566,-0.3121471795,-0.0098045362|O,1.8132792204,0.2417904135,-0.
 0633771594|O,-0.4179489061,0.4698291082,-0.0033544773|C,-1.6697849779,
 -0.2338246436,0.0581632073|H,-2.4753842293,0.5006433164,0.0566798603|H
 ,-1.7986092943,-0.8858067707,-0.8094016965|H,-1.7455804925,-0.82404502
 79,0.9748075114||Version=IA32W-G03RevD.01|HF=0.0077055|RMSD=0.000e+000
 |RMSF=1.550e-005|Thermal=0.|Dipole=0.,0.,0.|PG=C01 [X(C2H4O2)]||@


 The juvenile sea squirt wanders through the sea searching
 for a suitable rock or hunk of coral to cling to and make
 its home for life.  For this task it has a rudimentary
 nervous system.  When it finds its spot and takes root, it
 doesn't need its brain any more so it eats it.
 It's rather like getting tenure.

                               -- source unknown
 Job cpu time:  0 days  0 hours  0 minutes  3.0 seconds.
 File lengths (MBytes):  RWF=     11 Int=      0 D2E=      0 Chk=      4 Scr=      1
 Normal termination of Gaussian 03 at Thu Dec 13 16:37:28 2007.
