 Entering Link 1 = C:\G03W\l1.exe PID=      2552.
  
 Copyright (c) 1988,1990,1992,1993,1995,1998,2003,2004, Gaussian, Inc.
                  All Rights Reserved.
  
 This is the Gaussian(R) 03 program.  It is based on the
 the Gaussian(R) 98 system (copyright 1998, Gaussian, Inc.),
 the Gaussian(R) 94 system (copyright 1995, Gaussian, Inc.),
 the Gaussian 92(TM) system (copyright 1992, Gaussian, Inc.),
 the Gaussian 90(TM) system (copyright 1990, Gaussian, Inc.),
 the Gaussian 88(TM) system (copyright 1988, Gaussian, Inc.),
 the Gaussian 86(TM) system (copyright 1986, Carnegie Mellon
 University), and the Gaussian 82(TM) system (copyright 1983,
 Carnegie Mellon University). Gaussian is a federally registered
 trademark of Gaussian, Inc.
  
 This software contains proprietary and confidential information,
 including trade secrets, belonging to Gaussian, Inc.
  
 This software is provided under written license and may be
 used, copied, transmitted, or stored only in accord with that
 written license.
  
 The following legend is applicable only to US Government
 contracts under FAR:
  
                    RESTRICTED RIGHTS LEGEND
  
 Use, reproduction and disclosure by the US Government is
 subject to restrictions as set forth in subparagraphs (a)
 and (c) of the Commercial Computer Software - Restricted
 Rights clause in FAR 52.227-19.
  
 Gaussian, Inc.
 340 Quinnipiac St., Bldg. 40, Wallingford CT 06492
  
  
 ---------------------------------------------------------------
 Warning -- This program may not be used in any manner that
 competes with the business of Gaussian, Inc. or will provide
 assistance to any competitor of Gaussian, Inc.  The licensee
 of this program is prohibited from giving any competitor of
 Gaussian, Inc. access to this program.  By using this program,
 the user acknowledges that Gaussian, Inc. is engaged in the
 business of creating and licensing software in the field of
 computational chemistry and represents and warrants to the
 licensee that it is not a competitor of Gaussian, Inc. and that
 it will not use this program in any manner prohibited above.
 ---------------------------------------------------------------
  

 Cite this work as:
 Gaussian 03, Revision D.01,
 M. J. Frisch, G. W. Trucks, H. B. Schlegel, G. E. Scuseria, 
 M. A. Robb, J. R. Cheeseman, J. A. Montgomery, Jr., T. Vreven, 
 K. N. Kudin, J. C. Burant, J. M. Millam, S. S. Iyengar, J. Tomasi, 
 V. Barone, B. Mennucci, M. Cossi, G. Scalmani, N. Rega, 
 G. A. Petersson, H. Nakatsuji, M. Hada, M. Ehara, K. Toyota, 
 R. Fukuda, J. Hasegawa, M. Ishida, T. Nakajima, Y. Honda, O. Kitao, 
 H. Nakai, M. Klene, X. Li, J. E. Knox, H. P. Hratchian, J. B. Cross, 
 V. Bakken, C. Adamo, J. Jaramillo, R. Gomperts, R. E. Stratmann, 
 O. Yazyev, A. J. Austin, R. Cammi, C. Pomelli, J. W. Ochterski, 
 P. Y. Ayala, K. Morokuma, G. A. Voth, P. Salvador, J. J. Dannenberg, 
 V. G. Zakrzewski, S. Dapprich, A. D. Daniels, M. C. Strain, 
 O. Farkas, D. K. Malick, A. D. Rabuck, K. Raghavachari, 
 J. B. Foresman, J. V. Ortiz, Q. Cui, A. G. Baboul, S. Clifford, 
 J. Cioslowski, B. B. Stefanov, G. Liu, A. Liashenko, P. Piskorz, 
 I. Komaromi, R. L. Martin, D. J. Fox, T. Keith, M. A. Al-Laham, 
 C. Y. Peng, A. Nanayakkara, M. Challacombe, P. M. W. Gill, 
 B. Johnson, W. Chen, M. W. Wong, C. Gonzalez, and J. A. Pople, 
 Gaussian, Inc., Wallingford CT, 2004.
 
 ******************************************
 Gaussian 03:  IA32W-G03RevD.01 13-Oct-2005
                13-Dec-2007 
 ******************************************
 --------------
 # opt dreiding
 --------------
 1/6=10,10=10,14=-1,18=4000020,38=1,56=1,64=1/1,3;
 2/9=110,17=6,18=5,40=1/2;
 3/5=30,11=9,16=1,25=1,30=1/1;
 4/20=9,22=1001,24=3/2;
 7/44=-1/16;
 1/6=10,10=10,14=-1,18=4000020,64=1/3(2);
 2/9=110/2;
 99//99;
 2/9=110/2;
 3/5=30,11=9,16=1,25=1,30=1/1;
 4/16=2,20=9,22=1001,24=3/2;
 7/44=-1/16;
 1/6=10,10=10,14=-1,18=4000020,64=1/3(-4);
 2/9=110/2;
 99//99;
 --------------------
 me-vinyl ether-s-cis
 --------------------
 Symbolic Z-matrix:
 Charge =  0 Multiplicity = 1
 C                     0.97909  -1.22084  -0.16022 
 C                     0.76609   0.05116  -0.53522 
 O                    -0.26091   0.88316  -0.18422 
 C                    -1.24891   0.37016   0.68778 
 H                     1.86009  -1.77284  -0.52722 
 H                     0.30209  -1.76584   0.51578 
 H                     1.50709   0.50516  -1.21822 
 H                    -2.00091   1.17416   0.86578 
 H                    -1.76691  -0.49984   0.21578 
 H                    -0.79191   0.09116   1.66778 
 
 I=    1 IAn=  6 Valence= 6.
          JB=  1 J=    2 IAn=  6 IBT= 2 Dist= 1.34D+00
          JB=  2 J=    5 IAn=  1 IBT= 1 Dist= 1.10D+00
          JB=  3 J=    6 IAn=  1 IBT= 1 Dist= 1.10D+00
 I=    2 IAn=  6 Valence= 6.
          JB=  1 J=    1 IAn=  6 IBT= 2 Dist= 1.34D+00
          JB=  2 J=    3 IAn=  8 IBT=12 Dist= 1.37D+00
          JB=  3 J=    7 IAn=  1 IBT= 1 Dist= 1.11D+00
 I=    3 IAn=  8 Valence=24.
          JB=  1 J=    2 IAn=  6 IBT=12 Dist= 1.37D+00
          JB=  2 J=    4 IAn=  6 IBT= 1 Dist= 1.41D+00
 Include all MM classes
 MMInit generated parameter data with length LenPar=   798.

 GradGradGradGradGradGradGradGradGradGradGradGradGradGradGradGradGradGrad
 Berny optimization.
 Initialization pass.
 No Z-matrix variables, so optimization will use Cartesian coordinates.
 Trust Radius=1.00D-01 FncErr=1.00D-07 GrdErr=1.00D-07
 Number of steps in this run=   2 maximum allowed number of steps=   2.
 GradGradGradGradGradGradGradGradGradGradGradGradGradGradGradGradGradGrad

                          Input orientation:                          
 ---------------------------------------------------------------------
 Center     Atomic     Atomic              Coordinates (Angstroms)
 Number     Number      Type              X           Y           Z
 ---------------------------------------------------------------------
    1          6      10061002        0.979094   -1.220844   -0.160219
    2          6      10061000        0.766094    0.051156   -0.535219
    3          8      10081003       -0.260906    0.883156   -0.184219
    4          6      10061003       -1.248906    0.370156    0.687781
    5          1      10011000        1.860094   -1.772844   -0.527219
    6          1      10011000        0.302094   -1.765844    0.515781
    7          1      10011000        1.507094    0.505156   -1.218219
    8          1      10011000       -2.000906    1.174156    0.865781
    9          1      10011000       -1.766906   -0.499844    0.215781
   10          1      10011000       -0.791906    0.091156    1.667781
 ---------------------------------------------------------------------
                    Distance matrix (angstroms):
                    1          2          3          4          5
     1  C    0.000000
     2  C    1.343122   0.000000
     3  O    2.442333   1.367536   0.000000
     4  C    2.866072   2.378595   1.414106   0.000000
     5  H    1.102522   2.126941   3.416230   3.966681   0.000000
     6  H    1.101059   2.149741   2.797172   2.645313   1.874903
     7  H    2.092182   1.105299   2.082754   3.353595   2.406527
     8  H    3.958422   3.298518   2.052993   1.115170   5.052977
     9  H    2.863867   2.698831   2.083441   1.117143   3.915062
    10  H    2.863454   2.698550   2.083058   1.116732   3.914796
                    6          7          8          9         10
     6  H    0.000000
     7  H    3.101003   0.000000
     8  H    3.750988   4.134813   0.000000
     9  H    2.444078   3.712877   1.810948   0.000000
    10  H    2.443847   3.712922   1.810462   1.846134   0.000000
 Stoichiometry    C3H6O
 Framework group  C1[X(C3H6O)]
 Deg. of freedom    24
 Full point group                 C1
 Largest Abelian subgroup         C1      NOp   1
 Largest concise Abelian subgroup C1      NOp   1
                         Standard orientation:                         
 ---------------------------------------------------------------------
 Center     Atomic     Atomic              Coordinates (Angstroms)
 Number     Number      Type              X           Y           Z
 ---------------------------------------------------------------------
    1          6      10061002        1.468003    0.565440   -0.000134
    2          6      10061000        0.745023   -0.566495    0.000038
    3          8      10081003       -0.614988   -0.709763   -0.000090
    4          6      10061003       -1.396440    0.468808    0.000033
    5          1      10011000        2.569826    0.526194    0.000029
    6          1      10011000        1.010226    1.566824    0.000166
    7          1      10011000        1.303590   -1.520271    0.000583
    8          1      10011000       -2.470497    0.168797   -0.000279
    9          1      10011000       -1.196449    1.065021    0.923365
   10          1      10011000       -1.196304    1.065023   -0.922769
 ---------------------------------------------------------------------
 Rotational constants (GHZ):     18.5217542      6.1486149      4.7657133
 Standard basis: Dummy (5D, 7F)
 There are    10 symmetry adapted basis functions of A   symmetry.
 Integral buffers will be    262144 words long.
 Raffenetti 1 integral format.
 Two-electron integral symmetry is turned on.
    10 basis functions,    10 primitive gaussians,    10 cartesian basis functions
     7 alpha electrons        7 beta electrons
       nuclear repulsion energy        23.0626210637 Hartrees.
 NAtoms=   10 NActive=   10 NUniq=   10 SFac= 7.50D-01 NAtFMM=   80 NAOKFM=F Big=F
 Dreiding calculation of energy and first derivatives.
 MO and density RWFs will be updated without deorthogonalization.
 NRF= 0 NRA=   0 NVA=  10 HaveQM=F
 Convergence limit is  0.750E-04 MaxStp=  5000 StMxLn= 1.00D-04 StpMin= 1.00D-06.
 Convergence criteria           0.00011250 0.00007500 0.00045000 0.00030000
  Step  NS  ND Rises OKQ   Scale  Max. Force  RMS Force Max. Disp.  RMS Disp.     Energy   Flag
     1   0   0   F    T  1.00D+00 0.08778381 0.03171409 0.08778381 0.03171409    0.0361529 ----
     2   0   0   F    F -1.73D-01 0.08778381 0.03171409 0.08778381 0.03171409    0.0242466 ----
     3   0   0   F    T  1.49D+00 0.04342137 0.01574481 0.04912574 0.01757838    0.0237002 ----
     4   0   0   F    F -2.27D-02 0.04342137 0.01574481 0.07325927 0.02621395    0.0182873 ----
     5   0   0   F    T  1.87D+00 0.03714921 0.01085150 0.03505654 0.01368115    0.0182844 ----
     6   0   0   F    F -3.30D-01 0.03714921 0.01085150 0.06564846 0.02561994    0.0166094 ----
     7   0   0   F    T  3.72D+00 0.00978397 0.00415593 0.01066388 0.00460827    0.0160723 ----
     8   0   0   T    F  3.57D-01 0.00978397 0.00415593 0.03969375 0.01715318    0.0168525 ----
     9   0   0   F    T  3.72D+00 0.00295821 0.00152818 0.00297633 0.00164929    0.0157272 ----
    10   0   0   F    F  4.70D-01 0.00295821 0.00152818 0.01106194 0.00612982    0.0155554 ----
    11   0   0   F    T  4.90D+00 0.00350009 0.00133665 0.00359398 0.00183977    0.0155359 ----
    12   0   0   T    F  4.14D-01 0.00350009 0.00133665 0.01759822 0.00900858    0.0155906 ----
    13   0   0   F    T  1.11D+00 0.00639890 0.00168144 0.00705539 0.00336081    0.0154816 ----
    14   0   0   F    F  4.30D-01 0.00639890 0.00168144 0.00782873 0.00372919    0.0154203 ----
    15   0   0   F    T  2.56D+00 0.00327643 0.00119684 0.00476789 0.00207995    0.0154142 ----
    16   0   0   F    F  6.44D-01 0.00327643 0.00119684 0.01222235 0.00533190    0.0153376 ----
    17   0   0   F    T  4.48D+00 0.00336368 0.00106345 0.00462148 0.00195708    0.0153237 ----
    18   0   0   F    F -2.72D-01 0.00336368 0.00106345 0.02069975 0.00876583    0.0152761 ----
    19   0   0   F    T  2.22D+00 0.00400935 0.00122354 0.00669217 0.00287996    0.0152685 ----
    20   0   0   F    F -2.21D-01 0.00400935 0.00122354 0.01483623 0.00638473    0.0152329 ----
    21   0   0   F    T  4.94D+00 0.00172220 0.00062736 0.00255811 0.00100675    0.0152298 ----
    22   0   0   T    F  3.46D-01 0.00172220 0.00062736 0.01263799 0.00497371    0.0152558 ----
    23   0   0   F    T  1.70D+00 0.00116773 0.00057073 0.00308975 0.00101103    0.0152197 ----
    24   0   0   F    F  1.28D-01 0.00116773 0.00057073 0.00525633 0.00171997    0.0152104 ----
    25   0   0   F    T  1.23D+00 0.00229673 0.00067783 0.00504243 0.00157910    0.0152103 ----
    26   0   0   F    F  6.89D-01 0.00229673 0.00067783 0.00619368 0.00193962    0.0151984 ----
    27   0   0   F    T  1.13D+01 0.00056735 0.00022664 0.00068327 0.00028906    0.0151960 ---+
    28   0   0   F    F -4.83D-01 0.00056735 0.00022664 0.00774252 0.00327551    0.0151955 ----
    29   0   0   F    T  3.12D+00 0.00086119 0.00028614 0.00124643 0.00054251    0.0151915 ----
    30   0   0   F    F -4.78D-01 0.00086119 0.00028614 0.00388798 0.00169225    0.0151912 ----
    31   0   0   F    T  4.12D+00 0.00037281 0.00015147 0.00052260 0.00021476    0.0151895 ---+
    32   0   0   T    F  2.17D-01 0.00037281 0.00015147 0.00215068 0.00088381    0.0151932 ----
    33   0   0   F    T  1.37D+00 0.00020087 0.00010125 0.00039640 0.00013949    0.0151892 --++
    34   0   0   F    F  3.11D+00 0.00020087 0.00010125 0.00054495 0.00019176    0.0151888 ---+
    35   0   0   F    T  5.11D+00 0.00025641 0.00009466 0.00038677 0.00015440    0.0151883 --++
    36   0   0   T    F  2.05D-01 0.00025641 0.00009466 0.00197456 0.00078825    0.0151903 ----
    37   0   0   F    T  3.27D+00 0.00009948 0.00004042 0.00012101 0.00004926    0.0151882 ====
 Energy=    0.015188204867 NIter=   0.
 Dipole moment=       0.000000       0.000000       0.000000
 ***** Axes restored to original set *****
 -------------------------------------------------------------------
 Center     Atomic                   Forces (Hartrees/Bohr)
 Number     Number              X              Y              Z
 -------------------------------------------------------------------
    1          6          -0.000008222   -0.000061257    0.000030626
    2          6           0.000020430    0.000034897   -0.000028356
    3          8          -0.000050593    0.000067042    0.000010020
    4          6           0.000020910    0.000000394   -0.000012627
    5          1           0.000054149   -0.000013074   -0.000028955
    6          1           0.000015586   -0.000070973    0.000018190
    7          1           0.000027269   -0.000012547   -0.000017410
    8          1          -0.000014605   -0.000089030    0.000046832
    9          1          -0.000025328    0.000075995   -0.000001420
   10          1          -0.000039596    0.000068551   -0.000016898
 -------------------------------------------------------------------
 Cartesian Forces:  Max     0.000089030 RMS     0.000040418

 GradGradGradGradGradGradGradGradGradGradGradGradGradGradGradGradGradGrad
 Berny optimization.
 Search for a local minimum.
 Step number   1 out of a maximum of   2
 All quantities printed in internal units (Hartrees-Bohrs-Radians)
 Second derivative matrix not updated -- unit matrix used.
 RFO step:  Lambda=-4.90095174D-08.
 Linear search not attempted -- first point.
 TrRot=  0.000000  0.000000  0.000000  0.000000  0.000000  0.000000
 Variable       Old X    -DE/DX   Delta X   Delta X   Delta X     New X
                                 (Linear)    (Quad)   (Total)
    X1        1.93178  -0.00001   0.00000  -0.00001  -0.00001   1.93178
    Y1       -2.37956  -0.00006   0.00000  -0.00006  -0.00006  -2.37962
    Z1       -0.32844   0.00003   0.00000   0.00003   0.00003  -0.32841
    X2        1.49767   0.00002   0.00000   0.00002   0.00002   1.49769
    Y2        0.07167   0.00003   0.00000   0.00003   0.00003   0.07170
    Z2       -1.03519  -0.00003   0.00000  -0.00003  -0.00003  -1.03522
    X3       -0.45692  -0.00005   0.00000  -0.00005  -0.00005  -0.45697
    Y3        1.60150   0.00007   0.00000   0.00007   0.00007   1.60156
    Z3       -0.34463   0.00001   0.00000   0.00001   0.00001  -0.34462
    X4       -2.40983   0.00002   0.00000   0.00002   0.00002  -2.40981
    Y4        0.72039   0.00000   0.00000   0.00000   0.00000   0.72039
    Z4        1.32460  -0.00001   0.00000  -0.00001  -0.00001   1.32458
    X5        3.44082   0.00005   0.00000   0.00005   0.00005   3.44087
    Y5       -3.28613  -0.00001   0.00000  -0.00001  -0.00001  -3.28614
    Z5       -0.97218  -0.00003   0.00000  -0.00003  -0.00003  -0.97221
    X6        0.76926   0.00002   0.00000   0.00002   0.00002   0.76927
    Y6       -3.28778  -0.00007   0.00000  -0.00007  -0.00007  -3.28785
    Z6        0.82162   0.00002   0.00000   0.00002   0.00002   0.82164
    X7        2.78857   0.00003   0.00000   0.00003   0.00003   2.78860
    Y7        0.87191  -0.00001   0.00000  -0.00001  -0.00001   0.87189
    Z7       -2.22864  -0.00002   0.00000  -0.00002  -0.00002  -2.22866
    X8       -3.75890  -0.00001   0.00000  -0.00001  -0.00001  -3.75892
    Y8        2.25135  -0.00009   0.00000  -0.00009  -0.00009   2.25126
    Z8        1.60752   0.00005   0.00000   0.00005   0.00005   1.60757
    X9       -3.41204  -0.00003   0.00000  -0.00003  -0.00003  -3.41206
    Y9       -0.88605   0.00008   0.00000   0.00008   0.00008  -0.88597
    Z9        0.50370   0.00000   0.00000   0.00000   0.00000   0.50370
   X10       -1.62831  -0.00004   0.00000  -0.00004  -0.00004  -1.62835
   Y10        0.19471   0.00007   0.00000   0.00007   0.00007   0.19478
   Z10        3.16086  -0.00002   0.00000  -0.00002  -0.00002   3.16084
         Item               Value     Threshold  Converged?
 Maximum Force            0.000089     0.000450     YES
 RMS     Force            0.000040     0.000300     YES
 Maximum Displacement     0.000089     0.001800     YES
 RMS     Displacement     0.000040     0.001200     YES
 Predicted change in Energy=-2.450476D-08
 Optimization completed.
    -- Stationary point found.
 GradGradGradGradGradGradGradGradGradGradGradGradGradGradGradGradGradGrad

                          Input orientation:                          
 ---------------------------------------------------------------------
 Center     Atomic     Atomic              Coordinates (Angstroms)
 Number     Number      Type              X           Y           Z
 ---------------------------------------------------------------------
    1          6      10061002        1.022256   -1.259206   -0.173805
    2          6      10061000        0.792534    0.037926   -0.547801
    3          8      10081003       -0.241789    0.847476   -0.182372
    4          6      10061003       -1.275226    0.381215    0.700947
    5          1      10011000        1.820803   -1.738946   -0.514455
    6          1      10011000        0.407074   -1.739816    0.434781
    7          1      10011000        1.475650    0.461393   -1.179348
    8          1      10011000       -1.989124    1.191364    0.850665
    9          1      10011000       -1.805573   -0.468877    0.266547
   10          1      10011000       -0.861667    0.103034    1.672653
 ---------------------------------------------------------------------
                    Distance matrix (angstroms):
                    1          2          3          4          5
     1  C    0.000000
     2  C    1.369378   0.000000
     3  O    2.456826   1.363354   0.000000
     4  C    2.955436   2.439846   1.437234   0.000000
     5  H    0.991902   2.053222   3.324777   3.944322   0.000000
     6  H    0.989854   2.067465   2.737879   2.720249   1.702844
     7  H    2.043806   1.022166   2.023022   3.333055   2.324372
     8  H    4.015376   3.320203   2.058787   1.090140   4.996580
     9  H    2.969032   2.769508   2.092781   1.092075   3.920924
    10  H    2.968884   2.769664   2.092740   1.092076   3.920711
                    6          7          8          9         10
     6  H    0.000000
     7  H    2.931311   0.000000
     8  H    3.808745   4.081479   0.000000
     9  H    2.557225   3.704381   1.769543   0.000000
    10  H    2.556977   3.704778   1.769544   1.787506   0.000000
 Stoichiometry    C3H6O
 Framework group  C1[X(C3H6O)]
 Deg. of freedom    24
 Full point group                 C1
 Largest Abelian subgroup         C1      NOp   1
 Largest concise Abelian subgroup C1      NOp   1
                         Standard orientation:                         
 ---------------------------------------------------------------------
 Center     Atomic     Atomic              Coordinates (Angstroms)
 Number     Number      Type              X           Y           Z
 ---------------------------------------------------------------------
    1          6      10061002        1.505088    0.580776   -0.000054
    2          6      10061000        0.765086   -0.571437    0.000141
    3          8      10081003       -0.592322   -0.698625   -0.000216
    4          6      10061003       -1.447727    0.456332    0.000080
    5          1      10011000        2.495847    0.533185   -0.000259
    6          1      10011000        1.075562    1.472583    0.000034
    7          1      10011000        1.285509   -1.451200    0.000530
    8          1      10011000       -2.483254    0.115611   -0.000028
    9          1      10011000       -1.284911    1.062189    0.893979
   10          1      10011000       -1.284862    1.062609   -0.893526
 ---------------------------------------------------------------------
 Rotational constants (GHZ):     19.0227277      5.9249190      4.6516916
 1|1|UNPC-UNK|FOpt|Dreiding|ZDO|C3H6O1|PCUSER|13-Dec-2007|0||# opt drei
 ding||me-vinyl ether-s-cis||0,1|C,1.0222562627,-1.2592064135,-0.173804
 9015|C,0.7925338459,0.0379257806,-0.5478009266|O,-0.2417892304,0.84747
 57381,-0.1823721706|C,-1.2752260545,0.3812154669,0.7009467381|H,1.8208
 027609,-1.7389457954,-0.5144546752|H,0.4070743891,-1.7398160251,0.4347
 810888|H,1.4756499503,0.4613926949,-1.1793479213|H,-1.9891244334,1.191
 3635861,0.8506645523|H,-1.8055731633,-0.4688768536,0.2665472614|H,-0.8
 616668274,0.103034321,1.6726534545||Version=IA32W-G03RevD.01|HF=0.0151
 882|RMSD=0.000e+000|RMSF=4.042e-005|Thermal=0.|Dipole=0.,0.,0.|PG=C01 
 [X(C3H6O1)]||@


 It is also a good rule not to put too much confidence in
 experimental results until they have been confirmed by
 Theory.
                             -- Sir Arthur Eddington
 Job cpu time:  0 days  0 hours  0 minutes  3.0 seconds.
 File lengths (MBytes):  RWF=     11 Int=      0 D2E=      0 Chk=      4 Scr=      1
 Normal termination of Gaussian 03 at Thu Dec 13 16:37:43 2007.
