 Entering Link 1 = C:\G03W\l1.exe PID=      4060.
  
 Copyright (c) 1988,1990,1992,1993,1995,1998,2003,2004, Gaussian, Inc.
                  All Rights Reserved.
  
 This is the Gaussian(R) 03 program.  It is based on the
 the Gaussian(R) 98 system (copyright 1998, Gaussian, Inc.),
 the Gaussian(R) 94 system (copyright 1995, Gaussian, Inc.),
 the Gaussian 92(TM) system (copyright 1992, Gaussian, Inc.),
 the Gaussian 90(TM) system (copyright 1990, Gaussian, Inc.),
 the Gaussian 88(TM) system (copyright 1988, Gaussian, Inc.),
 the Gaussian 86(TM) system (copyright 1986, Carnegie Mellon
 University), and the Gaussian 82(TM) system (copyright 1983,
 Carnegie Mellon University). Gaussian is a federally registered
 trademark of Gaussian, Inc.
  
 This software contains proprietary and confidential information,
 including trade secrets, belonging to Gaussian, Inc.
  
 This software is provided under written license and may be
 used, copied, transmitted, or stored only in accord with that
 written license.
  
 The following legend is applicable only to US Government
 contracts under FAR:
  
                    RESTRICTED RIGHTS LEGEND
  
 Use, reproduction and disclosure by the US Government is
 subject to restrictions as set forth in subparagraphs (a)
 and (c) of the Commercial Computer Software - Restricted
 Rights clause in FAR 52.227-19.
  
 Gaussian, Inc.
 340 Quinnipiac St., Bldg. 40, Wallingford CT 06492
  
  
 ---------------------------------------------------------------
 Warning -- This program may not be used in any manner that
 competes with the business of Gaussian, Inc. or will provide
 assistance to any competitor of Gaussian, Inc.  The licensee
 of this program is prohibited from giving any competitor of
 Gaussian, Inc. access to this program.  By using this program,
 the user acknowledges that Gaussian, Inc. is engaged in the
 business of creating and licensing software in the field of
 computational chemistry and represents and warrants to the
 licensee that it is not a competitor of Gaussian, Inc. and that
 it will not use this program in any manner prohibited above.
 ---------------------------------------------------------------
  

 Cite this work as:
 Gaussian 03, Revision D.01,
 M. J. Frisch, G. W. Trucks, H. B. Schlegel, G. E. Scuseria, 
 M. A. Robb, J. R. Cheeseman, J. A. Montgomery, Jr., T. Vreven, 
 K. N. Kudin, J. C. Burant, J. M. Millam, S. S. Iyengar, J. Tomasi, 
 V. Barone, B. Mennucci, M. Cossi, G. Scalmani, N. Rega, 
 G. A. Petersson, H. Nakatsuji, M. Hada, M. Ehara, K. Toyota, 
 R. Fukuda, J. Hasegawa, M. Ishida, T. Nakajima, Y. Honda, O. Kitao, 
 H. Nakai, M. Klene, X. Li, J. E. Knox, H. P. Hratchian, J. B. Cross, 
 V. Bakken, C. Adamo, J. Jaramillo, R. Gomperts, R. E. Stratmann, 
 O. Yazyev, A. J. Austin, R. Cammi, C. Pomelli, J. W. Ochterski, 
 P. Y. Ayala, K. Morokuma, G. A. Voth, P. Salvador, J. J. Dannenberg, 
 V. G. Zakrzewski, S. Dapprich, A. D. Daniels, M. C. Strain, 
 O. Farkas, D. K. Malick, A. D. Rabuck, K. Raghavachari, 
 J. B. Foresman, J. V. Ortiz, Q. Cui, A. G. Baboul, S. Clifford, 
 J. Cioslowski, B. B. Stefanov, G. Liu, A. Liashenko, P. Piskorz, 
 I. Komaromi, R. L. Martin, D. J. Fox, T. Keith, M. A. Al-Laham, 
 C. Y. Peng, A. Nanayakkara, M. Challacombe, P. M. W. Gill, 
 B. Johnson, W. Chen, M. W. Wong, C. Gonzalez, and J. A. Pople, 
 Gaussian, Inc., Wallingford CT, 2004.
 
 ******************************************
 Gaussian 03:  IA32W-G03RevD.01 13-Oct-2005
                13-Dec-2007 
 ******************************************
 --------------
 # opt dreiding
 --------------
 1/6=10,10=10,14=-1,18=4000020,38=1,56=1,64=1/1,3;
 2/9=110,17=6,18=5,40=1/2;
 3/5=30,11=9,16=1,25=1,30=1/1;
 4/20=9,22=1001,24=3/2;
 7/44=-1/16;
 1/6=10,10=10,14=-1,18=4000020,64=1/3(2);
 2/9=110/2;
 99//99;
 2/9=110/2;
 3/5=30,11=9,16=1,25=1,30=1/1;
 4/16=2,20=9,22=1001,24=3/2;
 7/44=-1/16;
 1/6=10,10=10,14=-1,18=4000020,64=1/3(-4);
 2/9=110/2;
 99//99;
 ----------------
 me-vinyl ether-g
 ----------------
 Symbolic Z-matrix:
 Charge =  0 Multiplicity = 1
 C                     0.69259  -1.69434   0.28109 
 C                     0.61959  -0.37934   0.03409 
 O                    -0.42141   0.41966   0.41609 
 C                    -0.78441   1.41166  -0.52591 
 H                     1.54959  -2.29634  -0.06491 
 H                    -0.10541  -2.20934   0.83909 
 H                     1.43259   0.09566  -0.54591 
 H                    -1.67041   1.95966  -0.12891 
 H                     0.05459   2.13366  -0.66691 
 H                    -1.05641   0.93166  -1.49691 
 
 I=    1 IAn=  6 Valence= 6.
          JB=  1 J=    2 IAn=  6 IBT= 2 Dist= 1.34D+00
          JB=  2 J=    5 IAn=  1 IBT= 1 Dist= 1.10D+00
          JB=  3 J=    6 IAn=  1 IBT= 1 Dist= 1.10D+00
 I=    2 IAn=  6 Valence= 6.
          JB=  1 J=    1 IAn=  6 IBT= 2 Dist= 1.34D+00
          JB=  2 J=    3 IAn=  8 IBT=12 Dist= 1.37D+00
          JB=  3 J=    7 IAn=  1 IBT= 1 Dist= 1.11D+00
 I=    3 IAn=  8 Valence=24.
          JB=  1 J=    2 IAn=  6 IBT=12 Dist= 1.37D+00
          JB=  2 J=    4 IAn=  6 IBT= 1 Dist= 1.42D+00
 Include all MM classes
 MMInit generated parameter data with length LenPar=   798.

 GradGradGradGradGradGradGradGradGradGradGradGradGradGradGradGradGradGrad
 Berny optimization.
 Initialization pass.
 No Z-matrix variables, so optimization will use Cartesian coordinates.
 Trust Radius=1.00D-01 FncErr=1.00D-07 GrdErr=1.00D-07
 Number of steps in this run=   2 maximum allowed number of steps=   2.
 GradGradGradGradGradGradGradGradGradGradGradGradGradGradGradGradGradGrad

                          Input orientation:                          
 ---------------------------------------------------------------------
 Center     Atomic     Atomic              Coordinates (Angstroms)
 Number     Number      Type              X           Y           Z
 ---------------------------------------------------------------------
    1          6      10061002        0.692594   -1.694344    0.281094
    2          6      10061000        0.619594   -0.379344    0.034094
    3          8      10081003       -0.421406    0.419656    0.416094
    4          6      10061003       -0.784406    1.411656   -0.525906
    5          1      10011000        1.549594   -2.296344   -0.064906
    6          1      10011000       -0.105406   -2.209344    0.839094
    7          1      10011000        1.432594    0.095656   -0.545906
    8          1      10011000       -1.670406    1.959656   -0.128906
    9          1      10011000        0.054594    2.133656   -0.666906
   10          1      10011000       -1.056406    0.931656   -1.496906
 ---------------------------------------------------------------------
                    Distance matrix (angstroms):
                    1          2          3          4          5
     1  C    0.000000
     2  C    1.339986   0.000000
     3  O    2.393369   1.366750   0.000000
     4  C    3.532706   2.343608   1.415343   0.000000
     5  H    1.102982   2.132977   3.390112   4.405603   0.000000
     6  H    1.101541   2.126629   2.681497   3.928856   1.887806
     7  H    2.106093   1.105891   2.113702   2.578245   2.442686
     8  H    4.370765   3.277436   2.056362   1.114858   5.337231
     9  H    3.994913   2.669418   2.082609   1.115834   4.714057
    10  H    3.621624   2.621385   2.079649   1.116792   4.388832
                    6          7          8          9         10
     6  H    0.000000
     7  H    3.097853   0.000000
     8  H    4.557062   3.643761   0.000000
     9  H    4.599487   2.463122   1.815309   0.000000
    10  H    4.028297   2.792565   1.818022   1.835218   0.000000
 Stoichiometry    C3H6O
 Framework group  C1[X(C3H6O)]
 Deg. of freedom    24
 Full point group                 C1
 Largest Abelian subgroup         C1      NOp   1
 Largest concise Abelian subgroup C1      NOp   1
                         Standard orientation:                         
 ---------------------------------------------------------------------
 Center     Atomic     Atomic              Coordinates (Angstroms)
 Number     Number      Type              X           Y           Z
 ---------------------------------------------------------------------
    1          6      10061002       -1.843002   -0.091135    0.156646
    2          6      10061000       -0.618463    0.340588   -0.174538
    3          8      10081003        0.479754   -0.465840   -0.282238
    4          6      10061003        1.684038    0.105384    0.193786
    5          1      10011000       -2.692663    0.606520    0.245661
    6          1      10011000       -2.032541   -1.159100    0.348788
    7          1      10011000       -0.466495    1.423324   -0.340617
    8          1      10011000        2.490364   -0.659189    0.103364
    9          1      10011000        1.957696    0.994783   -0.421980
   10          1      10011000        1.570172    0.391362    1.267320
 ---------------------------------------------------------------------
 Rotational constants (GHZ):     33.9916051      4.5228303      4.2891228
 Standard basis: Dummy (5D, 7F)
 There are    10 symmetry adapted basis functions of A   symmetry.
 Integral buffers will be    262144 words long.
 Raffenetti 1 integral format.
 Two-electron integral symmetry is turned on.
    10 basis functions,    10 primitive gaussians,    10 cartesian basis functions
     7 alpha electrons        7 beta electrons
       nuclear repulsion energy        22.5945505332 Hartrees.
 NAtoms=   10 NActive=   10 NUniq=   10 SFac= 7.50D-01 NAtFMM=   80 NAOKFM=F Big=F
 Dreiding calculation of energy and first derivatives.
 MO and density RWFs will be updated without deorthogonalization.
 NRF= 0 NRA=   0 NVA=  10 HaveQM=F
 Convergence limit is  0.750E-04 MaxStp=  5000 StMxLn= 1.00D-04 StpMin= 1.00D-06.
 Convergence criteria           0.00011250 0.00007500 0.00045000 0.00030000
  Step  NS  ND Rises OKQ   Scale  Max. Force  RMS Force Max. Disp.  RMS Disp.     Energy   Flag
     1   0   0   F    T  1.00D+00 0.08938835 0.03122744 0.08938835 0.03122744    0.0287346 ----
     2   0   0   F    F -1.77D-01 0.08938835 0.03122744 0.08938835 0.03122744    0.0172596 ----
     3   0   0   F    T  1.51D+00 0.04876694 0.01527064 0.04918736 0.01699873    0.0167042 ----
     4   0   0   F    F  1.17D-01 0.04876694 0.01527064 0.07436918 0.02570134    0.0108701 ----
     5   0   0   F    T  2.01D+00 0.03143758 0.01112372 0.03702081 0.01427994    0.0108054 ----
     6   0   0   F    F -4.62D-01 0.03143758 0.01112372 0.07443589 0.02871195    0.0102768 ----
     7   0   0   F    T  3.77D+00 0.01310735 0.00376067 0.01428414 0.00409270    0.0087994 ----
     8   0   0   T    F  4.33D-01 0.01310735 0.00376067 0.05389893 0.01544313    0.0090517 ----
     9   0   0   F    T  2.97D+00 0.00463901 0.00196172 0.00689685 0.00225252    0.0084519 ----
    10   0   0   F    F  2.22D-02 0.00463901 0.00196172 0.02048755 0.00669125    0.0082768 ----
    11   0   0   F    T  3.33D+00 0.00514650 0.00152684 0.00553293 0.00205152    0.0082767 ----
    12   0   0   T    F  3.19D-01 0.00514650 0.00152684 0.01844639 0.00683962    0.0084088 ----
    13   0   0   F    T  1.33D+00 0.00458283 0.00115189 0.00455401 0.00164270    0.0082395 ----
    14   0   0   F    F  9.93D-01 0.00458283 0.00115189 0.00604799 0.00218160    0.0081999 ----
    15   0   0   F    T  2.32D+00 0.00309653 0.00110648 0.00494288 0.00187678    0.0081869 ----
    16   0   0   F    F  9.69D-01 0.00309653 0.00110648 0.01145005 0.00434751    0.0081234 ----
    17   0   0   F    T  2.74D+00 0.00527520 0.00135483 0.00801065 0.00312990    0.0081031 ----
    18   0   0   F    F -3.83D-01 0.00527520 0.00135483 0.02191321 0.00856188    0.0080747 ----
    19   0   0   F    T  2.81D+00 0.00230812 0.00096991 0.00439188 0.00188141    0.0080567 ----
    20   0   0   F    F -8.21D-02 0.00230812 0.00096991 0.01232236 0.00527869    0.0080207 ----
    21   0   0   F    T  1.71D+00 0.00320224 0.00113791 0.00712438 0.00283642    0.0080204 ----
    22   0   0   F    F  3.48D-01 0.00320224 0.00113791 0.01216989 0.00484519    0.0079786 ----
    23   0   0   F    T  1.94D+00 0.00401565 0.00119641 0.00848089 0.00337069    0.0079757 ----
    24   0   0   F    F -4.49D-01 0.00401565 0.00119641 0.01642981 0.00652996    0.0079680 ----
    25   0   0   F    T  6.46D+00 0.00110557 0.00040616 0.00141511 0.00055713    0.0079528 ----
    26   0   0   F    F  3.52D-02 0.00110557 0.00040616 0.00913644 0.00359702    0.0079362 ----
    27   0   0   F    T  3.87D+00 0.00128183 0.00049463 0.00241602 0.00096307    0.0079362 ----
    28   0   0   T    F  4.66D-01 0.00128183 0.00049463 0.00934131 0.00372363    0.0079383 ----
    29   0   0   F    T  1.64D+00 0.00130214 0.00048792 0.00238133 0.00105456    0.0079296 ----
    30   0   0   F    F  1.26D-01 0.00130214 0.00048792 0.00391573 0.00173406    0.0079231 ----
    31   0   0   F    T  1.43D+00 0.00125491 0.00053277 0.00292070 0.00136473    0.0079230 ----
    32   0   0   F    F  1.33D+00 0.00125491 0.00053277 0.00417940 0.00195287    0.0079134 ----
    33   0   0   F    T  3.37D+00 0.00120144 0.00050844 0.00322190 0.00134915    0.0079088 ----
    34   0   0   F    F -3.13D-01 0.00120144 0.00050844 0.01087148 0.00455236    0.0079017 ----
    35   0   0   F    T  1.31D+00 0.00165544 0.00066128 0.00621865 0.00238001    0.0078998 ----
    36   0   0   F    F  5.82D+00 0.00165544 0.00066128 0.00817653 0.00312933    0.0078838 ----
    37   0   0   F    F -6.65D-03 0.00165544 0.00066128 0.04761746 0.01822422    0.0078404 ----
    38   0   0   F    T  5.15D+00 0.00271428 0.00087088 0.01008021 0.00412144    0.0078404 ----
    39   0   0   T    F  3.33D-01 0.00271428 0.00087088 0.05193010 0.02123237    0.0079009 ----
    40   0   0   F    T  1.06D+00 0.00342975 0.00110268 0.01586512 0.00665935    0.0078208 ----
    41   0   0   F    F  2.30D+00 0.00342975 0.00110268 0.01683319 0.00706570    0.0077882 ----
    42   0   0   F    F -9.44D-03 0.00342975 0.00110268 0.03870892 0.01624799    0.0077580 ----
    43   0   0   F    T  4.44D+00 0.00221838 0.00100006 0.01241970 0.00521092    0.0077580 ----
    44   0   0   F    F -3.60D-01 0.00221838 0.00100006 0.05520010 0.02316026    0.0077290 ----
    45   0   0   F    T  3.66D+00 0.00274924 0.00086718 0.00896328 0.00404214    0.0077153 ----
    46   0   0   F    F  1.34D-01 0.00274924 0.00086718 0.03284446 0.01481176    0.0076690 ----
    47   0   0   F    T  1.44D+00 0.00544407 0.00147575 0.02577984 0.01169706    0.0076684 ----
    48   0   0   F    F  4.80D-01 0.00544407 0.00147575 0.03700529 0.01679037    0.0076071 ----
    49   0   0   F    T  1.42D+00 0.00608262 0.00177373 0.03782799 0.01747440    0.0076001 ----
    50   0   0   F    F  5.08D-01 0.00608262 0.00177373 0.05379585 0.02485064    0.0075079 ----
    51   0   0   F    F -1.27D-02 0.00608262 0.00177373 0.02731487 0.01261793    0.0074956 ----
    52   0   0   F    T  7.02D+00 0.00237508 0.00101183 0.01154638 0.00531105    0.0074956 ----
    53   0   0   F    F -1.52D-01 0.00237508 0.00101183 0.08111014 0.03730864    0.0074055 ----
    54   0   0   F    T  1.73D+00 0.00719000 0.00190744 0.03987194 0.01827043    0.0074024 ----
    55   0   0   F    F  3.51D-02 0.00719000 0.00190744 0.06906815 0.03164894    0.0073053 ----
    56   0   0   F    T  9.62D+00 0.00154522 0.00087979 0.00774827 0.00340489    0.0073052 ----
    57   0   0   T    F  2.20D-01 0.00154522 0.00087979 0.07454913 0.03275978    0.0075799 ----
    58   0   0   F    T  3.20D+00 0.00170394 0.00068731 0.00560504 0.00225948    0.0072807 ----
    59   0   0   F    F  2.05D-01 0.00170394 0.00068731 0.01791523 0.00722189    0.0072543 ----
    60   0   0   F    T  2.03D+00 0.00232663 0.00093149 0.01114125 0.00429323    0.0072535 ----
    61   0   0   F    F -3.94D-01 0.00232663 0.00093149 0.02257535 0.00869931    0.0072442 ----
    62   0   0   F    T  2.03D+00 0.00207114 0.00070183 0.00723416 0.00259131    0.0072376 ----
    63   0   0   F    F  1.05D+00 0.00207114 0.00070183 0.01471369 0.00527052    0.0072148 ----
    64   0   0   F    T  2.57D+00 0.00338452 0.00087818 0.01264361 0.00419957    0.0072068 ----
    65   0   0   F    F -2.09D-01 0.00338452 0.00087818 0.03252556 0.01080336    0.0071848 ----
    66   0   0   F    T  2.63D+00 0.00175729 0.00076707 0.00984211 0.00324922    0.0071832 ----
    67   0   0   F    F  1.84D-02 0.00175729 0.00076707 0.02587502 0.00854223    0.0071594 ----
    68   0   0   F    T  2.68D+00 0.00212548 0.00076432 0.00926592 0.00324298    0.0071594 ----
    69   0   0   F    F  1.11D+00 0.00212548 0.00076432 0.02485584 0.00869930    0.0071234 ----
    70   0   0   F    T  2.16D+00 0.00303960 0.00124571 0.02364939 0.00848587    0.0071096 ----
    71   0   0   F    F -1.83D-01 0.00303960 0.00124571 0.05109132 0.01833258    0.0070709 ----
    72   0   0   F    T  1.72D+00 0.00458827 0.00124736 0.02394815 0.00869242    0.0070689 ----
    73   0   0   F    F  4.19D-02 0.00458827 0.00124736 0.04126415 0.01497758    0.0070269 ----
    74   0   0   F    T  2.49D+00 0.00278593 0.00104678 0.01772585 0.00627766    0.0070269 ----
    75   0   0   F    F  1.51D+00 0.00278593 0.00104678 0.04406373 0.01560529    0.0069608 ----
    76   0   0   F    F -2.68D-02 0.00278593 0.00104678 0.06670576 0.02362403    0.0069230 ----
    77   0   0   F    T  3.68D+00 0.00342141 0.00136542 0.02842232 0.01049735    0.0069229 ----
    78   0   0   T    F  4.15D-01 0.00342141 0.00136542 0.10450120 0.03859594    0.0069658 ----
    79   0   0   F    T  2.87D+00 0.00277637 0.00100632 0.01438274 0.00559266    0.0068803 ----
    80   0   0   F    F  3.99D-01 0.00277637 0.00100632 0.04121107 0.01602472    0.0068255 ----
    81   0   0   F    T  2.15D+00 0.00361555 0.00136137 0.02670219 0.01042178    0.0068208 ----
    82   0   0   F    F -3.27D-01 0.00361555 0.00136137 0.05745682 0.02242521    0.0067900 ----
    83   0   0   F    T  2.95D+00 0.00263320 0.00093087 0.01237206 0.00511142    0.0067802 ----
    84   0   0   T    F  3.85D-01 0.00263320 0.00093087 0.03654173 0.01509695    0.0068032 ----
    85   0   0   F    T  3.53D+00 0.00108733 0.00052024 0.00390613 0.00164733    0.0067654 ----
    86   0   0   F    F  1.56D+00 0.00108733 0.00052024 0.01379561 0.00581802    0.0067425 ----
    87   0   0   F    T  3.99D+00 0.00208153 0.00076891 0.00894835 0.00373165    0.0067293 ----
    88   0   0   T    F  3.80D-01 0.00208153 0.00076891 0.03568771 0.01488253    0.0067515 ----
    89   0   0   F    T  3.21D+00 0.00160887 0.00050905 0.00424694 0.00176040    0.0067158 ----
    90   0   0   F    F -4.20D-01 0.00160887 0.00050905 0.01364354 0.00565540    0.0067124 ----
    91   0   0   F    T  3.01D+00 0.00096510 0.00038799 0.00260059 0.00109155    0.0067086 ----
    92   0   0   F    F -4.16D-01 0.00096510 0.00038799 0.00782096 0.00328271    0.0067066 ----
    93   0   0   F    T  1.29D+00 0.00122487 0.00044336 0.00342508 0.00149241    0.0067046 ----
    94   0   0   F    F  7.58D-01 0.00122487 0.00044336 0.00440249 0.00191829    0.0066992 ----
    95   0   0   F    T  5.24D+00 0.00055286 0.00027868 0.00160536 0.00064365    0.0066979 ----
    96   0   0   F    F -6.76D-02 0.00055286 0.00027868 0.00841194 0.00337265    0.0066923 ----
    97   0   0   F    T  2.41D+00 0.00078255 0.00038777 0.00335947 0.00130478    0.0066923 ----
    98   0   0   F    F  1.07D-01 0.00078255 0.00038777 0.00809700 0.00314480    0.0066863 ----
    99   0   0   F    T  2.52D+00 0.00102537 0.00039026 0.00346969 0.00138208    0.0066862 ----
   100   0   0   F    F -4.17D-01 0.00102537 0.00039026 0.00874029 0.00348150    0.0066846 ----
   101   0   0   F    T  1.68D+00 0.00105482 0.00035599 0.00288174 0.00120650    0.0066829 ----
   102   0   0   F    F  7.35D-01 0.00105482 0.00035599 0.00484836 0.00202986    0.0066783 ----
   103   0   0   F    T  1.95D+00 0.00125476 0.00042913 0.00420028 0.00180437    0.0066773 ----
   104   0   0   F    F -2.22D-01 0.00125476 0.00042913 0.00820032 0.00352273    0.0066735 ----
   105   0   0   F    T  4.51D+00 0.00064656 0.00023974 0.00145768 0.00060680    0.0066731 ----
   106   0   0   F    F  3.38D-01 0.00064656 0.00023974 0.00657968 0.00273897    0.0066683 ----
   107   0   0   F    T  3.28D+00 0.00106835 0.00031900 0.00269178 0.00111843    0.0066679 ----
   108   0   0   T    F  4.89D-01 0.00106835 0.00031900 0.00882202 0.00366553    0.0066682 ----
   109   0   0   F    T  3.02D+00 0.00062451 0.00022390 0.00124732 0.00059271    0.0066655 ----
   110   0   0   T    F  4.03D-01 0.00062451 0.00022390 0.00376908 0.00179102    0.0066666 ----
   111   0   0   F    T  1.51D+00 0.00046714 0.00019228 0.00116545 0.00047747    0.0066646 ----
   112   0   0   F    F  4.83D+00 0.00046714 0.00019228 0.00176139 0.00072162    0.0066630 ----
   113   0   0   F    T  2.51D+00 0.00117775 0.00035552 0.00436466 0.00167253    0.0066597 ----
   114   0   0   F    F -2.43D-01 0.00117775 0.00035552 0.01097089 0.00420403    0.0066565 ----
   115   0   0   F    T  2.44D+00 0.00078383 0.00030753 0.00358014 0.00130590    0.0066561 ----
   116   0   0   F    F  4.17D-01 0.00078383 0.00030753 0.00872238 0.00318159    0.0066516 ----
   117   0   0   F    T  2.39D+00 0.00100870 0.00036632 0.00487996 0.00188758    0.0066512 ----
   118   0   0   F    F  8.07D-01 0.00100870 0.00036632 0.01165654 0.00450877    0.0066442 ----
   119   0   0   F    T  1.15D+00 0.00277232 0.00070961 0.01805151 0.00707152    0.0066425 ----
   120   0   0   F    F  2.43D-01 0.00277232 0.00070961 0.02079708 0.00814707    0.0066320 ----
   121   0   0   F    T  6.12D+00 0.00068253 0.00036548 0.00390374 0.00165506    0.0066316 ----
   122   0   0   F    F -3.67D-01 0.00068253 0.00036548 0.02389017 0.01012868    0.0066264 ----
   123   0   0   F    T  2.84D+00 0.00115669 0.00042235 0.00521675 0.00225217    0.0066239 ----
   124   0   0   F    F -9.46D-02 0.00115669 0.00042235 0.01484074 0.00640703    0.0066171 ----
   125   0   0   F    T  4.25D+00 0.00107396 0.00031643 0.00326715 0.00136390    0.0066170 ----
   126   0   0   T    F  2.77D-01 0.00107396 0.00031643 0.01389587 0.00580097    0.0066273 ----
   127   0   0   F    T  2.07D+00 0.00062532 0.00023330 0.00212707 0.00077840    0.0066152 ----
   128   0   0   F    F  6.96D-01 0.00062532 0.00023330 0.00439401 0.00160797    0.0066128 ----
   129   0   0   F    T  1.14D+00 0.00119678 0.00040658 0.00684537 0.00239521    0.0066124 ----
   130   0   0   F    F  1.12D+00 0.00119678 0.00040658 0.00779537 0.00272762    0.0066080 ----
   131   0   0   F    T  4.48D+00 0.00065240 0.00030013 0.00385756 0.00129317    0.0066064 ----
   132   0   0   F    F -1.49D-01 0.00065240 0.00030013 0.01726790 0.00578870    0.0066014 ----
   133   0   0   F    T  2.52D+00 0.00082622 0.00036445 0.00563184 0.00195456    0.0066012 ----
   134   0   0   F    F  9.11D-01 0.00082622 0.00036445 0.01419196 0.00492540    0.0065939 ----
   135   0   0   F    T  1.00D+00 0.00235869 0.00079473 0.02660841 0.00941619    0.0065917 ----
   136   0   0   F    F  9.84D-01 0.00235869 0.00079473 0.02660841 0.00941619    0.0065772 ----
   137   0   0   F    F -3.03D-02 0.00235869 0.00079473 0.02619072 0.00926838    0.0065723 ----
   138   0   0   F    T  2.22D+00 0.00201526 0.00077494 0.02320286 0.00828538    0.0065723 ----
   139   0   0   F    F  1.69D-01 0.00201526 0.00077494 0.05153941 0.01840393    0.0065470 ----
   140   0   0   F    F -1.46D-02 0.00201526 0.00077494 0.00872959 0.00311720    0.0065463 ----
   141   0   0   F    T  3.32D+00 0.00186054 0.00086358 0.01770429 0.00646406    0.0065463 ----
   142   0   0   F    F -1.90D-01 0.00186054 0.00086358 0.05881947 0.02147573    0.0065176 ----
   143   0   0   F    F -9.27D-03 0.00186054 0.00086358 0.01118834 0.00408500    0.0065158 ----
   144   0   0   F    T  1.28D+00 0.00460944 0.00131017 0.03686898 0.01362696    0.0065158 ----
   145   0   0   F    F  1.65D-01 0.00460944 0.00131017 0.04715469 0.01742861    0.0064774 ----
   146   0   0   F    F -1.87D-02 0.00460944 0.00131017 0.00780354 0.00288423    0.0064766 ----
   147   0   0   F    T  3.86D+00 0.00255836 0.00091620 0.01374084 0.00524171    0.0064766 ----
   148   0   0   F    F  8.39D-01 0.00255836 0.00091620 0.05310765 0.02025895    0.0064131 ----
   149   0   0   F    F -1.13D-01 0.00255836 0.00091620 0.04453245 0.01698777    0.0064010 ----
   150   0   0   F    T  2.53D+00 0.00372240 0.00144897 0.03616693 0.01393994    0.0064008 ----
   151   0   0   F    F -3.31D-01 0.00372240 0.00144897 0.09165580 0.03532720    0.0063605 ----
   152   0   0   F    F -1.08D-02 0.00372240 0.00144897 0.03035525 0.01169993    0.0063458 ----
   153   0   0   F    T  2.50D+00 0.00264766 0.00107853 0.02448454 0.00949382    0.0063458 ----
   154   0   0   F    F -4.09D-01 0.00264766 0.00107853 0.06126164 0.02375407    0.0063325 ----
   155   0   0   F    T  1.99D+00 0.00181851 0.00095093 0.01847325 0.00705496    0.0063201 ----
   156   0   0   F    F  7.07D-01 0.00181851 0.00095093 0.03674780 0.01403403    0.0062825 ----
   157   0   0   F    F -4.31D-02 0.00181851 0.00095093 0.02598131 0.00992230    0.0062753 ----
   158   0   0   F    T  1.49D+00 0.00354711 0.00140551 0.04156075 0.01576426    0.0062752 ----
   159   0   0   F    F  1.79D-01 0.00354711 0.00140551 0.06203031 0.02352850    0.0062204 ----
   160   0   0   F    F -3.47D-02 0.00354711 0.00140551 0.01113429 0.00422331    0.0062190 ----
   161   0   0   F    T  6.40D+00 0.00284302 0.00096157 0.01068944 0.00431009    0.0062190 ----
   162   0   0   T    F  3.35D-01 0.00284302 0.00096157 0.06846341 0.02760513    0.0063041 ----
   163   0   0   F    T  1.26D+00 0.00385981 0.00124924 0.01765058 0.00733315    0.0061894 ----
   164   0   0   F    F  5.40D-01 0.00385981 0.00124924 0.02225868 0.00924765    0.0061502 ----
   165   0   0   F    T  2.54D+00 0.00266649 0.00103281 0.01269713 0.00561643    0.0061449 ----
   166   0   0   F    T  3.22D+00 0.00201551 0.00081681 0.01090577 0.00442251    0.0061057 ----
   167   0   0   F    F -3.47D-01 0.00201551 0.00081681 0.03512276 0.01424299    0.0060906 ----
   168   0   0   F    T  1.89D+00 0.00222652 0.00082530 0.01303602 0.00492735    0.0060848 ----
   169   0   0   F    F  4.62D-01 0.00222652 0.00082530 0.02461873 0.00930537    0.0060592 ----
   170   0   0   F    T  3.19D+00 0.00160775 0.00076257 0.01045165 0.00426590    0.0060564 ----
   171   0   0   F    F -1.45D-01 0.00160775 0.00076257 0.03332785 0.01360295    0.0060328 ----
   172   0   0   F    T  1.89D+00 0.00256899 0.00094114 0.01575926 0.00615077    0.0060321 ----
   173   0   0   F    F -1.46D-01 0.00256899 0.00094114 0.02979589 0.01162920    0.0060109 ----
   174   0   0   F    T  2.20D+00 0.00207976 0.00085583 0.01254367 0.00450749    0.0060102 ----
   175   0   0   F    F  2.85D-01 0.00207976 0.00085583 0.02765062 0.00993608    0.0059806 ----
   176   0   0   F    T  2.39D+00 0.00309923 0.00094718 0.01497167 0.00533454    0.0059791 ----
   177   0   0   F    F -4.03D-01 0.00309923 0.00094718 0.03583809 0.01276943    0.0059686 ----
   178   0   0   F    T  2.33D+00 0.00168879 0.00072223 0.00874139 0.00327685    0.0059600 ----
   179   0   0   F    F  1.40D+00 0.00168879 0.00072223 0.02033103 0.00762142    0.0059321 ----
   180   0   0   F    F -9.17D-03 0.00168879 0.00072223 0.02850465 0.01068543    0.0059187 ----
   181   0   0   F    T  1.96D+00 0.00342796 0.00117590 0.02383443 0.00929233    0.0059187 ----
   182   0   0   F    F -1.20D-01 0.00342796 0.00117590 0.04670510 0.01820892    0.0058834 ----
   183   0   0   F    T  2.28D+00 0.00288756 0.00093767 0.01801088 0.00701857    0.0058827 ----
   184   0   0   F    F -3.32D-01 0.00288756 0.00093767 0.04111497 0.01602189    0.0058676 ----
   185   0   0   F    T  2.81D+00 0.00211092 0.00069810 0.00982947 0.00380915    0.0058625 ----
   186   0   0   F    F -9.53D-02 0.00211092 0.00069810 0.02760924 0.01069921    0.0058441 ----
   187   0   0   F    T  1.83D+00 0.00221233 0.00082047 0.01325208 0.00527967    0.0058438 ----
   188   0   0   F    F -1.47D-01 0.00221233 0.00082047 0.02429702 0.00968002    0.0058284 ----
   189   0   0   F    T  5.14D+00 0.00113485 0.00047163 0.00365717 0.00160770    0.0058279 ----
   190   0   0   T    F  4.08D-01 0.00113485 0.00047163 0.01879386 0.00826182    0.0058357 ----
   191   0   0   F    T  1.56D+00 0.00165598 0.00053963 0.00528467 0.00215800    0.0058209 ----
   192   0   0   F    F  8.62D-02 0.00165598 0.00053963 0.00824584 0.00336720    0.0058135 ----
   193   0   0   F    T  2.06D+00 0.00108291 0.00048122 0.00489080 0.00177639    0.0058135 ----
   194   0   0   F    F  2.52D-01 0.00108291 0.00048122 0.01006951 0.00365734    0.0058050 ----
   195   0   0   F    T  2.94D+00 0.00135036 0.00043813 0.00411535 0.00155553    0.0058046 ----
   196   0   0   F    F -4.96D-01 0.00135036 0.00043813 0.01210980 0.00457730    0.0058044 ----
   197   0   0   F    T  2.55D+00 0.00078876 0.00032078 0.00200057 0.00090557    0.0058003 ----
   198   0   0   F    T  2.43D+00 0.00079836 0.00031686 0.00199269 0.00094996    0.0057964 ----
   199   0   0   F    F -8.29D-02 0.00079836 0.00031686 0.00484248 0.00230853    0.0057932 ----
   200   0   0   F    T  1.64D+00 0.00106853 0.00036451 0.00271231 0.00128919    0.0057931 ----
   201   0   0   F    F -1.80D-01 0.00106853 0.00036451 0.00445414 0.00211711    0.0057906 ----
   202   0   0   F    T  3.87D+00 0.00043853 0.00020176 0.00096365 0.00044904    0.0057904 ----
   203   0   0   F    F -2.54D-01 0.00043853 0.00020176 0.00372631 0.00173639    0.0057889 ----
   204   0   0   F    T  1.33D+00 0.00088958 0.00029067 0.00210419 0.00097532    0.0057887 ----
   205   0   0   F    F  9.49D-01 0.00088958 0.00029067 0.00279498 0.00129551    0.0057862 ----
   206   0   0   F    T  2.91D+00 0.00066449 0.00026737 0.00192836 0.00086913    0.0057854 ----
   207   0   0   F    F -4.36D-02 0.00066449 0.00026737 0.00560212 0.00252492    0.0057824 ----
   208   0   0   F    T  2.26D+00 0.00075997 0.00029114 0.00241419 0.00107077    0.0057824 ----
   209   0   0   F    F -2.32D-01 0.00075997 0.00029114 0.00544457 0.00241484    0.0057804 ----
   210   0   0   F    T  1.62D+00 0.00079816 0.00029567 0.00261184 0.00114258    0.0057802 ----
   211   0   0   F    F  3.04D-01 0.00079816 0.00029567 0.00423682 0.00185345    0.0057776 ----
   212   0   0   F    T  2.76D+00 0.00058895 0.00025306 0.00218632 0.00087607    0.0057774 ----
   213   0   0   F    F -2.27D-01 0.00058895 0.00025306 0.00602964 0.00241612    0.0057756 ----
   214   0   0   F    T  1.52D+00 0.00073113 0.00029437 0.00323626 0.00122402    0.0057754 ----
   215   0   0   F    F  8.32D-01 0.00073113 0.00029437 0.00493485 0.00186647    0.0057725 ----
   216   0   0   F    T  3.57D+00 0.00060141 0.00025554 0.00256481 0.00095891    0.0057718 ----
   217   0   0   F    F -2.33D-01 0.00060141 0.00025554 0.00914477 0.00341896    0.0057693 ----
   218   0   0   F    T  1.91D+00 0.00095660 0.00030216 0.00368549 0.00137084    0.0057691 ----
   219   0   0   F    F -1.49D-01 0.00095660 0.00030216 0.00705147 0.00262283    0.0057669 ----
   220   0   0   F    T  1.80D+00 0.00088485 0.00028373 0.00332600 0.00123970    0.0057669 ----
   221   0   0   F    F  9.71D-01 0.00088485 0.00028373 0.00599083 0.00223296    0.0057636 ----
   222   0   0   F    T  1.64D+00 0.00111562 0.00041536 0.00701183 0.00268104    0.0057626 ----
   223   0   0   F    F -4.77D-02 0.00111562 0.00041536 0.01151334 0.00440223    0.0057585 ----
   224   0   0   F    T  3.85D+00 0.00062326 0.00026266 0.00273936 0.00108796    0.0057585 ----
   225   0   0   F    F -5.00D-01 0.00062326 0.00026266 0.01055581 0.00419231    0.0057585 ----
   226   0   0   F    T  3.45D+00 0.00035185 0.00019024 0.00151426 0.00060614    0.0057565 ----
   227   0   0   F    F -7.67D-02 0.00035185 0.00019024 0.00523138 0.00209406    0.0057548 ----
   228   0   0   F    T  1.29D+00 0.00083360 0.00029607 0.00374964 0.00149884    0.0057548 ----
   229   0   0   F    F  5.60D-01 0.00083360 0.00029607 0.00483692 0.00193345    0.0057525 ----
   230   0   0   F    T  3.62D+00 0.00071156 0.00021699 0.00208418 0.00083299    0.0057521 ----
   231   0   0   T    F  4.57D-01 0.00071156 0.00021699 0.00754590 0.00301588    0.0057526 ----
   232   0   0   F    T  1.44D+00 0.00084209 0.00022905 0.00236665 0.00095558    0.0057510 ----
   233   0   0   F    F  1.05D+00 0.00084209 0.00022905 0.00341146 0.00137744    0.0057493 ----
   234   0   0   F    T  2.40D+00 0.00071169 0.00025067 0.00278293 0.00117633    0.0057487 ----
   235   0   0   F    F  3.99D-01 0.00071169 0.00025067 0.00668771 0.00282686    0.0057457 ----
   236   0   0   F    T  2.58D+00 0.00062557 0.00028375 0.00365703 0.00153596    0.0057455 ----
   237   0   0   F    F -3.87D-01 0.00062557 0.00028375 0.00941715 0.00395522    0.0057443 ----
   238   0   0   F    T  2.29D+00 0.00051590 0.00023322 0.00251766 0.00105767    0.0057436 ----
   239   0   0   F    F  1.92D-02 0.00051590 0.00023322 0.00577316 0.00242531    0.0057417 ----
   240   0   0   F    T  2.23D+00 0.00068387 0.00023608 0.00270826 0.00110933    0.0057417 ----
   241   0   0   F    F -2.12D-01 0.00068387 0.00023608 0.00603461 0.00247183    0.0057403 ----
   242   0   0   F    T  1.57D+00 0.00073128 0.00024694 0.00307711 0.00124234    0.0057402 ----
   243   0   0   F    F  6.23D-01 0.00073128 0.00024694 0.00482700 0.00194883    0.0057382 ----
   244   0   0   F    T  3.04D+00 0.00054024 0.00022310 0.00248224 0.00104048    0.0057379 ----
   245   0   0   F    F  1.66D-01 0.00054024 0.00022310 0.00754670 0.00316336    0.0057353 ----
   246   0   0   F    T  1.62D+00 0.00107923 0.00032833 0.00532501 0.00227400    0.0057352 ----
   247   0   0   F    F  1.19D-01 0.00107923 0.00032833 0.00863386 0.00368702    0.0057323 ----
   248   0   0   F    T  3.53D+00 0.00048674 0.00023492 0.00270245 0.00117054    0.0057323 ----
   249   0   0   F    F -2.96D-01 0.00048674 0.00023492 0.00952910 0.00412744    0.0057306 ----
   250   0   0   F    T  1.57D+00 0.00080970 0.00029361 0.00415309 0.00184604    0.0057302 ----
   251   0   0   F    F  1.48D-01 0.00080970 0.00029361 0.00653966 0.00290687    0.0057279 ----
   252   0   0   F    T  2.08D+00 0.00067681 0.00027192 0.00339189 0.00160831    0.0057279 ----
   253   0   0   F    F  3.24D-02 0.00067681 0.00027192 0.00704008 0.00333816    0.0057255 ----
   254   0   0   F    T  3.81D+00 0.00046562 0.00020019 0.00190495 0.00090480    0.0057255 ----
   255   0   0   F    F -4.05D-01 0.00046562 0.00020019 0.00725602 0.00344640    0.0057248 ----
   256   0   0   F    T  1.43D+00 0.00064961 0.00025002 0.00313050 0.00143573    0.0057242 ----
   257   0   0   F    F  1.37D+00 0.00064961 0.00025002 0.00447260 0.00205126    0.0057220 ----
   258   0   0   F    T  3.13D+00 0.00054641 0.00025874 0.00331854 0.00155243    0.0057210 ----
   259   0   0   F    F -2.43D-01 0.00054641 0.00025874 0.01038313 0.00485727    0.0057188 ----
   260   0   0   F    T  1.79D+00 0.00095431 0.00029695 0.00433963 0.00205684    0.0057186 ----
   261   0   0   F    F -1.38D-01 0.00095431 0.00029695 0.00775574 0.00367597    0.0057166 ----
   262   0   0   F    T  2.44D+00 0.00067567 0.00023382 0.00298932 0.00129955    0.0057166 ----
   263   0   0   F    F  4.19D-02 0.00067567 0.00023382 0.00728504 0.00316703    0.0057145 ----
   264   0   0   F    T  2.38D+00 0.00080421 0.00023989 0.00312655 0.00138547    0.0057145 ----
   265   0   0   F    F -4.01D-01 0.00080421 0.00023989 0.00744633 0.00329970    0.0057138 ----
   266   0   0   F    T  3.62D+00 0.00037376 0.00014741 0.00104765 0.00054611    0.0057132 ----
   267   0   0   F    F -4.48D-01 0.00037376 0.00014741 0.00379135 0.00197634    0.0057130 ----
   268   0   0   F    T  3.78D+00 0.00036624 0.00010339 0.00058663 0.00028883    0.0057126 ---+
   269   0   0   F    F -3.43D-01 0.00036624 0.00010339 0.00221583 0.00109097    0.0057123 ----
   270   0   0   F    T  1.73D+00 0.00036563 0.00012116 0.00090407 0.00041523    0.0057122 ----
   271   0   0   F    F -8.45D-02 0.00036563 0.00012116 0.00156112 0.00071700    0.0057118 ----
   272   0   0   F    T  2.92D+00 0.00022410 0.00008562 0.00050260 0.00022457    0.0057118 ---+
   273   0   0   F    F -1.28D-01 0.00022410 0.00008562 0.00146920 0.00065644    0.0057116 ----
   274   0   0   F    T  1.29D+00 0.00034619 0.00011806 0.00107943 0.00044290    0.0057116 ----
   275   0   0   F    F  5.81D-01 0.00034619 0.00011806 0.00139438 0.00057213    0.0057112 ----
   276   0   0   F    T  3.74D+00 0.00021865 0.00008454 0.00062540 0.00024169    0.0057111 ---+
   277   0   0   F    F -3.73D-01 0.00021865 0.00008454 0.00234045 0.00090447    0.0057110 ----
   278   0   0   F    T  2.53D+00 0.00020591 0.00007889 0.00049068 0.00022443    0.0057109 ---+
   279   0   0   F    F -1.07D-01 0.00020591 0.00007889 0.00124001 0.00056715    0.0057107 ----
   280   0   0   F    T  1.69D+00 0.00025175 0.00008910 0.00064126 0.00029971    0.0057107 ---+
   281   0   0   F    F  3.42D-01 0.00025175 0.00008910 0.00108396 0.00050662    0.0057104 ----
   282   0   0   F    T  3.93D+00 0.00017797 0.00006509 0.00033800 0.00017302    0.0057104 -+++
   283   0   0   T    F  3.93D-01 0.00017797 0.00006509 0.00132837 0.00067997    0.0057105 -+--
   284   0   0   F    T  1.46D+00 0.00017214 0.00006485 0.00039590 0.00018366    0.0057103 -+++
   285   0   0   F    F  6.35D-01 0.00017214 0.00006485 0.00057669 0.00026753    0.0057102 -+-+
   286   0   0   F    T  2.21D+00 0.00016187 0.00006547 0.00043141 0.00019830    0.0057102 -+++
   287   0   0   F    F  7.30D-01 0.00016187 0.00006547 0.00095186 0.00043754    0.0057100 -+--
   288   0   0   F    T  1.76D+00 0.00027097 0.00009534 0.00096443 0.00043103    0.0057099 ----
   289   0   0   F    F -6.72D-02 0.00027097 0.00009534 0.00169317 0.00075673    0.0057097 ----
   290   0   0   F    T  3.84D+00 0.00019612 0.00006055 0.00040204 0.00018401    0.0057097 -+++
   291   0   0   F    F -2.13D-01 0.00019612 0.00006055 0.00154229 0.00070588    0.0057095 -+--
   292   0   0   F    T  2.09D+00 0.00019585 0.00007142 0.00061054 0.00026561    0.0057095 -+-+
   293   0   0   F    F -1.39D-01 0.00019585 0.00007142 0.00127742 0.00055573    0.0057094 -+--
   294   0   0   F    T  1.83D+00 0.00018345 0.00006951 0.00063493 0.00026098    0.0057094 -+-+
   295   0   0   F    T  2.87D+00 0.00018827 0.00005160 0.00039978 0.00016675    0.0057093 -+++
   296   0   0   F    F -3.58D-01 0.00018827 0.00005160 0.00114749 0.00047862    0.0057092 -+--
   297   0   0   F    T  1.90D+00 0.00013286 0.00005230 0.00035226 0.00016203    0.0057092 -+++
   298   0   0   F    T  4.52D+00 0.00008384 0.00003057 0.00013590 0.00006800    0.0057091 ====
 Energy=    0.005709109405 NIter=   0.
 Dipole moment=       0.000000       0.000000       0.000000
 ***** Axes restored to original set *****
 -------------------------------------------------------------------
 Center     Atomic                   Forces (Hartrees/Bohr)
 Number     Number              X              Y              Z
 -------------------------------------------------------------------
    1          6          -0.000009635    0.000000604    0.000093036
    2          6          -0.000000050    0.000008764   -0.000023398
    3          8           0.000003528    0.000010584   -0.000009357
    4          6           0.000018055    0.000003404    0.000012422
    5          1          -0.000018786   -0.000006732   -0.000094574
    6          1           0.000023527   -0.000041699    0.000036902
    7          1          -0.000034715    0.000037764    0.000000509
    8          1          -0.000003077   -0.000017535    0.000023336
    9          1           0.000012985   -0.000012401   -0.000015814
   10          1           0.000008168    0.000017246   -0.000023062
 -------------------------------------------------------------------
 Cartesian Forces:  Max     0.000094574 RMS     0.000030570

 GradGradGradGradGradGradGradGradGradGradGradGradGradGradGradGradGradGrad
 Berny optimization.
 Search for a local minimum.
 Step number   1 out of a maximum of   2
 All quantities printed in internal units (Hartrees-Bohrs-Radians)
 Second derivative matrix not updated -- unit matrix used.
 RFO step:  Lambda=-2.80351221D-08.
 Linear search not attempted -- first point.
 TrRot=  0.000000  0.000000  0.000000  0.000000  0.000000  0.000000
 Variable       Old X    -DE/DX   Delta X   Delta X   Delta X     New X
                                 (Linear)    (Quad)   (Total)
    X1        1.08876  -0.00001   0.00000  -0.00001  -0.00001   1.08875
    Y1       -3.04135   0.00000   0.00000   0.00000   0.00000  -3.04135
    Z1        0.27907   0.00009   0.00000   0.00009   0.00009   0.27917
    X2        1.39079   0.00000   0.00000   0.00000   0.00000   1.39079
    Y2       -0.50065   0.00001   0.00000   0.00001   0.00001  -0.50065
    Z2        0.55853  -0.00002   0.00000  -0.00002  -0.00002   0.55851
    X3       -0.63606   0.00000   0.00000   0.00000   0.00000  -0.63605
    Y3        0.99797   0.00001   0.00000   0.00001   0.00001   0.99798
    Z3        1.03345  -0.00001   0.00000  -0.00001  -0.00001   1.03344
    X4       -1.41794   0.00002   0.00000   0.00002   0.00002  -1.41792
    Y4        2.43372   0.00000   0.00000   0.00000   0.00000   2.43373
    Z4       -1.13589   0.00001   0.00000   0.00001   0.00001  -1.13587
    X5        0.87068  -0.00002   0.00000  -0.00002  -0.00002   0.87066
    Y5       -3.77856  -0.00001   0.00000  -0.00001  -0.00001  -3.77857
    Z5       -1.42767  -0.00009   0.00000  -0.00009  -0.00009  -1.42776
    X6        1.08613   0.00002   0.00000   0.00002   0.00002   1.08616
    Y6       -4.15680  -0.00004   0.00000  -0.00004  -0.00004  -4.15684
    Z6        1.78245   0.00004   0.00000   0.00004   0.00004   1.78249
    X7        3.16262  -0.00003   0.00000  -0.00003  -0.00003   3.16258
    Y7        0.26476   0.00004   0.00000   0.00004   0.00004   0.26479
    Z7        0.46020   0.00000   0.00000   0.00000   0.00000   0.46020
    X8       -3.04591   0.00000   0.00000   0.00000   0.00000  -3.04591
    Y8        3.57474  -0.00002   0.00000  -0.00002  -0.00002   3.57472
    Z8       -0.59567   0.00002   0.00000   0.00002   0.00002  -0.59565
    X9        0.07591   0.00001   0.00000   0.00001   0.00001   0.07592
    Y9        3.71001  -0.00001   0.00000  -0.00001  -0.00001   3.71000
    Z9       -1.77500  -0.00002   0.00000  -0.00002  -0.00002  -1.77502
   X10       -1.98739   0.00001   0.00000   0.00001   0.00001  -1.98738
   Y10        1.20021   0.00002   0.00000   0.00002   0.00002   1.20023
   Z10       -2.69260  -0.00002   0.00000  -0.00002  -0.00002  -2.69262
         Item               Value     Threshold  Converged?
 Maximum Force            0.000095     0.000450     YES
 RMS     Force            0.000031     0.000300     YES
 Maximum Displacement     0.000095     0.001800     YES
 RMS     Displacement     0.000031     0.001200     YES
 Predicted change in Energy=-1.401756D-08
 Optimization completed.
    -- Stationary point found.
 GradGradGradGradGradGradGradGradGradGradGradGradGradGradGradGradGradGrad

                          Input orientation:                          
 ---------------------------------------------------------------------
 Center     Atomic     Atomic              Coordinates (Angstroms)
 Number     Number      Type              X           Y           Z
 ---------------------------------------------------------------------
    1          6      10061002        0.576147   -1.609411    0.147680
    2          6      10061000        0.735972   -0.264935    0.295562
    3          8      10081003       -0.336587    0.528103    0.546878
    4          6      10061003       -0.750341    1.287870   -0.601084
    5          1      10011000        0.460743   -1.999530   -0.755489
    6          1      10011000        0.574756   -2.199684    0.943231
    7          1      10011000        1.673586    0.140102    0.243529
    8          1      10011000       -1.611824    1.891670   -0.315217
    9          1      10011000        0.040168    1.963252   -0.939289
   10          1      10011000       -1.051682    0.635124   -1.424863
 ---------------------------------------------------------------------
                    Distance matrix (angstroms):
                    1          2          3          4          5
     1  C    0.000000
     2  C    1.361995   0.000000
     3  O    2.358264   1.357369   0.000000
     4  C    3.273295   2.329014   1.437448   0.000000
     5  H    0.990568   2.046773   2.953104   3.506788   0.000000
     6  H    0.990618   2.046636   2.903181   4.037799   1.714267
     7  H    2.067452   1.022684   2.069628   2.811790   2.654628
     8  H    4.154403   3.245942   2.056394   1.090159   4.430667
     9  H    3.772625   2.640799   2.100070   1.093356   3.989274
    10  H    3.187579   2.639257   2.100138   1.093387   3.110771
                    6          7          8          9         10
     6  H    0.000000
     7  H    2.677986   0.000000
     8  H    4.806662   3.764851   0.000000
     9  H    4.599967   2.718637   1.767390   0.000000
    10  H    4.036002   3.233522   1.767479   1.786573   0.000000
 Stoichiometry    C3H6O
 Framework group  C1[X(C3H6O)]
 Deg. of freedom    24
 Full point group                 C1
 Largest Abelian subgroup         C1      NOp   1
 Largest concise Abelian subgroup C1      NOp   1
                         Standard orientation:                         
 ---------------------------------------------------------------------
 Center     Atomic     Atomic              Coordinates (Angstroms)
 Number     Number      Type              X           Y           Z
 ---------------------------------------------------------------------
    1          6      10061002        1.701223    0.346832   -0.093104
    2          6      10061000        0.634645   -0.379268    0.343039
    3          8      10081003       -0.486682   -0.471737   -0.416255
    4          6      10061003       -1.567282    0.333780    0.083449
    5          1      10011000        1.804416    1.292619    0.182695
    6          1      10011000        2.375707   -0.069559   -0.687253
    7          1      10011000        0.694337   -0.877436    1.234188
    8          1      10011000       -2.421993    0.203766   -0.580638
    9          1      10011000       -1.867134    0.021639    1.087482
   10          1      10011000       -1.303390    1.394799    0.093266
 ---------------------------------------------------------------------
 Rotational constants (GHZ):     24.8103561      4.9918153      4.7675906
 1|1|UNPC-UNK|FOpt|Dreiding|ZDO|C3H6O1|PCUSER|13-Dec-2007|0||# opt drei
 ding||me-vinyl ether-g||0,1|C,0.576147428,-1.6094113388,0.147680087|C,
 0.7359719549,-0.2649347599,0.2955618207|O,-0.3365872158,0.5281025897,0
 .5468784888|C,-0.7503409705,1.2878702648,-0.6010844618|H,0.4607431881,
 -1.9995298702,-0.7554892858|H,0.5747560587,-2.1996835741,0.9432310461|
 H,1.6735855506,0.1401023743,0.2435294931|H,-1.6118238371,1.8916703998,
 -0.315217163|H,0.0401677434,1.9632521365,-0.9392891945|H,-1.0516824005
 ,0.6351242786,-1.4248633306||Version=IA32W-G03RevD.01|HF=0.0057091|RMS
 D=0.000e+000|RMSF=3.057e-005|Thermal=0.|Dipole=0.,0.,0.|PG=C01 [X(C3H6
 O1)]||@


 It is also a good rule not to put too much confidence in
 experimental results until they have been confirmed by
 Theory.
                             -- Sir Arthur Eddington
 Job cpu time:  0 days  0 hours  0 minutes  4.0 seconds.
 File lengths (MBytes):  RWF=     11 Int=      0 D2E=      0 Chk=      4 Scr=      1
 Normal termination of Gaussian 03 at Thu Dec 13 16:37:40 2007.
