 Entering Link 1 = C:\G03W\l1.exe PID=      3224.
  
 Copyright (c) 1988,1990,1992,1993,1995,1998,2003,2004, Gaussian, Inc.
                  All Rights Reserved.
  
 This is the Gaussian(R) 03 program.  It is based on the
 the Gaussian(R) 98 system (copyright 1998, Gaussian, Inc.),
 the Gaussian(R) 94 system (copyright 1995, Gaussian, Inc.),
 the Gaussian 92(TM) system (copyright 1992, Gaussian, Inc.),
 the Gaussian 90(TM) system (copyright 1990, Gaussian, Inc.),
 the Gaussian 88(TM) system (copyright 1988, Gaussian, Inc.),
 the Gaussian 86(TM) system (copyright 1986, Carnegie Mellon
 University), and the Gaussian 82(TM) system (copyright 1983,
 Carnegie Mellon University). Gaussian is a federally registered
 trademark of Gaussian, Inc.
  
 This software contains proprietary and confidential information,
 including trade secrets, belonging to Gaussian, Inc.
  
 This software is provided under written license and may be
 used, copied, transmitted, or stored only in accord with that
 written license.
  
 The following legend is applicable only to US Government
 contracts under FAR:
  
                    RESTRICTED RIGHTS LEGEND
  
 Use, reproduction and disclosure by the US Government is
 subject to restrictions as set forth in subparagraphs (a)
 and (c) of the Commercial Computer Software - Restricted
 Rights clause in FAR 52.227-19.
  
 Gaussian, Inc.
 340 Quinnipiac St., Bldg. 40, Wallingford CT 06492
  
  
 ---------------------------------------------------------------
 Warning -- This program may not be used in any manner that
 competes with the business of Gaussian, Inc. or will provide
 assistance to any competitor of Gaussian, Inc.  The licensee
 of this program is prohibited from giving any competitor of
 Gaussian, Inc. access to this program.  By using this program,
 the user acknowledges that Gaussian, Inc. is engaged in the
 business of creating and licensing software in the field of
 computational chemistry and represents and warrants to the
 licensee that it is not a competitor of Gaussian, Inc. and that
 it will not use this program in any manner prohibited above.
 ---------------------------------------------------------------
  

 Cite this work as:
 Gaussian 03, Revision D.01,
 M. J. Frisch, G. W. Trucks, H. B. Schlegel, G. E. Scuseria, 
 M. A. Robb, J. R. Cheeseman, J. A. Montgomery, Jr., T. Vreven, 
 K. N. Kudin, J. C. Burant, J. M. Millam, S. S. Iyengar, J. Tomasi, 
 V. Barone, B. Mennucci, M. Cossi, G. Scalmani, N. Rega, 
 G. A. Petersson, H. Nakatsuji, M. Hada, M. Ehara, K. Toyota, 
 R. Fukuda, J. Hasegawa, M. Ishida, T. Nakajima, Y. Honda, O. Kitao, 
 H. Nakai, M. Klene, X. Li, J. E. Knox, H. P. Hratchian, J. B. Cross, 
 V. Bakken, C. Adamo, J. Jaramillo, R. Gomperts, R. E. Stratmann, 
 O. Yazyev, A. J. Austin, R. Cammi, C. Pomelli, J. W. Ochterski, 
 P. Y. Ayala, K. Morokuma, G. A. Voth, P. Salvador, J. J. Dannenberg, 
 V. G. Zakrzewski, S. Dapprich, A. D. Daniels, M. C. Strain, 
 O. Farkas, D. K. Malick, A. D. Rabuck, K. Raghavachari, 
 J. B. Foresman, J. V. Ortiz, Q. Cui, A. G. Baboul, S. Clifford, 
 J. Cioslowski, B. B. Stefanov, G. Liu, A. Liashenko, P. Piskorz, 
 I. Komaromi, R. L. Martin, D. J. Fox, T. Keith, M. A. Al-Laham, 
 C. Y. Peng, A. Nanayakkara, M. Challacombe, P. M. W. Gill, 
 B. Johnson, W. Chen, M. W. Wong, C. Gonzalez, and J. A. Pople, 
 Gaussian, Inc., Wallingford CT, 2004.
 
 ******************************************
 Gaussian 03:  IA32W-G03RevD.01 13-Oct-2005
                28-Mar-2008 
 ******************************************
 --------------
 # opt dreiding
 --------------
 1/6=10,10=10,14=-1,18=4000020,38=1,56=1,64=1/1,3;
 2/9=110,17=6,18=5,40=1/2;
 3/5=30,11=9,16=1,25=1,30=1/1;
 4/20=9,22=1001,24=3/2;
 7/44=-1/16;
 1/6=10,10=10,14=-1,18=4000020,64=1/3(2);
 2/9=110/2;
 99//99;
 2/9=110/2;
 3/5=30,11=9,16=1,25=1,30=1/1;
 4/16=2,20=9,22=1001,24=3/2;
 7/44=-1/16;
 1/6=10,10=10,14=-1,18=4000020,64=1/3(-4);
 2/9=110/2;
 99//99;
 ----------------
 propen-3-ol-sk-a
 ----------------
 Symbolic Z-matrix:
 Charge =  0 Multiplicity = 1
 C                     1.40225  -0.87866   0.81381 
 C                     0.79125  -0.20066  -0.16719 
 C                    -0.41075   0.68134   0.04581 
 O                    -1.50775   0.22134  -0.71219 
 H                     2.28025  -1.51266   0.60481 
 H                     1.04925  -0.82466   1.85581 
 H                     1.17425  -0.28266  -1.19919 
 H                    -0.72775   0.70934   1.11481 
 H                    -0.18075   1.72334  -0.28119 
 H                    -2.22975   0.80434  -0.55219 
 
 I=    1 IAn=  6 Valence= 6.
          JB=  1 J=    2 IAn=  6 IBT= 2 Dist= 1.34D+00
          JB=  2 J=    5 IAn=  1 IBT= 1 Dist= 1.10D+00
          JB=  3 J=    6 IAn=  1 IBT= 1 Dist= 1.10D+00
 I=    2 IAn=  6 Valence= 6.
          JB=  1 J=    1 IAn=  6 IBT= 2 Dist= 1.34D+00
          JB=  2 J=    3 IAn=  6 IBT= 1 Dist= 1.51D+00
          JB=  3 J=    7 IAn=  1 IBT= 1 Dist= 1.10D+00
 Include all MM classes
 MMInit generated parameter data with length LenPar=   908.

 GradGradGradGradGradGradGradGradGradGradGradGradGradGradGradGradGradGrad
 Berny optimization.
 Initialization pass.
 No Z-matrix variables, so optimization will use Cartesian coordinates.
 Trust Radius=1.00D-01 FncErr=1.00D-07 GrdErr=1.00D-07
 Number of steps in this run=   2 maximum allowed number of steps=   2.
 GradGradGradGradGradGradGradGradGradGradGradGradGradGradGradGradGradGrad

                          Input orientation:                          
 ---------------------------------------------------------------------
 Center     Atomic     Atomic              Coordinates (Angstroms)
 Number     Number      Type              X           Y           Z
 ---------------------------------------------------------------------
    1          6      10061002        1.402250   -0.878656    0.813813
    2          6      10061002        0.791250   -0.200656   -0.167188
    3          6      10061003       -0.410750    0.681344    0.045813
    4          8      10081003       -1.507750    0.221344   -0.712188
    5          1      10011000        2.280250   -1.512656    0.604813
    6          1      10011000        1.049250   -0.824656    1.855813
    7          1      10011000        1.174250   -0.282656   -1.199188
    8          1      10011000       -0.727750    0.709344    1.114813
    9          1      10011000       -0.180750    1.723344   -0.281188
   10          1      10011000       -2.229750    0.804344   -0.552188
 ---------------------------------------------------------------------
                    Distance matrix (angstroms):
                    1          2          3          4          5
     1  C    0.000000
     2  C    1.339913   0.000000
     3  C    2.512050   1.506020   0.000000
     4  O    3.465080   2.400106   1.410522   0.000000
     5  H    1.102960   2.129425   3.516760   4.369232   0.000000
     6  H    1.101494   2.132714   2.770512   3.771868   1.885128
     7  H    2.111722   1.103828   2.234177   2.772059   2.447560
     8  H    2.673807   2.186089   1.115363   2.045598   3.774314
     9  H    3.236560   2.158600   1.116061   2.050047   4.160915
    10  H    4.229642   3.206975   1.918722   0.941686   5.200696
                    6          7          8          9         10
     6  H    0.000000
     7  H    3.105224   0.000000
     8  H    2.461700   3.155355   0.000000
     9  H    3.545698   2.588974   1.810033   0.000000
    10  H    4.382231   3.631445   2.245867   2.261947   0.000000
 Stoichiometry    C3H6O
 Framework group  C1[X(C3H6O)]
 Deg. of freedom    24
 Full point group                 C1
 Largest Abelian subgroup         C1      NOp   1
 Largest concise Abelian subgroup C1      NOp   1
                         Standard orientation:                         
 ---------------------------------------------------------------------
 Center     Atomic     Atomic              Coordinates (Angstroms)
 Number     Number      Type              X           Y           Z
 ---------------------------------------------------------------------
    1          6      10061002       -1.823784    0.141527   -0.233268
    2          6      10061002       -0.691877   -0.398234    0.238760
    3          6      10061003        0.602990    0.357992    0.378534
    4          8      10081003        1.616253   -0.239477   -0.399863
    5          1      10011000       -2.746790   -0.456505   -0.316566
    6          1      10011000       -1.868861    1.195086   -0.551498
    7          1      10011000       -0.686875   -1.458575    0.545499
    8          1      10011000        0.507579    1.419661    0.050221
    9          1      10011000        0.937014    0.346855    1.443380
   10          1      10011000        2.403934    0.261584   -0.276294
 ---------------------------------------------------------------------
 Rotational constants (GHZ):     26.6038981      4.2606838      4.1695510
 Standard basis: Dummy (5D, 7F)
 There are    10 symmetry adapted basis functions of A   symmetry.
 Integral buffers will be    262144 words long.
 Raffenetti 1 integral format.
 Two-electron integral symmetry is turned on.
    10 basis functions,    10 primitive gaussians,    10 cartesian basis functions
     7 alpha electrons        7 beta electrons
       nuclear repulsion energy        22.9412055843 Hartrees.
 NAtoms=   10 NActive=   10 NUniq=   10 SFac= 7.50D-01 NAtFMM=   80 NAOKFM=F Big=F
 Dreiding calculation of energy and first derivatives.
 MO and density RWFs will be updated without deorthogonalization.
 NRF= 0 NRA=   0 NVA=  10 HaveQM=F
 Convergence limit is  0.750E-04 MaxStp=  5000 StMxLn= 1.00D-04 StpMin= 1.00D-06.
 Convergence criteria           0.00011250 0.00007500 0.00045000 0.00030000
  Step  NS  ND Rises OKQ   Scale  Max. Force  RMS Force Max. Disp.  RMS Disp.     Energy   Flag
     1   0   0   F    T  1.00D+00 0.06313753 0.02819605 0.06313753 0.02819605    0.0323470 ----
     2   0   0   F    F  3.10D-02 0.06313753 0.02819605 0.06313753 0.02819605    0.0200731 ----
     3   0   0   F    T  1.29D+00 0.04821798 0.01876072 0.05926952 0.02253406    0.0200620 ----
     4   0   0   F    F  3.73D-01 0.04821798 0.01876072 0.07646027 0.02906992    0.0113991 ----
     5   0   0   F    T  4.09D+00 0.02404800 0.00856835 0.02536838 0.00975850    0.0107075 ----
     6   0   0   T    F  3.98D-01 0.02404800 0.00856835 0.10379361 0.03992645    0.0129972 ----
     7   0   0   F    T  2.92D+00 0.01334819 0.00462838 0.01200060 0.00543770    0.0089149 ----
     8   0   0   F    F -2.27D-01 0.01334819 0.00462838 0.03507776 0.01589440    0.0082540 ----
     9   0   0   F    T  3.88D+00 0.00622108 0.00263464 0.00824443 0.00316282    0.0081921 ----
    10   0   0   F    F -2.68D-01 0.00622108 0.00263464 0.03201439 0.01228170    0.0079359 ----
    11   0   0   F    T  2.85D+00 0.00488827 0.00221075 0.00698602 0.00315889    0.0078964 ----
    12   0   0   F    F -1.44D-02 0.00488827 0.00221075 0.01988814 0.00899289    0.0076904 ----
    13   0   0   F    T  3.76D+00 0.00487515 0.00162429 0.00597831 0.00235791    0.0076904 ----
    14   0   0   T    F  3.35D-01 0.00487515 0.00162429 0.02247325 0.00886370    0.0078363 ----
    15   0   0   F    T  1.62D+00 0.00302559 0.00123332 0.00481078 0.00183328    0.0076405 ----
    16   0   0   F    F  1.83D-01 0.00302559 0.00123332 0.00779152 0.00296917    0.0075979 ----
    17   0   0   F    T  3.18D+00 0.00263522 0.00079588 0.00298449 0.00110517    0.0075968 ----
    18   0   0   F    F  2.53D-01 0.00263522 0.00079588 0.00948502 0.00351235    0.0075605 ----
    19   0   0   F    T  7.86D+00 0.00084060 0.00044221 0.00124216 0.00056004    0.0075590 ----
    20   0   0   T    F  3.81D-01 0.00084060 0.00044221 0.00975876 0.00439980    0.0075734 ----
    21   0   0   F    T  1.94D+00 0.00144063 0.00049621 0.00202157 0.00086240    0.0075502 ----
    22   0   0   F    F  7.65D-01 0.00144063 0.00049621 0.00392532 0.00167454    0.0075399 ----
    23   0   0   F    T  3.63D+00 0.00147118 0.00044224 0.00194036 0.00081478    0.0075376 ----
    24   0   0   T    F  3.99D-01 0.00147118 0.00044224 0.00703985 0.00295613    0.0075430 ----
    25   0   0   F    T  1.72D+00 0.00090105 0.00037215 0.00170232 0.00068673    0.0075333 ----
    26   0   0   F    F  2.81D-01 0.00090105 0.00037215 0.00292157 0.00117858    0.0075290 ----
    27   0   0   F    T  2.16D+00 0.00082362 0.00034932 0.00172305 0.00069833    0.0075287 ----
    28   0   0   F    F  2.77D-01 0.00082362 0.00034932 0.00372615 0.00151015    0.0075239 ----
    29   0   0   F    T  5.45D+00 0.00057316 0.00022022 0.00098695 0.00035386    0.0075237 ----
    30   0   0   T    F  4.33D-01 0.00057316 0.00022022 0.00538034 0.00192907    0.0075249 ----
    31   0   0   F    T  3.66D+00 0.00034781 0.00015244 0.00054135 0.00022821    0.0075220 ---+
    32   0   0   F    F  8.68D-01 0.00034781 0.00015244 0.00198174 0.00083541    0.0075201 ----
    33   0   0   F    T  3.47D+00 0.00071612 0.00020204 0.00098489 0.00044934    0.0075196 ----
    34   0   0   F    F -4.84D-01 0.00071612 0.00020204 0.00342087 0.00156071    0.0075194 ----
    35   0   0   F    T  1.68D+00 0.00064265 0.00019931 0.00105754 0.00048076    0.0075185 ----
    36   0   0   F    F -9.79D-02 0.00064265 0.00019931 0.00177232 0.00080570    0.0075176 ----
    37   0   0   F    T  5.63D+00 0.00018433 0.00008829 0.00027726 0.00012904    0.0075176 --++
    38   0   0   T    F  3.63D-01 0.00018433 0.00008829 0.00156160 0.00072680    0.0075181 ----
    39   0   0   F    T  2.42D+00 0.00016875 0.00007082 0.00029788 0.00010913    0.0075173 -+++
    40   0   0   F    F  2.15D+00 0.00016875 0.00007082 0.00072098 0.00026414    0.0075170 -+-+
    41   0   0   F    T  4.65D+00 0.00024124 0.00008510 0.00042756 0.00017906    0.0075168 --++
    42   0   0   T    F  3.04D-01 0.00024124 0.00008510 0.00198947 0.00083319    0.0075174 ----
    43   0   0   F    T  5.28D+00 0.00007000 0.00003589 0.00013528 0.00004796    0.0075166 ====
 Energy=    0.007516617116 NIter=   0.
 Dipole moment=       0.000000       0.000000       0.000000
 ***** Axes restored to original set *****
 -------------------------------------------------------------------
 Center     Atomic                   Forces (Hartrees/Bohr)
 Number     Number              X              Y              Z
 -------------------------------------------------------------------
    1          6          -0.000055054   -0.000040056   -0.000072603
    2          6          -0.000036519   -0.000056876    0.000019885
    3          6           0.000033662    0.000019259    0.000005234
    4          8           0.000000568   -0.000009496    0.000049692
    5          1           0.000021423    0.000047199    0.000004800
    6          1          -0.000019641   -0.000000307   -0.000011398
    7          1           0.000083589    0.000023975    0.000006918
    8          1          -0.000018803    0.000026128    0.000062125
    9          1          -0.000017452   -0.000017241   -0.000056246
   10          1           0.000008226    0.000007416   -0.000008407
 -------------------------------------------------------------------
 Cartesian Forces:  Max     0.000083589 RMS     0.000035894

 GradGradGradGradGradGradGradGradGradGradGradGradGradGradGradGradGradGrad
 Berny optimization.
 Search for a local minimum.
 Step number   1 out of a maximum of   2
 All quantities printed in internal units (Hartrees-Bohrs-Radians)
 Second derivative matrix not updated -- unit matrix used.
 RFO step:  Lambda=-3.86515190D-08.
 Linear search not attempted -- first point.
 TrRot=  0.000000  0.000000  0.000000  0.000000  0.000000  0.000000
 Variable       Old X    -DE/DX   Delta X   Delta X   Delta X     New X
                                 (Linear)    (Quad)   (Total)
    X1        2.62360  -0.00006   0.00000  -0.00006  -0.00006   2.62354
    Y1       -1.64580  -0.00004   0.00000  -0.00004  -0.00004  -1.64584
    Z1        1.53269  -0.00007   0.00000  -0.00007  -0.00007   1.53262
    X2        1.45205  -0.00004   0.00000  -0.00004  -0.00004   1.45201
    Y2       -0.34887  -0.00006   0.00000  -0.00006  -0.00006  -0.34893
    Z2       -0.29705   0.00002   0.00000   0.00002   0.00002  -0.29703
    X3       -0.71945   0.00003   0.00000   0.00003   0.00003  -0.71941
    Y3        1.26867   0.00002   0.00000   0.00002   0.00002   1.26869
    Z3        0.10951   0.00001   0.00000   0.00001   0.00001   0.10952
    X4       -2.78725   0.00000   0.00000   0.00000   0.00000  -2.78725
    Y4        0.33563  -0.00001   0.00000  -0.00001  -0.00001   0.33562
    Z4       -1.36022   0.00005   0.00000   0.00005   0.00005  -1.36017
    X5        4.10408   0.00002   0.00000   0.00002   0.00002   4.10410
    Y5       -2.72214   0.00005   0.00000   0.00005   0.00005  -2.72209
    Z5        1.12384   0.00000   0.00000   0.00000   0.00000   1.12384
    X6        2.04460  -0.00002   0.00000  -0.00002  -0.00002   2.04458
    Y6       -1.56132   0.00000   0.00000   0.00000   0.00000  -1.56133
    Z6        3.31413  -0.00001   0.00000  -0.00001  -0.00001   3.31412
    X7        2.11173   0.00008   0.00000   0.00008   0.00008   2.11182
    Y7       -0.50079   0.00002   0.00000   0.00002   0.00002  -0.50076
    Z7       -2.05074   0.00001   0.00000   0.00001   0.00001  -2.05073
    X8       -1.26805  -0.00002   0.00000  -0.00002  -0.00002  -1.26807
    Y8        1.33931   0.00003   0.00000   0.00003   0.00003   1.33934
    Z8        2.10374   0.00006   0.00000   0.00006   0.00006   2.10380
    X9       -0.23425  -0.00002   0.00000  -0.00002  -0.00002  -0.23427
    Y9        3.18340  -0.00002   0.00000  -0.00002  -0.00002   3.18338
    Z9       -0.49907  -0.00006   0.00000  -0.00006  -0.00006  -0.49912
   X10       -4.22696   0.00001   0.00000   0.00001   0.00001  -4.22695
   Y10        1.48423   0.00001   0.00000   0.00001   0.00001   1.48424
   Z10       -1.09856  -0.00001   0.00000  -0.00001  -0.00001  -1.09857
         Item               Value     Threshold  Converged?
 Maximum Force            0.000084     0.000450     YES
 RMS     Force            0.000036     0.000300     YES
 Maximum Displacement     0.000084     0.001800     YES
 RMS     Displacement     0.000036     0.001200     YES
 Predicted change in Energy=-1.932576D-08
 Optimization completed.
    -- Stationary point found.
 GradGradGradGradGradGradGradGradGradGradGradGradGradGradGradGradGradGrad

                          Input orientation:                          
 ---------------------------------------------------------------------
 Center     Atomic     Atomic              Coordinates (Angstroms)
 Number     Number      Type              X           Y           Z
 ---------------------------------------------------------------------
    1          6      10061002        1.388347   -0.870922    0.811065
    2          6      10061002        0.768390   -0.184614   -0.157191
    3          6      10061003       -0.380714    0.671349    0.057952
    4          8      10081003       -1.474951    0.177609   -0.719797
    5          1      10011000        2.171785   -1.440495    0.594709
    6          1      10011000        1.081955   -0.826218    1.753764
    7          1      10011000        1.117481   -0.265005   -1.085204
    8          1      10011000       -0.671025    0.708732    1.113252
    9          1      10011000       -0.123959    1.684580   -0.264094
   10          1      10011000       -2.236810    0.785420   -0.581331
 ---------------------------------------------------------------------
                    Distance matrix (angstroms):
                    1          2          3          4          5
     1  C    0.000000
     2  C    1.338987   0.000000
     3  C    2.464824   1.448930   0.000000
     4  O    3.411955   2.341006   1.430394   0.000000
     5  H    0.992471   2.027834   3.356076   4.200580   0.000000
     6  H    0.992248   2.040032   2.694046   3.696477   1.705426
     7  H    2.009065   0.994755   2.104318   2.655209   2.305524
     8  H    2.612975   2.117548   1.095142   2.070859   3.601338
     9  H    3.158105   2.074030   1.093743   2.074562   3.971660
    10  H    4.221848   3.186233   1.966415   0.984396   5.076759
                    6          7          8          9         10
     6  H    0.000000
     7  H    2.894126   0.000000
     8  H    2.416457   2.996687   0.000000
     9  H    3.439490   2.452810   1.774443   0.000000
    10  H    4.366262   3.550852   2.308501   2.318031   0.000000
 Stoichiometry    C3H6O
 Framework group  C1[X(C3H6O)]
 Deg. of freedom    24
 Full point group                 C1
 Largest Abelian subgroup         C1      NOp   1
 Largest concise Abelian subgroup C1      NOp   1
                         Standard orientation:                         
 ---------------------------------------------------------------------
 Center     Atomic     Atomic              Coordinates (Angstroms)
 Number     Number      Type              X           Y           Z
 ---------------------------------------------------------------------
    1          6      10061002       -1.799398    0.074638   -0.261536
    2          6      10061002       -0.657571   -0.333900    0.306105
    3          6      10061003        0.569838    0.436035    0.314201
    4          8      10081003        1.589051   -0.314885   -0.351644
    5          1      10011000       -2.605566   -0.503438   -0.231190
    6          1      10011000       -1.863815    0.952543   -0.719454
    7          1      10011000       -0.648480   -1.222784    0.752579
    8          1      10011000        0.448153    1.404958   -0.181499
    9          1      10011000        0.860174    0.615517    1.353319
   10          1      10011000        2.419910    0.211644   -0.313228
 ---------------------------------------------------------------------
 Rotational constants (GHZ):     27.3440719      4.4396873      4.3336294
 1|1|UNPC-UNK|FOpt|Dreiding|ZDO|C3H6O1|PCUSER|28-Mar-2008|0||# opt drei
 ding||propen-3-ol-sk-a||0,1|C,1.3883474795,-0.8709217946,0.8110653735|
 C,0.7683895128,-0.1846136704,-0.1571908884|C,-0.3807139771,0.671349239
 2,0.057952211|O,-1.4749511063,0.1776091295,-0.7197969499|H,2.171785407
 7,-1.4404952959,0.5947085818|H,1.0819551431,-0.8262175541,1.753764489|
 H,1.1174813676,-0.2650047634,-1.0852044968|H,-0.6710252543,0.708732082
 3,1.1132524463|H,-0.1239587286,1.6845804228,-0.2640944472|H,-2.2368098
 446,0.7854197047,-0.5813313193||Version=IA32W-G03RevD.01|HF=0.0075166|
 RMSD=0.000e+000|RMSF=3.589e-005|Thermal=0.|Dipole=0.,0.,0.|PG=C01 [X(C
 3H6O1)]||@


 WE HAVE SEEN THAT MAN ON THE AVERAGE DOES NOT LIVE ABOVE
 TWO-AND-TWENTY YEARS.  DURING THESE TWO AND TWENTY
 YEARS HE IS LIABLE TO TWO AND TWENTY THOUSAND EVILS,
 MANY OF WHICH ARE INCURABLE.  YET EVEN IN THIS DREADFUL STATE
 MEN STILL STRUT AND POSE ON THE STAGE OF LIFE.
 THEY MAKE LOVE AT THE RISK OF DESTRUCTION,
 INTRIGUE, CARRY ON WAR, AND FORM PROJECTS, JUST AS IF THEY
 WERE TO LIVE IN LUXURY AND HAPPINESS FOR A THOUSAND
 AGES.

                                              -- VOLTAIRE
 Job cpu time:  0 days  0 hours  0 minutes  3.0 seconds.
 File lengths (MBytes):  RWF=     11 Int=      0 D2E=      0 Chk=      4 Scr=      1
 Normal termination of Gaussian 03 at Fri Mar 28 18:00:57 2008.
