 Entering Link 1 = C:\G03W\l1.exe PID=      4092.
  
 Copyright (c) 1988,1990,1992,1993,1995,1998,2003,2004, Gaussian, Inc.
                  All Rights Reserved.
  
 This is the Gaussian(R) 03 program.  It is based on the
 the Gaussian(R) 98 system (copyright 1998, Gaussian, Inc.),
 the Gaussian(R) 94 system (copyright 1995, Gaussian, Inc.),
 the Gaussian 92(TM) system (copyright 1992, Gaussian, Inc.),
 the Gaussian 90(TM) system (copyright 1990, Gaussian, Inc.),
 the Gaussian 88(TM) system (copyright 1988, Gaussian, Inc.),
 the Gaussian 86(TM) system (copyright 1986, Carnegie Mellon
 University), and the Gaussian 82(TM) system (copyright 1983,
 Carnegie Mellon University). Gaussian is a federally registered
 trademark of Gaussian, Inc.
  
 This software contains proprietary and confidential information,
 including trade secrets, belonging to Gaussian, Inc.
  
 This software is provided under written license and may be
 used, copied, transmitted, or stored only in accord with that
 written license.
  
 The following legend is applicable only to US Government
 contracts under FAR:
  
                    RESTRICTED RIGHTS LEGEND
  
 Use, reproduction and disclosure by the US Government is
 subject to restrictions as set forth in subparagraphs (a)
 and (c) of the Commercial Computer Software - Restricted
 Rights clause in FAR 52.227-19.
  
 Gaussian, Inc.
 340 Quinnipiac St., Bldg. 40, Wallingford CT 06492
  
  
 ---------------------------------------------------------------
 Warning -- This program may not be used in any manner that
 competes with the business of Gaussian, Inc. or will provide
 assistance to any competitor of Gaussian, Inc.  The licensee
 of this program is prohibited from giving any competitor of
 Gaussian, Inc. access to this program.  By using this program,
 the user acknowledges that Gaussian, Inc. is engaged in the
 business of creating and licensing software in the field of
 computational chemistry and represents and warrants to the
 licensee that it is not a competitor of Gaussian, Inc. and that
 it will not use this program in any manner prohibited above.
 ---------------------------------------------------------------
  

 Cite this work as:
 Gaussian 03, Revision D.01,
 M. J. Frisch, G. W. Trucks, H. B. Schlegel, G. E. Scuseria, 
 M. A. Robb, J. R. Cheeseman, J. A. Montgomery, Jr., T. Vreven, 
 K. N. Kudin, J. C. Burant, J. M. Millam, S. S. Iyengar, J. Tomasi, 
 V. Barone, B. Mennucci, M. Cossi, G. Scalmani, N. Rega, 
 G. A. Petersson, H. Nakatsuji, M. Hada, M. Ehara, K. Toyota, 
 R. Fukuda, J. Hasegawa, M. Ishida, T. Nakajima, Y. Honda, O. Kitao, 
 H. Nakai, M. Klene, X. Li, J. E. Knox, H. P. Hratchian, J. B. Cross, 
 V. Bakken, C. Adamo, J. Jaramillo, R. Gomperts, R. E. Stratmann, 
 O. Yazyev, A. J. Austin, R. Cammi, C. Pomelli, J. W. Ochterski, 
 P. Y. Ayala, K. Morokuma, G. A. Voth, P. Salvador, J. J. Dannenberg, 
 V. G. Zakrzewski, S. Dapprich, A. D. Daniels, M. C. Strain, 
 O. Farkas, D. K. Malick, A. D. Rabuck, K. Raghavachari, 
 J. B. Foresman, J. V. Ortiz, Q. Cui, A. G. Baboul, S. Clifford, 
 J. Cioslowski, B. B. Stefanov, G. Liu, A. Liashenko, P. Piskorz, 
 I. Komaromi, R. L. Martin, D. J. Fox, T. Keith, M. A. Al-Laham, 
 C. Y. Peng, A. Nanayakkara, M. Challacombe, P. M. W. Gill, 
 B. Johnson, W. Chen, M. W. Wong, C. Gonzalez, and J. A. Pople, 
 Gaussian, Inc., Wallingford CT, 2004.
 
 ******************************************
 Gaussian 03:  IA32W-G03RevD.01 13-Oct-2005
                28-Mar-2008 
 ******************************************
 --------------
 # opt dreiding
 --------------
 1/6=10,10=10,14=-1,18=4000020,38=1,56=1,64=1/1,3;
 2/9=110,17=6,18=5,40=1/2;
 3/5=30,11=9,16=1,25=1,30=1/1;
 4/20=9,22=1001,24=3/2;
 7/44=-1/16;
 1/6=10,10=10,14=-1,18=4000020,64=1/3(2);
 2/9=110/2;
 99//99;
 2/9=110/2;
 3/5=30,11=9,16=1,25=1,30=1/1;
 4/16=2,20=9,22=1001,24=3/2;
 7/44=-1/16;
 1/6=10,10=10,14=-1,18=4000020,64=1/3(-4);
 2/9=110/2;
 99//99;
 ---------
 THP-SMeax
 ---------
 Symbolic Z-matrix:
 Charge =  0 Multiplicity = 1
 C                    -0.85281  -1.23069  -1.80478 
 C                    -0.97781   0.29531  -1.86778 
 C                     0.34819   0.91731  -1.41278 
 C                    -0.39181  -1.66169  -0.40678 
 C                     0.80519   0.36331  -0.05178 
 O                     0.84619  -1.05769  -0.07378 
 S                    -0.21781   1.05931   1.29822 
 C                     0.63719   0.29831   2.70722 
 H                    -0.11381  -1.58069  -2.56578 
 H                    -1.83181  -1.70769  -2.05078 
 H                    -1.80981   0.63331  -1.20678 
 H                    -1.22981   0.62331  -2.90478 
 H                     0.27019   2.03131  -1.38978 
 H                     1.12719   0.67431  -2.17478 
 H                    -0.23581  -2.76769  -0.38178 
 H                    -1.15681  -1.41969   0.36922 
 H                     1.85719   0.70131   0.11722 
 H                     1.71419   0.58131   2.70522 
 H                     0.17319   0.66231   3.65122 
 H                     0.54219  -0.80969   2.67022 
 
 Include all MM classes
 MMInit generated parameter data with length LenPar=  2173.

 GradGradGradGradGradGradGradGradGradGradGradGradGradGradGradGradGradGrad
 Berny optimization.
 Initialization pass.
 No Z-matrix variables, so optimization will use Cartesian coordinates.
 Trust Radius=1.00D-01 FncErr=1.00D-07 GrdErr=1.00D-07
 Number of steps in this run=   2 maximum allowed number of steps=   2.
 GradGradGradGradGradGradGradGradGradGradGradGradGradGradGradGradGradGrad

                          Input orientation:                          
 ---------------------------------------------------------------------
 Center     Atomic     Atomic              Coordinates (Angstroms)
 Number     Number      Type              X           Y           Z
 ---------------------------------------------------------------------
    1          6      10061003       -0.852806   -1.230694   -1.804778
    2          6      10061003       -0.977806    0.295306   -1.867778
    3          6      10061003        0.348194    0.917306   -1.412778
    4          6      10061003       -0.391806   -1.661694   -0.406778
    5          6      10061003        0.805194    0.363306   -0.051778
    6          8      10081003        0.846194   -1.057694   -0.073778
    7         16      10161003       -0.217806    1.059306    1.298222
    8          6      10061003        0.637194    0.298306    2.707222
    9          1      10011000       -0.113806   -1.580694   -2.565778
   10          1      10011000       -1.831806   -1.707694   -2.050778
   11          1      10011000       -1.809806    0.633306   -1.206778
   12          1      10011000       -1.229806    0.623306   -2.904778
   13          1      10011000        0.270194    2.031306   -1.389778
   14          1      10011000        1.127194    0.674306   -2.174778
   15          1      10011000       -0.235806   -2.767694   -0.381778
   16          1      10011000       -1.156806   -1.419694    0.369222
   17          1      10011000        1.857194    0.701306    0.117222
   18          1      10011000        1.714194    0.581306    2.705222
   19          1      10011000        0.173194    0.662306    3.651222
   20          1      10011000        0.542194   -0.809694    2.670222
 ---------------------------------------------------------------------
                    Distance matrix (angstroms):
                    1          2          3          4          5
     1  C    0.000000
     2  C    1.532407   0.000000
     3  C    2.491981   1.533683   0.000000
     4  C    1.533847   2.511527   2.865463   0.000000
     5  C    2.891852   2.545893   1.538859   2.378962   0.000000
     6  O    2.431644   2.894136   2.437529   1.417162   1.421762
     7  S    3.908444   3.344376   2.773092   3.215765   1.831241
     8  C    4.991601   4.851686   4.176252   3.820659   2.764874
     9  H    1.117024   2.180155   2.789777   2.178331   3.308156
    10  H    1.116461   2.185135   3.471321   2.185967   3.903692
    11  H    2.178979   1.115074   2.186334   2.813849   2.871437
    12  H    2.188480   1.116448   2.191480   3.487617   3.514034
    13  H    3.474766   2.190818   1.116964   3.878503   2.204244
    14  H    2.772422   2.160767   1.116483   3.300012   2.169685
    15  H    2.183572   3.484355   3.870819   1.117227   3.315983
    16  H    2.203273   2.824435   3.301836   1.116228   2.684357
    17  H    3.843281   3.484578   2.159777   3.303989   1.117814
    18  H    5.496629   5.314225   4.351641   4.376166   2.911160
    19  H    5.865498   5.649677   5.073435   4.710368   3.768426
    20  H    4.706261   4.911707   4.437460   3.326588   2.975631
                    6          7          8          9         10
     6  O    0.000000
     7  S    2.737913   0.000000
     8  C    3.101029   1.815331   0.000000
     9  H    2.721248   4.680909   5.647935   0.000000
    10  H    3.391565   4.634338   5.723510   1.798021   0.000000
    11  H    3.346267   2.998494   4.628113   3.102433   2.488594
    12  H    3.892313   4.345049   5.923332   2.493590   2.554463
    13  H    3.406692   2.899702   4.463562   3.817981   4.339982
    14  H    2.737332   3.744193   4.920915   2.603457   3.800655
    15  H    2.046873   4.179552   4.438965   2.488716   2.540940
    16  H    2.083099   2.808951   3.411188   3.118973   2.528828
    17  H    2.037813   2.414239   2.891178   4.036193   4.910420
    18  H    3.341046   2.437367   1.113563   5.983249   6.358708
    19  H    4.157758   2.418078   1.113071   6.615475   6.492282
    20  H    2.771905   2.439907   1.112681   5.332961   5.360049
                   11         12         13         14         15
    11  H    0.000000
    12  H    1.794353   0.000000
    13  H    2.512826   2.554934   0.000000
    14  H    3.092681   2.467985   1.786651   0.000000
    15  H    3.837304   4.341940   4.929757   4.113391   0.000000
    16  H    2.669268   3.859826   4.127931   4.009168   1.797038
    17  H    3.899293   4.320664   2.560960   2.405596   4.082109
    18  H    5.265456   6.335693   4.577845   4.916057   4.954581
    19  H    5.247218   6.704556   5.224486   5.903604   5.310110
    20  H    4.758706   6.022798   4.962748   5.100834   3.708605
                   16         17         18         19         20
    16  H    0.000000
    17  H    3.694095   0.000000
    18  H    4.207557   2.594724   0.000000
    19  H    4.107937   3.914912   1.810016   0.000000
    20  H    2.924603   3.245020   1.819255   1.807016   0.000000
 Stoichiometry    C6H12OS
 Framework group  C1[X(C6H12OS)]
 Deg. of freedom    54
 Full point group                 C1
 Largest Abelian subgroup         C1      NOp   1
 Largest concise Abelian subgroup C1      NOp   1
                         Standard orientation:                         
 ---------------------------------------------------------------------
 Center     Atomic     Atomic              Coordinates (Angstroms)
 Number     Number      Type              X           Y           Z
 ---------------------------------------------------------------------
    1          6      10061003       -2.239128    0.580754   -0.384887
    2          6      10061003       -1.863645   -0.900661   -0.497533
    3          6      10061003       -0.946750   -1.266985    0.676049
    4          6      10061003       -0.970759    1.436158   -0.274381
    5          6      10061003        0.249197   -0.305574    0.792171
    6          8      10081003       -0.192502    1.044862    0.843453
    7         16      10161003        1.470498   -0.641309   -0.530384
    8          6      10061003        2.740417    0.559159   -0.038847
    9          1      10011000       -2.877064    0.740936    0.517954
   10          1      10011000       -2.838354    0.894697   -1.273062
   11          1      10011000       -1.343355   -1.085386   -1.466328
   12          1      10011000       -2.781093   -1.536836   -0.492261
   13          1      10011000       -0.605804   -2.327152    0.589962
   14          1      10011000       -1.543881   -1.206282    1.617476
   15          1      10011000       -1.246813    2.508287   -0.124279
   16          1      10011000       -0.357743    1.381513   -1.205611
   17          1      10011000        0.752053   -0.504724    1.770427
   18          1      10011000        3.074357    0.363675    1.005324
   19          1      10011000        3.615559    0.458752   -0.719268
   20          1      10011000        2.348198    1.597463   -0.117240
 ---------------------------------------------------------------------
 Rotational constants (GHZ):      2.9933993      1.2755886      1.0969220
 Standard basis: Dummy (5D, 7F)
 There are    20 symmetry adapted basis functions of A   symmetry.
 Integral buffers will be    262144 words long.
 Raffenetti 1 integral format.
 Two-electron integral symmetry is turned on.
    20 basis functions,    20 primitive gaussians,    20 cartesian basis functions
    14 alpha electrons       14 beta electrons
       nuclear repulsion energy        75.0947584829 Hartrees.
 NAtoms=   20 NActive=   20 NUniq=   20 SFac= 7.50D-01 NAtFMM=   80 NAOKFM=F Big=F
 Dreiding calculation of energy and first derivatives.
 MO and density RWFs will be updated without deorthogonalization.
 NRF= 0 NRA=   0 NVA=  20 HaveQM=F
 Convergence limit is  0.750E-04 MaxStp=  5000 StMxLn= 1.00D-04 StpMin= 1.00D-06.
 Convergence criteria           0.00011250 0.00007500 0.00045000 0.00030000
  Step  NS  ND Rises OKQ   Scale  Max. Force  RMS Force Max. Disp.  RMS Disp.     Energy   Flag
     1   0   0   F    T  1.00D+00 0.03181722 0.01167222 0.03181722 0.01167222    0.0299794 ----
     2   0   0   F    F  2.28D-01 0.03181722 0.01167222 0.03181722 0.01167222    0.0251430 ----
     3   0   0   F    T  4.42D+00 0.00836222 0.00313368 0.00861781 0.00324465    0.0249707 ----
     4   0   0   F    F -4.07D-01 0.00836222 0.00313368 0.03807851 0.01433676    0.0245636 ----
     5   0   0   F    T  3.15D+00 0.00552156 0.00218542 0.00798788 0.00269572    0.0241994 ----
     6   0   0   F    F -2.18D-01 0.00552156 0.00218542 0.02517632 0.00849639    0.0238735 ----
     7   0   0   F    T  3.29D+00 0.00421035 0.00152753 0.00650951 0.00202042    0.0238463 ----
     8   0   0   F    F  5.35D-01 0.00421035 0.00152753 0.02141888 0.00664799    0.0235360 ----
     9   0   0   F    T  3.05D+00 0.00583146 0.00179929 0.00947782 0.00334300    0.0234932 ----
    10   0   0   F    F -2.15D-01 0.00583146 0.00179929 0.02892278 0.01020158    0.0232782 ----
    11   0   0   F    T  4.61D+00 0.00252012 0.00112337 0.00377140 0.00173900    0.0232609 ----
    12   0   0   F    F -3.62D-01 0.00252012 0.00112337 0.01736983 0.00800926    0.0231856 ----
    13   0   0   F    T  3.09D+00 0.00235115 0.00098192 0.00379773 0.00165408    0.0231497 ----
    14   0   0   F    F  2.09D-01 0.00235115 0.00098192 0.01172698 0.00510761    0.0230450 ----
    15   0   0   F    T  4.09D+00 0.00184889 0.00085209 0.00370902 0.00151047    0.0230418 ----
    16   0   0   F    F -3.29D-01 0.00184889 0.00085209 0.01515903 0.00617341    0.0229964 ----
    17   0   0   F    T  3.97D+00 0.00202669 0.00063227 0.00251602 0.00104413    0.0229820 ----
    18   0   0   F    F  1.44D-01 0.00202669 0.00063227 0.00998114 0.00414209    0.0229285 ----
    19   0   0   F    T  4.25D+00 0.00154658 0.00059888 0.00266465 0.00111395    0.0229276 ----
    20   0   0   F    F -3.02D-01 0.00154658 0.00059888 0.01133358 0.00473798    0.0229017 ----
    21   0   0   F    T  4.24D+00 0.00134135 0.00045126 0.00210032 0.00078023    0.0228957 ----
    22   0   0   F    F -2.73D-01 0.00134135 0.00045126 0.00890759 0.00330901    0.0228795 ----
    23   0   0   F    T  4.48D+00 0.00097023 0.00033149 0.00129112 0.00053675    0.0228769 ----
    24   0   0   F    F  2.97D-02 0.00097023 0.00033149 0.00578801 0.00240622    0.0228617 ----
    25   0   0   F    T  3.58D+00 0.00108660 0.00034952 0.00188278 0.00069172    0.0228617 ----
    26   0   0   F    F -3.52D-01 0.00108660 0.00034952 0.00674391 0.00247766    0.0228557 ----
    27   0   0   F    T  3.25D+00 0.00069426 0.00027021 0.00160904 0.00049366    0.0228531 ----
    28   0   0   F    F  5.29D-01 0.00069426 0.00027021 0.00523358 0.00160567    0.0228436 ----
    29   0   0   F    T  3.65D+00 0.00086993 0.00029843 0.00221226 0.00067180    0.0228423 ----
    30   0   0   F    F -1.64D-01 0.00086993 0.00029843 0.00808304 0.00245457    0.0228344 ----
    31   0   0   F    T  3.64D+00 0.00054445 0.00025769 0.00185714 0.00056354    0.0228341 ----
    32   0   0   F    F -2.11D-01 0.00054445 0.00025769 0.00676566 0.00205299    0.0228288 ----
    33   0   0   F    T  3.57D+00 0.00053173 0.00021663 0.00142641 0.00045388    0.0228284 ----
    34   0   0   F    F  9.56D-01 0.00053173 0.00021663 0.00509125 0.00162001    0.0228209 ----
    35   0   0   F    T  2.86D+00 0.00096701 0.00033020 0.00347792 0.00110644    0.0228185 ----
    36   0   0   F    F -1.15D-01 0.00096701 0.00033020 0.00996046 0.00316875    0.0228104 ----
    37   0   0   F    T  5.60D+00 0.00068068 0.00021147 0.00162677 0.00050080    0.0228102 ----
    38   0   0   F    F -2.20D-01 0.00068068 0.00021147 0.00910660 0.00280348    0.0228049 ----
    39   0   0   F    T  5.67D+00 0.00038859 0.00017500 0.00123467 0.00038569    0.0228044 ----
    40   0   0   F    F -2.65D-01 0.00038859 0.00017500 0.00700101 0.00218699    0.0228011 ----
    41   0   0   F    T  2.20D+00 0.00062833 0.00023430 0.00216003 0.00073007    0.0228006 ----
    42   0   0   F    F  5.47D-01 0.00062833 0.00023430 0.00475899 0.00160849    0.0227956 ----
    43   0   0   F    T  1.20D+01 0.00029860 0.00011419 0.00062715 0.00020697    0.0227949 ---+
    44   0   0   T    F  3.42D-01 0.00029860 0.00011419 0.00753870 0.00248782    0.0227993 ----
    45   0   0   F    T  1.85D+00 0.00046348 0.00016423 0.00144301 0.00045858    0.0227933 ----
    46   0   0   F    F  1.17D+00 0.00046348 0.00016423 0.00267369 0.00084968    0.0227910 ----
    47   0   0   F    T  7.88D+00 0.00032620 0.00011003 0.00063776 0.00023415    0.0227901 ---+
    48   0   0   T    F  3.23D-01 0.00032620 0.00011003 0.00502610 0.00184530    0.0227932 ----
    49   0   0   F    T  2.65D+00 0.00024499 0.00010190 0.00063743 0.00022511    0.0227892 ---+
    50   0   0   F    F  9.30D-01 0.00024499 0.00010190 0.00168823 0.00059620    0.0227879 ----
    51   0   0   F    T  6.34D+00 0.00025538 0.00008597 0.00051238 0.00018146    0.0227876 ---+
    52   0   0   F    F -4.95D-01 0.00025538 0.00008597 0.00324859 0.00115051    0.0227875 ----
    53   0   0   F    T  3.03D+00 0.00022910 0.00008385 0.00052820 0.00019182    0.0227869 ---+
    54   0   0   F    F  5.98D-01 0.00022910 0.00008385 0.00160028 0.00058115    0.0227860 ----
    55   0   0   F    T  4.11D+00 0.00019731 0.00008739 0.00065927 0.00022614    0.0227858 ---+
    56   0   0   F    F  3.09D-01 0.00019731 0.00008739 0.00270695 0.00092854    0.0227847 ----
    57   0   0   F    T  2.51D+00 0.00045326 0.00012569 0.00146962 0.00048487    0.0227846 ----
    58   0   0   F    F  1.13D+00 0.00045326 0.00012569 0.00368343 0.00121528    0.0227828 ----
    59   0   0   F    T  3.00D+00 0.00060059 0.00016613 0.00265178 0.00086206    0.0227821 ----
    60   0   0   F    F  3.25D-02 0.00060059 0.00016613 0.00796811 0.00259034    0.0227795 ----
    61   0   0   F    T  4.17D+00 0.00032881 0.00014213 0.00198939 0.00064122    0.0227795 ----
    62   0   0   F    F  2.08D-01 0.00032881 0.00014213 0.00829801 0.00267462    0.0227765 ----
    63   0   0   F    T  2.77D+00 0.00048584 0.00019059 0.00362939 0.00116862    0.0227765 ----
    64   0   0   F    F  2.09D-01 0.00048584 0.00019059 0.01003688 0.00323175    0.0227729 ----
    65   0   0   F    T  4.10D+00 0.00055440 0.00016963 0.00293802 0.00095273    0.0227728 ----
    66   0   0   F    F  8.08D-02 0.00055440 0.00016963 0.01204974 0.00390746    0.0227690 ----
    67   0   0   F    T  3.17D+00 0.00060116 0.00019922 0.00405429 0.00133354    0.0227690 ----
    68   0   0   F    F -1.00D-01 0.00060116 0.00019922 0.01283950 0.00422317    0.0227656 ----
    69   0   0   F    T  7.04D+00 0.00030776 0.00012538 0.00162218 0.00053965    0.0227656 ----
    70   0   0   T    F  4.67D-01 0.00030776 0.00012538 0.01142315 0.00380014    0.0227661 ----
    71   0   0   F    T  4.13D+00 0.00039844 0.00011007 0.00128310 0.00042942    0.0227640 ----
    72   0   0   F    F  1.00D+00 0.00039844 0.00011007 0.00530266 0.00177468    0.0227618 ----
    73   0   0   F    T  5.38D+00 0.00042933 0.00013511 0.00191351 0.00066092    0.0227610 ----
    74   0   0   T    F  3.47D-01 0.00042933 0.00013511 0.01030090 0.00355787    0.0227636 ----
    75   0   0   F    T  5.31D+00 0.00016471 0.00007768 0.00068437 0.00023239    0.0227600 ---+
    76   0   0   F    T  2.68D+00 0.00036454 0.00010738 0.00135920 0.00046058    0.0227591 ----
    77   0   0   F    F  8.52D-02 0.00036454 0.00010738 0.00363878 0.00123304    0.0227581 ----
    78   0   0   F    T  6.35D+00 0.00021939 0.00007341 0.00057551 0.00021060    0.0227581 -+-+
    79   0   0   F    F -4.14D-01 0.00021939 0.00007341 0.00365649 0.00133804    0.0227578 -+--
    80   0   0   F    T  5.04D+00 0.00013337 0.00006020 0.00042093 0.00015563    0.0227575 -+++
    81   0   0   T    F  4.44D-01 0.00013337 0.00006020 0.00212048 0.00078402    0.0227576 -+--
    82   0   0   F    T  2.91D+00 0.00011227 0.00005025 0.00038089 0.00011952    0.0227572 ====
 Energy=    0.022757231938 NIter=   0.
 Dipole moment=       0.000000       0.000000       0.000000
 ***** Axes restored to original set *****
 -------------------------------------------------------------------
 Center     Atomic                   Forces (Hartrees/Bohr)
 Number     Number              X              Y              Z
 -------------------------------------------------------------------
    1          6           0.000041642   -0.000065422    0.000095819
    2          6          -0.000039596   -0.000057854   -0.000092547
    3          6          -0.000100452   -0.000082446   -0.000037419
    4          6          -0.000071701    0.000036956   -0.000110390
    5          6           0.000034708   -0.000069279   -0.000066814
    6          8           0.000071530    0.000001055   -0.000004971
    7         16          -0.000030560    0.000083644    0.000049762
    8          6          -0.000004586    0.000006174   -0.000009290
    9          1          -0.000081289   -0.000045800   -0.000021722
   10          1           0.000054565    0.000044320    0.000025416
   11          1          -0.000015979    0.000019279    0.000062180
   12          1           0.000028430    0.000009129    0.000028258
   13          1           0.000006645    0.000027454    0.000047420
   14          1           0.000024560    0.000039511    0.000019422
   15          1          -0.000020836   -0.000017858   -0.000016953
   16          1           0.000035679    0.000046042   -0.000065433
   17          1           0.000079340    0.000008766   -0.000011415
   18          1          -0.000045887    0.000009449    0.000106297
   19          1          -0.000019971   -0.000007402   -0.000019629
   20          1           0.000053759    0.000014281    0.000022008
 -------------------------------------------------------------------
 Cartesian Forces:  Max     0.000110390 RMS     0.000050247

 GradGradGradGradGradGradGradGradGradGradGradGradGradGradGradGradGradGrad
 Berny optimization.
 Search for a local minimum.
 Step number   1 out of a maximum of   2
 All quantities printed in internal units (Hartrees-Bohrs-Radians)
 Second derivative matrix not updated -- unit matrix used.
 RFO step:  Lambda=-1.51483397D-07.
 Linear search not attempted -- first point.
 TrRot=  0.000000  0.000000  0.000000  0.000000  0.000000  0.000000
 Variable       Old X    -DE/DX   Delta X   Delta X   Delta X     New X
                                 (Linear)    (Quad)   (Total)
    X1       -1.66463   0.00004   0.00000   0.00004   0.00004  -1.66459
    Y1       -2.36895  -0.00007   0.00000  -0.00007  -0.00007  -2.36901
    Z1       -3.45638   0.00010   0.00000   0.00010   0.00010  -3.45628
    X2       -1.81721  -0.00004   0.00000  -0.00004  -0.00004  -1.81725
    Y2        0.55081  -0.00006   0.00000  -0.00006  -0.00006   0.55076
    Z2       -3.58322  -0.00009   0.00000  -0.00009  -0.00009  -3.58331
    X3        0.67285  -0.00010   0.00000  -0.00010  -0.00010   0.67275
    Y3        1.77614  -0.00008   0.00000  -0.00008  -0.00008   1.77606
    Z3       -2.64513  -0.00004   0.00000  -0.00004  -0.00004  -2.64517
    X4       -0.80512  -0.00007   0.00000  -0.00007  -0.00007  -0.80519
    Y4       -3.24268   0.00004   0.00000   0.00004   0.00004  -3.24264
    Z4       -0.79942  -0.00011   0.00000  -0.00011  -0.00011  -0.79953
    X5        1.49360   0.00003   0.00000   0.00003   0.00003   1.49363
    Y5        0.71606  -0.00007   0.00000  -0.00007  -0.00007   0.71599
    Z5       -0.03061  -0.00007   0.00000  -0.00007  -0.00007  -0.03068
    X6        1.51409   0.00007   0.00000   0.00007   0.00007   1.51416
    Y6       -2.01884   0.00000   0.00000   0.00000   0.00000  -2.01884
    Z6       -0.04609   0.00000   0.00000   0.00000   0.00000  -0.04610
    X7       -0.39247  -0.00003   0.00000  -0.00003  -0.00003  -0.39250
    Y7        2.01806   0.00008   0.00000   0.00008   0.00008   2.01814
    Z7        2.52935   0.00005   0.00000   0.00005   0.00005   2.52940
    X8        1.29106   0.00000   0.00000   0.00000   0.00000   1.29106
    Y8        0.62548   0.00001   0.00000   0.00001   0.00001   0.62549
    Z8        5.15294  -0.00001   0.00000  -0.00001  -0.00001   5.15293
    X9       -0.30830  -0.00008   0.00000  -0.00008  -0.00008  -0.30838
    Y9       -3.04470  -0.00005   0.00000  -0.00005  -0.00005  -3.04474
    Z9       -4.86170  -0.00002   0.00000  -0.00002  -0.00002  -4.86173
   X10       -3.51031   0.00005   0.00000   0.00005   0.00005  -3.51026
   Y10       -3.18520   0.00004   0.00000   0.00004   0.00004  -3.18515
   Z10       -3.89696   0.00003   0.00000   0.00003   0.00003  -3.89694
   X11       -3.39471  -0.00002   0.00000  -0.00002  -0.00002  -3.39473
   Y11        1.20803   0.00002   0.00000   0.00002   0.00002   1.20805
   Z11       -2.42160   0.00006   0.00000   0.00006   0.00006  -2.42154
   X12       -2.18232   0.00003   0.00000   0.00003   0.00003  -2.18229
   Y12        1.13586   0.00001   0.00000   0.00001   0.00001   1.13587
   Z12       -5.53051   0.00003   0.00000   0.00003   0.00003  -5.53048
   X13        0.45240   0.00001   0.00000   0.00001   0.00001   0.45240
   Y13        3.82831   0.00003   0.00000   0.00003   0.00003   3.82834
   Z13       -2.55534   0.00005   0.00000   0.00005   0.00005  -2.55530
   X14        2.16283   0.00002   0.00000   0.00002   0.00002   2.16286
   Y14        1.36942   0.00004   0.00000   0.00004   0.00004   1.36946
   Z14       -4.01924   0.00002   0.00000   0.00002   0.00002  -4.01922
   X15       -0.46879  -0.00002   0.00000  -0.00002  -0.00002  -0.46881
   Y15       -5.27751  -0.00002   0.00000  -0.00002  -0.00002  -5.27752
   Z15       -0.83536  -0.00002   0.00000  -0.00002  -0.00002  -0.83538
   X16       -2.29411   0.00004   0.00000   0.00004   0.00004  -2.29408
   Y16       -2.88123   0.00005   0.00000   0.00005   0.00005  -2.88118
   Z16        0.58616  -0.00007   0.00000  -0.00007  -0.00007   0.58610
   X17        3.43811   0.00008   0.00000   0.00008   0.00008   3.43819
   Y17        1.32877   0.00001   0.00000   0.00001   0.00001   1.32877
   Z17        0.29249  -0.00001   0.00000  -0.00001  -0.00001   0.29248
   X18        3.26857  -0.00005   0.00000  -0.00005  -0.00005   3.26853
   Y18        1.20455   0.00001   0.00000   0.00001   0.00001   1.20455
   Z18        5.11907   0.00011   0.00000   0.00011   0.00011   5.11917
   X19        0.43604  -0.00002   0.00000  -0.00002  -0.00002   0.43602
   Y19        1.27175  -0.00001   0.00000  -0.00001  -0.00001   1.27174
   Z19        6.91170  -0.00002   0.00000  -0.00002  -0.00002   6.91168
   X20        1.16902   0.00005   0.00000   0.00005   0.00005   1.16907
   Y20       -1.42954   0.00001   0.00000   0.00001   0.00001  -1.42952
   Z20        5.06915   0.00002   0.00000   0.00002   0.00002   5.06917
         Item               Value     Threshold  Converged?
 Maximum Force            0.000110     0.000450     YES
 RMS     Force            0.000050     0.000300     YES
 Maximum Displacement     0.000110     0.001800     YES
 RMS     Displacement     0.000050     0.001200     YES
 Predicted change in Energy=-7.574168D-08
 Optimization completed.
    -- Stationary point found.
 GradGradGradGradGradGradGradGradGradGradGradGradGradGradGradGradGradGrad

                          Input orientation:                          
 ---------------------------------------------------------------------
 Center     Atomic     Atomic              Coordinates (Angstroms)
 Number     Number      Type              X           Y           Z
 ---------------------------------------------------------------------
    1          6      10061003       -0.880883   -1.253593   -1.829036
    2          6      10061003       -0.961628    0.291478   -1.896158
    3          6      10061003        0.356059    0.939894   -1.399742
    4          6      10061003       -0.426052   -1.715950   -0.423037
    5          6      10061003        0.790377    0.378921   -0.016200
    6          8      10081003        0.801223   -1.068326   -0.024392
    7         16      10161003       -0.207686    1.067910    1.338476
    8          6      10061003        0.683200    0.330990    2.726818
    9          1      10011000       -0.163145   -1.611184   -2.572703
   10          1      10011000       -1.857578   -1.685533   -2.062184
   11          1      10011000       -1.796405    0.639260   -1.281454
   12          1      10011000       -1.154832    0.601071   -2.926618
   13          1      10011000        0.239398    2.025853   -1.352230
   14          1      10011000        1.144521    0.724665   -2.126890
   15          1      10011000       -0.248072   -2.792736   -0.442054
   16          1      10011000       -1.213992   -1.524680    0.310183
   17          1      10011000        1.819368    0.703152    0.154780
   18          1      10011000        1.729655    0.637418    2.708894
   19          1      10011000        0.230744    0.672980    3.657515
   20          1      10011000        0.618617   -0.756479    2.682477
 ---------------------------------------------------------------------
                    Distance matrix (angstroms):
                    1          2          3          4          5
     1  C    0.000000
     2  C    1.548636   0.000000
     3  C    2.554546   1.550217   0.000000
     4  C    1.548379   2.546900   2.935841   0.000000
     5  C    2.957126   2.571267   1.554835   2.456360   0.000000
     6  O    2.473974   2.908646   2.474410   1.443794   1.447311
     7  S    3.984433   3.410885   2.798577   3.301589   1.818236
     8  C    5.070806   4.907029   4.184052   3.916886   2.745530
     9  H    1.093644   2.171499   2.855417   2.168215   3.377193
    10  H    1.093098   2.176894   3.497412   2.176464   3.931882
    11  H    2.172768   1.093465   2.176574   2.856880   2.891382
    12  H    2.172444   1.093171   2.174614   3.488212   3.507667
    13  H    3.498163   2.178619   1.093241   3.912457   2.191105
    14  H    2.846837   2.162580   1.093956   3.365474   2.167941
    15  H    2.166363   3.483670   3.900598   1.091561   3.364392
    16  H    2.181905   2.868808   3.385710   1.093181   2.783472
    17  H    3.880172   3.479908   2.147989   3.350797   1.092328
    18  H    5.566296   5.345015   4.342712   4.471511   2.893994
    19  H    5.920274   5.693030   5.065846   4.773811   3.727712
    20  H    4.780102   4.955733   4.428445   3.414108   2.932829
                    6          7          8          9         10
     6  O    0.000000
     7  S    2.727418   0.000000
     8  C    3.088879   1.806716   0.000000
     9  H    2.778235   4.740975   5.707299   0.000000
    10  H    3.406283   4.676332   5.784156   1.771231   0.000000
    11  H    3.353167   3.093833   4.723317   3.065837   2.453150
    12  H    3.877622   4.393866   5.950853   2.450055   2.543552
    13  H    3.413612   2.890923   4.439387   3.857413   4.321543
    14  H    2.784451   3.735645   4.891450   2.713840   3.850434
    15  H    2.061323   4.251647   4.546062   2.437815   2.537958
    16  H    2.093154   2.965056   3.589286   3.069657   2.463373
    17  H    2.051062   2.375528   2.836329   4.089703   4.913316
    18  H    3.352969   2.411775   1.090544   6.044350   6.405274
    19  H    4.112667   2.392934   1.089894   6.647418   6.529826
    20  H    2.730884   2.411952   1.090288   5.381318   5.431988
                   11         12         13         14         15
    11  H    0.000000
    12  H    1.766250   0.000000
    13  H    2.464172   2.540194   0.000000
    14  H    3.061225   2.437594   1.764210   0.000000
    15  H    3.857528   4.302697   4.927966   4.141267   0.000000
    16  H    2.748663   3.872880   4.181177   4.069577   1.762620
    17  H    3.891100   4.283842   2.552826   2.379474   4.105088
    18  H    5.325033   6.330923   4.543275   4.871838   5.060220
    19  H    5.338903   6.728730   5.189208   5.856364   5.389519
    20  H    4.846975   6.037385   4.915693   5.059681   3.828862
                   16         17         18         19         20
    16  H    0.000000
    17  H    3.766783   0.000000
    18  H    4.369615   2.556535   0.000000
    19  H    4.256947   3.846270   1.774226   0.000000
    20  H    3.094570   3.156197   1.782709   1.773273   0.000000
 Stoichiometry    C6H12OS
 Framework group  C1[X(C6H12OS)]
 Deg. of freedom    54
 Full point group                 C1
 Largest Abelian subgroup         C1      NOp   1
 Largest concise Abelian subgroup C1      NOp   1
                         Standard orientation:                         
 ---------------------------------------------------------------------
 Center     Atomic     Atomic              Coordinates (Angstroms)
 Number     Number      Type              X           Y           Z
 ---------------------------------------------------------------------
    1          6      10061003       -2.298448    0.568341   -0.361229
    2          6      10061003       -1.891685   -0.921919   -0.470501
    3          6      10061003       -0.912727   -1.316478    0.664900
    4          6      10061003       -1.044438    1.469844   -0.250645
    5          6      10061003        0.284579   -0.329500    0.764136
    6          8      10081003       -0.177303    1.040947    0.821114
    7         16      10161003        1.503588   -0.607368   -0.556011
    8          6      10061003        2.760186    0.570415   -0.010106
    9          1      10011000       -2.920036    0.709655    0.527431
   10          1      10011000       -2.885019    0.856883   -1.237324
   11          1      10011000       -1.419827   -1.100105   -1.440690
   12          1      10011000       -2.786093   -1.547986   -0.414844
   13          1      10011000       -0.554448   -2.337180    0.506850
   14          1      10011000       -1.457098   -1.301517    1.613675
   15          1      10011000       -1.358841    2.493791   -0.040435
   16          1      10011000       -0.501933    1.479532   -1.199666
   17          1      10011000        0.792751   -0.532813    1.709443
   18          1      10011000        3.093646    0.325638    0.998941
   19          1      10011000        3.612619    0.515555   -0.687024
   20          1      10011000        2.360496    1.584633   -0.028421
 ---------------------------------------------------------------------
 Rotational constants (GHZ):      2.9829257      1.2459001      1.0657758
 1|1|UNPC-UNK|FOpt|Dreiding|ZDO|C6H12O1S1|PCUSER|28-Mar-2008|0||# opt d
 reiding||THP-SMeax||0,1|C,-0.8808828985,-1.2535934752,-1.8290364922|C,
 -0.961628268,0.2914783484,-1.8961584488|C,0.3560593446,0.9398940795,-1
 .3997422198|C,-0.4260523808,-1.7159504141,-0.4230372725|C,0.790377362,
 0.3789210826,-0.0161996373|O,0.8012232826,-1.068325621,-0.0243919572|S
 ,-0.207686065,1.0679100616,1.338476001|C,0.6831999343,0.3309902439,2.7
 268184181|H,-0.1631453171,-1.6111836169,-2.5727028379|H,-1.8575780335,
 -1.6855334028,-2.0621841774|H,-1.7964048276,0.6392599297,-1.2814543268
 |H,-1.1548322317,0.6010708021,-2.9266184193|H,0.2393981426,2.025853398
 3,-1.3522295496|H,1.1445208224,0.7246649243,-2.1268899163|H,-0.2480721
 22,-2.7927357584,-0.4420538521|H,-1.213991888,-1.5246796668,0.31018336
 34|H,1.8193675949,0.7031522595,0.154779674|H,1.7296545146,0.6374178148
 ,2.7088944189|H,0.2307443442,0.6729795463,3.6575151111|H,0.6186174901,
 -0.7564793359,2.6824765207||Version=IA32W-G03RevD.01|HF=0.0227572|RMSD
 =0.000e+000|RMSF=5.025e-005|Thermal=0.|Dipole=0.,0.,0.|PG=C01 [X(C6H12
 O1S1)]||@


 CHARLIE BROWN..'I CAN'T GET THAT STUPID KITE IN THE   
 AIR... I CAN'T... I C A N N O T...'                          
 LUCY..'OH COME NOW CHARLIE BROWN...THAT'S NO WAY TO TALK...  
 THE TROUBLE WITH YOU IS YOU DON'T BELIEVE IN YOURSELF... YOU 
 DON'T BELIEVE IN YOUR OWN ABILITIES...  YOU'VE GOT TO SAY TO 
 YOURSELF...'I BELIEVE I CAN FLY THIS KITE.'... GO AHEAD SAY  
 IT....'
 CHARLIE BROWN..'I BELIEVE THAT I CAN FLY THIS STUPID  
 KITE.....I BELIEVE THAT I CAN FLY THIS KITE........          
 I  A C T U A L L Y  B E L I E V E  T H A T  I  C A N ******' 
 LUCY..'I'LL BET YOU TEN-TO-ONE YOU'RE WRONG.......'    SCHULZ
 Job cpu time:  0 days  0 hours  0 minutes  3.0 seconds.
 File lengths (MBytes):  RWF=     11 Int=      0 D2E=      0 Chk=      4 Scr=      1
 Normal termination of Gaussian 03 at Fri Mar 28 18:29:23 2008.
