c7142 1433820 SLURM_STEP_IDnodef 0 0 1 24 SLURM_MEM_PER_CPUnodef 122880
/mnt/lustre/scratch/slurm/1433820/uviqopsc.C4U3G0WdLW
OMP_STACKSIZE=128m
-P- 24
-M- 114688MB
 Entering Gaussian System, Link 0=/opt/cesga/g09/e1/g09.exe
 Initial command:
 /opt/cesga/g09/e1/l1.exe "/mnt/lustre/scratch/slurm/1433820/uviqopsc.C4U3G0WdLW/Gau-28235.inp" -scrdir="/mnt/lustre/scratch/slurm/1433820/uviqopsc.C4U3G0WdLW/"
 Default is to use a total of  24 processors:
                               24 via shared-memory
                                1 via Linda
 Entering Link 1 = /opt/cesga/g09/e1/l1.exe PID=     28261.
  
 Copyright (c) 1988,1990,1992,1993,1995,1998,2003,2009,2015,
            Gaussian, Inc.  All Rights Reserved.
  
 This is part of the Gaussian(R) 09 program.  It is based on
 the Gaussian(R) 03 system (copyright 2003, Gaussian, Inc.),
 the Gaussian(R) 98 system (copyright 1998, Gaussian, Inc.),
 the Gaussian(R) 94 system (copyright 1995, Gaussian, Inc.),
 the Gaussian 92(TM) system (copyright 1992, Gaussian, Inc.),
 the Gaussian 90(TM) system (copyright 1990, Gaussian, Inc.),
 the Gaussian 88(TM) system (copyright 1988, Gaussian, Inc.),
 the Gaussian 86(TM) system (copyright 1986, Carnegie Mellon
 University), and the Gaussian 82(TM) system (copyright 1983,
 Carnegie Mellon University). Gaussian is a federally registered
 trademark of Gaussian, Inc.
  
 This software contains proprietary and confidential information,
 including trade secrets, belonging to Gaussian, Inc.
  
 This software is provided under written license and may be
 used, copied, transmitted, or stored only in accord with that
 written license.
  
 The following legend is applicable only to US Government
 contracts under FAR:
  
                    RESTRICTED RIGHTS LEGEND
  
 Use, reproduction and disclosure by the US Government is
 subject to restrictions as set forth in subparagraphs (a)
 and (c) of the Commercial Computer Software - Restricted
 Rights clause in FAR 52.227-19.
  
 Gaussian, Inc.
 340 Quinnipiac St., Bldg. 40, Wallingford CT 06492
  
  
 ---------------------------------------------------------------
 Warning -- This program may not be used in any manner that
 competes with the business of Gaussian, Inc. or will provide
 assistance to any competitor of Gaussian, Inc.  The licensee
 of this program is prohibited from giving any competitor of
 Gaussian, Inc. access to this program.  By using this program,
 the user acknowledges that Gaussian, Inc. is engaged in the
 business of creating and licensing software in the field of
 computational chemistry and represents and warrants to the
 licensee that it is not a competitor of Gaussian, Inc. and that
 it will not use this program in any manner prohibited above.
 ---------------------------------------------------------------
  

 Cite this work as:
 Gaussian 09, Revision E.01,
 M. J. Frisch, G. W. Trucks, H. B. Schlegel, G. E. Scuseria, 
 M. A. Robb, J. R. Cheeseman, G. Scalmani, V. Barone, B. Mennucci, 
 G. A. Petersson, H. Nakatsuji, M. Caricato, X. Li, H. P. Hratchian, 
 A. F. Izmaylov, J. Bloino, G. Zheng, J. L. Sonnenberg, M. Hada, 
 M. Ehara, K. Toyota, R. Fukuda, J. Hasegawa, M. Ishida, T. Nakajima, 
 Y. Honda, O. Kitao, H. Nakai, T. Vreven, J. A. Montgomery, Jr., 
 J. E. Peralta, F. Ogliaro, M. Bearpark, J. J. Heyd, E. Brothers, 
 K. N. Kudin, V. N. Staroverov, T. Keith, R. Kobayashi, J. Normand, 
 K. Raghavachari, A. Rendell, J. C. Burant, S. S. Iyengar, J. Tomasi, 
 M. Cossi, N. Rega, J. M. Millam, M. Klene, J. E. Knox, J. B. Cross, 
 V. Bakken, C. Adamo, J. Jaramillo, R. Gomperts, R. E. Stratmann, 
 O. Yazyev, A. J. Austin, R. Cammi, C. Pomelli, J. W. Ochterski, 
 R. L. Martin, K. Morokuma, V. G. Zakrzewski, G. A. Voth, 
 P. Salvador, J. J. Dannenberg, S. Dapprich, A. D. Daniels, 
 O. Farkas, J. B. Foresman, J. V. Ortiz, J. Cioslowski, 
 and D. J. Fox, Gaussian, Inc., Wallingford CT, 2013.
 
 ******************************************
 Gaussian 09:  ES64L-G09RevE.01 30-Nov-2015
                27-Jul-2018 
 ******************************************
 Default route:  SCF=Direct
 -------------
 # mp2/cc-pVTZ
 -------------
 1/38=1/1;
 2/12=2,17=6,18=5,40=1/2;
 3/5=16,6=1,11=9,16=1,25=1,30=1/1,2,3;
 4//1;
 5/5=2,38=5/2;
 8/10=1/1;
 9/16=-3/6;
 6/7=2,8=2,9=2,10=2/1;
 99/5=1,9=1/99;
 ----------------
 cyclohexane_sofa
 ----------------
 Symbolic Z-matrix:
 Charge =  0 Multiplicity = 1
 C                    -0.88258  -0.63519   1.02671 
 C                    -1.23258   0.75181   0.45371 
 C                    -0.35458   1.26981  -0.69129 
 C                     0.31442  -1.41119   0.44571 
 C                     1.08442  -0.74319  -0.69829 
 C                     1.08942   0.78081  -0.56129 
 H                    -0.78558  -0.56919   2.13871 
 H                    -1.78358  -1.27819   0.87771 
 H                    -2.30858   0.80981   0.16071 
 H                    -1.12258   1.48381   1.29071 
 H                    -0.77458   0.91681  -1.66329 
 H                    -0.38458   2.38581  -0.72729 
 H                     1.04542  -1.54719   1.27971 
 H                     0.02042  -2.44719   0.14971 
 H                     2.13142  -1.13119  -0.74029 
 H                     0.61142  -1.02119  -1.67029 
 H                     1.52242   1.08781   0.41971 
 H                     1.71742   1.23281  -1.36729 
 
                          Input orientation:                          
 ---------------------------------------------------------------------
 Center     Atomic      Atomic             Coordinates (Angstroms)
 Number     Number       Type             X           Y           Z
 ---------------------------------------------------------------------
      1          6           0       -0.882583   -0.635188    1.026708
      2          6           0       -1.232583    0.751813    0.453708
      3          6           0       -0.354583    1.269813   -0.691292
      4          6           0        0.314417   -1.411188    0.445708
      5          6           0        1.084417   -0.743188   -0.698292
      6          6           0        1.089417    0.780813   -0.561292
      7          1           0       -0.785583   -0.569188    2.138708
      8          1           0       -1.783583   -1.278188    0.877708
      9          1           0       -2.308583    0.809813    0.160708
     10          1           0       -1.122583    1.483813    1.290708
     11          1           0       -0.774583    0.916813   -1.663292
     12          1           0       -0.384583    2.385813   -0.727292
     13          1           0        1.045417   -1.547188    1.279708
     14          1           0        0.020417   -2.447188    0.149708
     15          1           0        2.131417   -1.131188   -0.740292
     16          1           0        0.611417   -1.021188   -1.670292
     17          1           0        1.522417    1.087813    0.419708
     18          1           0        1.717417    1.232813   -1.367292
 ---------------------------------------------------------------------
                    Distance matrix (angstroms):
                    1          2          3          4          5
     1  C    0.000000
     2  C    1.540973   0.000000
     3  C    2.619033   1.533047   0.000000
     4  C    1.540307   2.659294   2.987991   0.000000
     5  C    2.618469   2.988414   2.474457   1.532273   0.000000
     6  C    2.900963   2.534315   1.530084   2.533681   1.530154
     7  H    1.118172   2.187253   3.402438   2.187513   3.402315
     8  H    1.116893   2.145758   3.316038   2.146140   3.315935
     9  H    2.207138   1.116687   2.180738   3.448796   3.829117
    10  H    2.148827   1.117360   2.136339   3.340661   3.713018
    11  H    3.107486   2.172252   1.116151   3.324663   2.672584
    12  H    3.528592   2.187195   1.116983   4.035064   3.456797
    13  H    2.147775   3.340204   3.712187   1.117324   2.135514
    14  H    2.206328   3.449062   3.829360   1.116847   2.180554
    15  H    3.528810   4.035817   3.456501   2.187804   1.117371
    16  H    3.107224   3.324942   2.672130   2.172042   1.116153
    17  H    3.020133   2.775622   2.188738   2.775778   2.189596
    18  H    3.997582   3.499986   2.179800   3.499445   2.180098
                    6          7          8          9         10
     6  C    0.000000
     7  H    3.553607   0.000000
     8  H    3.816324   1.757500   0.000000
     9  H    3.473979   2.851956   2.269242   0.000000
    10  H    2.969353   2.246660   2.869867   1.771376   0.000000
    11  H    2.169653   4.082098   3.506107   2.385703   3.027988
    12  H    2.185465   4.136035   4.237702   2.640851   2.330359
    13  H    2.968299   2.246536   2.870053   4.249344   3.726568
    14  H    3.473941   2.851779   2.269573   4.004049   4.249834
    15  H    2.184845   4.136831   4.238721   4.928781   4.642381
    16  H    2.169232   4.082205   3.506334   3.902758   4.248447
    17  H    1.115392   3.320764   4.091131   3.849796   2.812736
    18  H    1.117284   4.669502   4.858204   4.326938   3.897892
                   11         12         13         14         15
    11  H    0.000000
    12  H    1.784981   0.000000
    13  H    4.247934   4.641275   0.000000
    14  H    3.903267   4.928594   1.771306   0.000000
    15  H    3.673019   4.324317   2.330848   2.642021   0.000000
    16  H    2.382622   3.672726   3.027793   2.386453   1.785329
    17  H    3.105534   2.576250   2.812535   3.850341   2.576906
    18  H    2.529335   2.481414   3.896998   4.327066   2.480528
                   16         17         18
    16  H    0.000000
    17  H    3.105785   0.000000
    18  H    2.528945   1.803446   0.000000
 Stoichiometry    C6H12
 Framework group  C1[X(C6H12)]
 Deg. of freedom    48
 Full point group                 C1      NOp   1
 Largest Abelian subgroup         C1      NOp   1
 Largest concise Abelian subgroup C1      NOp   1
                         Standard orientation:                         
 ---------------------------------------------------------------------
 Center     Atomic      Atomic             Coordinates (Angstroms)
 Number     Number       Type             X           Y           Z
 ---------------------------------------------------------------------
      1          6           0        0.003854    1.491868    0.104216
      2          6           0        1.331829    0.718646   -0.010713
      3          6           0        1.234920   -0.792225   -0.251774
      4          6           0       -1.327455    0.725748   -0.010770
      5          6           0       -1.239526   -0.784883   -0.251855
      6          6           0       -0.004073   -1.392275    0.416053
      7          1           0        0.006074    2.106402    1.038375
      8          1           0        0.006599    2.253201   -0.712983
      9          1           0        2.005320    1.180338   -0.772447
     10          1           0        1.866073    0.848605    0.962009
     11          1           0        1.188710   -0.985549   -1.350083
     12          1           0        2.158622   -1.302381    0.114514
     13          1           0       -1.860481    0.858566    0.962192
     14          1           0       -1.998712    1.191970   -0.771953
     15          1           0       -2.165680   -1.291208    0.114739
     16          1           0       -1.193903   -0.979031   -1.350045
     17          1           0       -0.002765   -1.180522    1.511160
     18          1           0       -0.007141   -2.501673    0.283576
 ---------------------------------------------------------------------
 Rotational constants (GHZ):      4.2528941      4.1763315      2.3965230
 Standard basis: CC-pVTZ (5D, 7F)
 There are   390 symmetry adapted cartesian basis functions of A   symmetry.
 There are   348 symmetry adapted basis functions of A   symmetry.
   348 basis functions,   516 primitive gaussians,   390 cartesian basis functions
    24 alpha electrons       24 beta electrons
       nuclear repulsion energy       253.0652607782 Hartrees.
 NAtoms=   18 NActive=   18 NUniq=   18 SFac= 1.00D+00 NAtFMM=   60 NAOKFM=F Big=F
 Integral buffers will be    131072 words long.
 Raffenetti 1 integral format.
 Two-electron integral symmetry is turned on.
 One-electron integrals computed using PRISM.
 NBasis=   348 RedAO= T EigKep=  2.20D-04  NBF=   348
 NBsUse=   348 1.00D-06 EigRej= -1.00D+00 NBFU=   348
 ExpMin= 1.03D-01 ExpMax= 8.24D+03 ExpMxC= 2.81D+02 IAcc=1 IRadAn=         1 AccDes= 0.00D+00
 Harris functional with IExCor=  205 and IRadAn=       1 diagonalized for initial guess.
 HarFok:  IExCor=  205 AccDes= 0.00D+00 IRadAn=         1 IDoV= 1 UseB2=F ITyADJ=14
 ICtDFT=  3500011 ScaDFX=  1.000000  1.000000  1.000000  1.000000
 FoFCou: FMM=F IPFlag=           0 FMFlag=      100000 FMFlg1=           0
         NFxFlg=           0 DoJE=T BraDBF=F KetDBF=T FulRan=T
         wScrn=  0.000000 ICntrl=     500 IOpCl=  0 I1Cent=   200000004 NGrid=           0
         NMat0=    1 NMatS0=      1 NMatT0=    0 NMatD0=    1 NMtDS0=    0 NMtDT0=    0
 Petite list used in FoFCou.
 Keep R1 ints in memory in canonical form, NReq=1874229007.
 Requested convergence on RMS density matrix=1.00D-08 within 128 cycles.
 Requested convergence on MAX density matrix=1.00D-06.
 Requested convergence on             energy=1.00D-06.
 No special actions if energy rises.
 SCF Done:  E(RHF) =  -234.258775934     A.U. after   10 cycles
            NFock= 10  Conv=0.63D-08     -V/T= 2.0026
 ExpMin= 1.03D-01 ExpMax= 8.24D+03 ExpMxC= 2.81D+02 IAcc=3 IRadAn=         5 AccDes= 0.00D+00
 HarFok:  IExCor=  205 AccDes= 0.00D+00 IRadAn=         5 IDoV=-2 UseB2=F ITyADJ=14
 ICtDFT= 12500011 ScaDFX=  1.000000  1.000000  1.000000  1.000000
 Range of M.O.s used for correlation:     7   348
 NBasis=   348 NAE=    24 NBE=    24 NFC=     6 NFV=     0
 NROrb=    342 NOA=    18 NOB=    18 NVA=   324 NVB=   324

 **** Warning!!: The largest alpha MO coefficient is  0.14026265D+02

 Fully direct method using O(OVN) memory.
 JobTyp=1 Pass  1:  I=   1 to  18 NPSUse= 24 ParTrn=T ParDer=T DoDerP=F.
 Spin components of T(2) and E(2):
     alpha-alpha T2 =       0.4000856743D-01 E2=     -0.1172759551D+00
     alpha-beta  T2 =       0.2502942395D+00 E2=     -0.8110729817D+00
     beta-beta   T2 =       0.4000856743D-01 E2=     -0.1172759551D+00
 ANorm=    0.1153391249D+01
 E2 =    -0.1045624892D+01 EUMP2 =    -0.23530440082597D+03

 **********************************************************************

            Population analysis using the SCF density.

 **********************************************************************

 Orbital symmetries:
       Occupied  (A) (A) (A) (A) (A) (A) (A) (A) (A) (A) (A) (A)
                 (A) (A) (A) (A) (A) (A) (A) (A) (A) (A) (A) (A)
       Virtual   (A) (A) (A) (A) (A) (A) (A) (A) (A) (A) (A) (A)
                 (A) (A) (A) (A) (A) (A) (A) (A) (A) (A) (A) (A)
                 (A) (A) (A) (A) (A) (A) (A) (A) (A) (A) (A) (A)
                 (A) (A) (A) (A) (A) (A) (A) (A) (A) (A) (A) (A)
                 (A) (A) (A) (A) (A) (A) (A) (A) (A) (A) (A) (A)
                 (A) (A) (A) (A) (A) (A) (A) (A) (A) (A) (A) (A)
                 (A) (A) (A) (A) (A) (A) (A) (A) (A) (A) (A) (A)
                 (A) (A) (A) (A) (A) (A) (A) (A) (A) (A) (A) (A)
                 (A) (A) (A) (A) (A) (A) (A) (A) (A) (A) (A) (A)
                 (A) (A) (A) (A) (A) (A) (A) (A) (A) (A) (A) (A)
                 (A) (A) (A) (A) (A) (A) (A) (A) (A) (A) (A) (A)
                 (A) (A) (A) (A) (A) (A) (A) (A) (A) (A) (A) (A)
                 (A) (A) (A) (A) (A) (A) (A) (A) (A) (A) (A) (A)
                 (A) (A) (A) (A) (A) (A) (A) (A) (A) (A) (A) (A)
                 (A) (A) (A) (A) (A) (A) (A) (A) (A) (A) (A) (A)
                 (A) (A) (A) (A) (A) (A) (A) (A) (A) (A) (A) (A)
                 (A) (A) (A) (A) (A) (A) (A) (A) (A) (A) (A) (A)
                 (A) (A) (A) (A) (A) (A) (A) (A) (A) (A) (A) (A)
                 (A) (A) (A) (A) (A) (A) (A) (A) (A) (A) (A) (A)
                 (A) (A) (A) (A) (A) (A) (A) (A) (A) (A) (A) (A)
                 (A) (A) (A) (A) (A) (A) (A) (A) (A) (A) (A) (A)
                 (A) (A) (A) (A) (A) (A) (A) (A) (A) (A) (A) (A)
                 (A) (A) (A) (A) (A) (A) (A) (A) (A) (A) (A) (A)
                 (A) (A) (A) (A) (A) (A) (A) (A) (A) (A) (A) (A)
                 (A) (A) (A) (A) (A) (A) (A) (A) (A) (A) (A) (A)
                 (A) (A) (A) (A) (A) (A) (A) (A) (A) (A) (A) (A)
                 (A) (A) (A) (A) (A) (A) (A) (A) (A) (A) (A) (A)
 The electronic state is 1-A.
 Alpha  occ. eigenvalues --  -11.21942 -11.21920 -11.21892 -11.21859 -11.21803
 Alpha  occ. eigenvalues --  -11.21786  -1.10325  -0.99530  -0.99452  -0.82772
 Alpha  occ. eigenvalues --   -0.82159  -0.72130  -0.63753  -0.62656  -0.58666
 Alpha  occ. eigenvalues --   -0.57276  -0.52250  -0.51386  -0.51172  -0.48409
 Alpha  occ. eigenvalues --   -0.47146  -0.43005  -0.42136  -0.41774
 Alpha virt. eigenvalues --    0.13028   0.15912   0.16814   0.17163   0.20060
 Alpha virt. eigenvalues --    0.20333   0.20531   0.21313   0.21844   0.24696
 Alpha virt. eigenvalues --    0.26691   0.28152   0.29407   0.33429   0.36520
 Alpha virt. eigenvalues --    0.36937   0.38025   0.39576   0.39886   0.40465
 Alpha virt. eigenvalues --    0.44093   0.46387   0.46559   0.48524   0.49461
 Alpha virt. eigenvalues --    0.51035   0.52547   0.55884   0.57244   0.58809
 Alpha virt. eigenvalues --    0.59075   0.60851   0.61262   0.61795   0.61825
 Alpha virt. eigenvalues --    0.62761   0.63900   0.65826   0.66193   0.66535
 Alpha virt. eigenvalues --    0.67875   0.67906   0.68844   0.69433   0.69684
 Alpha virt. eigenvalues --    0.70624   0.71444   0.75429   0.79510   0.85771
 Alpha virt. eigenvalues --    0.89813   0.90962   0.92938   0.94157   0.97036
 Alpha virt. eigenvalues --    0.98408   1.01145   1.02043   1.07107   1.08735
 Alpha virt. eigenvalues --    1.10901   1.12911   1.13307   1.15193   1.16988
 Alpha virt. eigenvalues --    1.20115   1.20842   1.21006   1.22598   1.24298
 Alpha virt. eigenvalues --    1.26064   1.27396   1.28821   1.29364   1.29569
 Alpha virt. eigenvalues --    1.31516   1.32221   1.34893   1.35269   1.37180
 Alpha virt. eigenvalues --    1.37276   1.38163   1.38659   1.40484   1.40682
 Alpha virt. eigenvalues --    1.42975   1.43821   1.45809   1.46415   1.48623
 Alpha virt. eigenvalues --    1.48980   1.50552   1.50589   1.54481   1.55252
 Alpha virt. eigenvalues --    1.58560   1.59070   1.59536   1.61777   1.63724
 Alpha virt. eigenvalues --    1.64668   1.65154   1.68683   1.70823   1.71811
 Alpha virt. eigenvalues --    1.72580   1.73170   1.74602   1.75684   1.76529
 Alpha virt. eigenvalues --    1.80164   1.81815   1.86007   1.86754   1.93498
 Alpha virt. eigenvalues --    1.93892   1.94388   2.05832   2.09253   2.11418
 Alpha virt. eigenvalues --    2.54945   2.56044   2.57497   2.60966   2.65299
 Alpha virt. eigenvalues --    2.65530   2.66563   2.72179   2.74413   2.77027
 Alpha virt. eigenvalues --    2.80064   2.81077   2.81876   2.82993   2.84099
 Alpha virt. eigenvalues --    2.89527   2.90487   2.91165   2.93118   2.95437
 Alpha virt. eigenvalues --    2.96279   2.97538   2.99512   3.00290   3.01781
 Alpha virt. eigenvalues --    3.02755   3.04148   3.04172   3.06111   3.09180
 Alpha virt. eigenvalues --    3.10216   3.10883   3.14557   3.16903   3.17806
 Alpha virt. eigenvalues --    3.21209   3.23312   3.23605   3.25763   3.28058
 Alpha virt. eigenvalues --    3.31069   3.31694   3.33901   3.34274   3.35840
 Alpha virt. eigenvalues --    3.37155   3.37172   3.39367   3.41158   3.42800
 Alpha virt. eigenvalues --    3.44344   3.44575   3.45017   3.45286   3.49335
 Alpha virt. eigenvalues --    3.50536   3.51059   3.51397   3.53178   3.53360
 Alpha virt. eigenvalues --    3.54387   3.55055   3.57051   3.57150   3.60437
 Alpha virt. eigenvalues --    3.60627   3.66597   3.67051   3.68848   3.69294
 Alpha virt. eigenvalues --    3.70423   3.74402   3.77780   3.77817   3.78269
 Alpha virt. eigenvalues --    3.80483   3.83740   3.86304   3.87245   3.89919
 Alpha virt. eigenvalues --    3.90744   3.92241   3.93633   3.94441   3.96333
 Alpha virt. eigenvalues --    3.98517   3.98807   4.00220   4.01504   4.04447
 Alpha virt. eigenvalues --    4.04572   4.05096   4.07125   4.07979   4.08518
 Alpha virt. eigenvalues --    4.09986   4.11518   4.12646   4.14570   4.18137
 Alpha virt. eigenvalues --    4.19804   4.19899   4.25225   4.25788   4.27243
 Alpha virt. eigenvalues --    4.28918   4.29005   4.29753   4.29938   4.31937
 Alpha virt. eigenvalues --    4.33779   4.34799   4.35051   4.36346   4.39201
 Alpha virt. eigenvalues --    4.39892   4.41090   4.42965   4.46199   4.46450
 Alpha virt. eigenvalues --    4.48022   4.48228   4.49212   4.50484   4.52319
 Alpha virt. eigenvalues --    4.54388   4.55948   4.57151   4.60080   4.61397
 Alpha virt. eigenvalues --    4.64286   4.65336   4.67735   4.67919   4.68883
 Alpha virt. eigenvalues --    4.71863   4.72000   4.74080   4.77452   4.78051
 Alpha virt. eigenvalues --    4.81359   4.85678   4.87318   4.90221   4.92659
 Alpha virt. eigenvalues --    4.93381   4.94415   4.97156   5.00024   5.01520
 Alpha virt. eigenvalues --    5.07938   5.08190   5.10479   5.13234   5.16314
 Alpha virt. eigenvalues --    5.18582   5.19771   5.23205   5.27761   5.29136
 Alpha virt. eigenvalues --    5.29613   5.31661   5.32266   5.33475   5.37220
 Alpha virt. eigenvalues --    5.40950   5.41070   5.43187   5.45324   5.46316
 Alpha virt. eigenvalues --    5.46576   5.48520   5.56907   5.57908   5.60919
 Alpha virt. eigenvalues --    5.61063   5.65152   5.67994   5.70118   5.72268
 Alpha virt. eigenvalues --    5.75971   5.77281   5.80561   5.84307   5.86357
 Alpha virt. eigenvalues --    5.87113   5.95003   5.95932   5.97893   6.05224
 Alpha virt. eigenvalues --    6.06965   6.22654   6.26083   6.34518   6.37500
 Alpha virt. eigenvalues --    6.41206   6.48244   6.50874  11.34545  12.35354
 Alpha virt. eigenvalues --   12.49014  13.22832  13.25658  13.73372
          Condensed to atoms (all electrons):
               1          2          3          4          5          6
     1  C    4.922944   0.319126  -0.036513   0.319145  -0.036444  -0.006523
     2  C    0.319126   4.886174   0.339990  -0.036844  -0.003695  -0.037834
     3  C   -0.036513   0.339990   4.866882  -0.003670  -0.045022   0.339440
     4  C    0.319145  -0.036844  -0.003670   4.885784   0.340048  -0.037848
     5  C   -0.036444  -0.003695  -0.045022   0.340048   4.866446   0.339450
     6  C   -0.006523  -0.037834   0.339440  -0.037848   0.339450   4.870477
     7  H    0.438769  -0.039983   0.004483  -0.039986   0.004483  -0.000206
     8  H    0.425710  -0.043692   0.004114  -0.043684   0.004105  -0.000820
     9  H   -0.038247   0.436103  -0.038112   0.004891  -0.000954   0.006787
    10  H   -0.049543   0.427044  -0.041919   0.004125  -0.000028  -0.001406
    11  H    0.001557  -0.042950   0.424579   0.000426  -0.006290  -0.040503
    12  H    0.006142  -0.037847   0.434379  -0.000916   0.007291  -0.036951
    13  H   -0.049623   0.004133  -0.000029   0.427067  -0.041987  -0.001413
    14  H   -0.038333   0.004901  -0.000956   0.436143  -0.038150   0.006799
    15  H    0.006140  -0.000914   0.007304  -0.037826   0.434403  -0.037046
    16  H    0.001556   0.000425  -0.006301  -0.042966   0.424598  -0.040505
    17  H   -0.002257   0.000347  -0.039437   0.000373  -0.039364   0.420119
    18  H   -0.000704   0.006357  -0.036813   0.006352  -0.036783   0.431124
               7          8          9         10         11         12
     1  C    0.438769   0.425710  -0.038247  -0.049543   0.001557   0.006142
     2  C   -0.039983  -0.043692   0.436103   0.427044  -0.042950  -0.037847
     3  C    0.004483   0.004114  -0.038112  -0.041919   0.424579   0.434379
     4  C   -0.039986  -0.043684   0.004891   0.004125   0.000426  -0.000916
     5  C    0.004483   0.004105  -0.000954  -0.000028  -0.006290   0.007291
     6  C   -0.000206  -0.000820   0.006787  -0.001406  -0.040503  -0.036951
     7  H    0.596820  -0.037000   0.003833  -0.014679  -0.000408  -0.000163
     8  H   -0.037000   0.621715  -0.014833   0.007176   0.000450  -0.000378
     9  H    0.003833  -0.014833   0.588535  -0.034804  -0.009307  -0.000607
    10  H   -0.014679   0.007176  -0.034804   0.626452   0.008314  -0.012049
    11  H   -0.000408   0.000450  -0.009307   0.008314   0.616792  -0.034805
    12  H   -0.000163  -0.000378  -0.000607  -0.012049  -0.034805   0.587938
    13  H   -0.014711   0.007183  -0.000422   0.000051  -0.000013   0.000047
    14  H    0.003829  -0.014844  -0.000080  -0.000421  -0.000180   0.000080
    15  H   -0.000163  -0.000377   0.000080   0.000047   0.000320  -0.000325
    16  H   -0.000409   0.000451  -0.000180  -0.000013   0.001696   0.000320
    17  H   -0.000777   0.000080  -0.000103   0.001748   0.006877  -0.003196
    18  H    0.000071   0.000066  -0.000290  -0.000158  -0.003959  -0.005894
              13         14         15         16         17         18
     1  C   -0.049623  -0.038333   0.006140   0.001556  -0.002257  -0.000704
     2  C    0.004133   0.004901  -0.000914   0.000425   0.000347   0.006357
     3  C   -0.000029  -0.000956   0.007304  -0.006301  -0.039437  -0.036813
     4  C    0.427067   0.436143  -0.037826  -0.042966   0.000373   0.006352
     5  C   -0.041987  -0.038150   0.434403   0.424598  -0.039364  -0.036783
     6  C   -0.001413   0.006799  -0.037046  -0.040505   0.420119   0.431124
     7  H   -0.014711   0.003829  -0.000163  -0.000409  -0.000777   0.000071
     8  H    0.007183  -0.014844  -0.000377   0.000451   0.000080   0.000066
     9  H   -0.000422  -0.000080   0.000080  -0.000180  -0.000103  -0.000290
    10  H    0.000051  -0.000421   0.000047  -0.000013   0.001748  -0.000158
    11  H   -0.000013  -0.000180   0.000320   0.001696   0.006877  -0.003959
    12  H    0.000047   0.000080  -0.000325   0.000320  -0.003196  -0.005894
    13  H    0.626566  -0.034767  -0.012058   0.008324   0.001748  -0.000157
    14  H   -0.034767   0.588615  -0.000620  -0.009305  -0.000104  -0.000290
    15  H   -0.012058  -0.000620   0.588139  -0.034792  -0.003196  -0.005901
    16  H    0.008324  -0.009305  -0.034792   0.616766   0.006872  -0.003956
    17  H    0.001748  -0.000104  -0.003196   0.006872   0.600122  -0.030997
    18  H   -0.000157  -0.000290  -0.005901  -0.003956  -0.030997   0.585902
 Mulliken charges:
               1
     1  C   -0.182901
     2  C   -0.180842
     3  C   -0.172398
     4  C   -0.180615
     5  C   -0.172108
     6  C   -0.173143
     7  H    0.096196
     8  H    0.084577
     9  H    0.097711
    10  H    0.080064
    11  H    0.077404
    12  H    0.096933
    13  H    0.080060
    14  H    0.097682
    15  H    0.096788
    16  H    0.077418
    17  H    0.081144
    18  H    0.096030
 Sum of Mulliken charges =  -0.00000
 Mulliken charges with hydrogens summed into heavy atoms:
               1
     1  C   -0.002128
     2  C   -0.003067
     3  C    0.001939
     4  C   -0.002873
     5  C    0.002098
     6  C    0.004031
 Electronic spatial extent (au):  <R**2>=            607.8459
 Charge=             -0.0000 electrons
 Dipole moment (field-independent basis, Debye):
    X=              0.0002    Y=             -0.0100    Z=              0.0105  Tot=              0.0145
 Quadrupole moment (field-independent basis, Debye-Ang):
   XX=            -41.3674   YY=            -41.2277   ZZ=            -39.9522
   XY=              0.0020   XZ=             -0.0001   YZ=             -0.1416
 Traceless Quadrupole moment (field-independent basis, Debye-Ang):
   XX=             -0.5183   YY=             -0.3786   ZZ=              0.8969
   XY=              0.0020   XZ=             -0.0001   YZ=             -0.1416
 Octapole moment (field-independent basis, Debye-Ang**2):
  XXX=              0.0051  YYY=             -1.3714  ZZZ=              0.0270  XYY=             -0.0034
  XXY=             -0.5451  XXZ=              0.3125  XZZ=              0.0067  YZZ=              1.3765
  YYZ=             -0.4120  XYZ=             -0.0023
 Hexadecapole moment (field-independent basis, Debye-Ang**3):
 XXXX=           -384.6276 YYYY=           -376.3038 ZZZZ=           -100.8485 XXXY=             -0.0020
 XXXZ=             -0.0309 YYYX=              0.0179 YYYZ=             -0.0852 ZZZX=              0.0041
 ZZZY=              1.1897 XXYY=           -127.0303 XXZZ=            -79.5608 YYZZ=            -78.8021
 XXYZ=             -3.4037 YYXZ=              0.0209 ZZXY=             -0.0001
 N-N= 2.530652607782D+02 E-N=-1.050346372441D+03  KE= 2.336422507036D+02
 1\1\GINC-C7142\SP\RMP2-FC\CC-pVTZ\C6H12\ROOT\27-Jul-2018\0\\# mp2/cc-p
 VTZ\\cyclohexane_sofa\\0,1\C,0,-0.88258333,-0.6351875,1.02670833\C,0,-
 1.23258333,0.7518125,0.45370833\C,0,-0.35458333,1.2698125,-0.69129167\
 C,0,0.31441667,-1.4111875,0.44570833\C,0,1.08441667,-0.7431875,-0.6982
 9167\C,0,1.08941667,0.7808125,-0.56129167\H,0,-0.78558333,-0.5691875,2
 .13870833\H,0,-1.78358333,-1.2781875,0.87770833\H,0,-2.30858333,0.8098
 125,0.16070833\H,0,-1.12258333,1.4838125,1.29070833\H,0,-0.77458333,0.
 9168125,-1.66329167\H,0,-0.38458333,2.3858125,-0.72729167\H,0,1.045416
 67,-1.5471875,1.27970833\H,0,0.02041667,-2.4471875,0.14970833\H,0,2.13
 141667,-1.1311875,-0.74029167\H,0,0.61141667,-1.0211875,-1.67029167\H,
 0,1.52241667,1.0878125,0.41970833\H,0,1.71741667,1.2328125,-1.36729167
 \\Version=ES64L-G09RevE.01\State=1-A\HF=-234.2587759\MP2=-235.3044008\
 RMSD=6.343e-09\PG=C01 [X(C6H12)]\\@


 Once you get people laughing, they're
 listening and you can tell them almost anything.
                                 -- Herb Gardner
 Job cpu time:       0 days  0 hours 27 minutes 48.1 seconds.
 File lengths (MBytes):  RWF=     46 Int=      0 D2E=      0 Chk=      8 Scr=      1
 Normal termination of Gaussian 09 at Fri Jul 27 23:48:30 2018.
