 Entering Gaussian System, Link 0=g09
 Input=41.gjf
 Output=41.out
 Initial command:
 /usr/local/g09/l1.exe /home/scratch/stylianakis/Gau-24785.inp -scrdir=/home/scratch/stylianakis/
 Entering Link 1 = /usr/local/g09/l1.exe PID=     24786.
  
 Copyright (c) 1988,1990,1992,1993,1995,1998,2003,2009, Gaussian, Inc.
                  All Rights Reserved.
  
 This is part of the Gaussian(R) 09 program.  It is based on
 the Gaussian(R) 03 system (copyright 2003, Gaussian, Inc.),
 the Gaussian(R) 98 system (copyright 1998, Gaussian, Inc.),
 the Gaussian(R) 94 system (copyright 1995, Gaussian, Inc.),
 the Gaussian 92(TM) system (copyright 1992, Gaussian, Inc.),
 the Gaussian 90(TM) system (copyright 1990, Gaussian, Inc.),
 the Gaussian 88(TM) system (copyright 1988, Gaussian, Inc.),
 the Gaussian 86(TM) system (copyright 1986, Carnegie Mellon
 University), and the Gaussian 82(TM) system (copyright 1983,
 Carnegie Mellon University). Gaussian is a federally registered
 trademark of Gaussian, Inc.
  
 This software contains proprietary and confidential information,
 including trade secrets, belonging to Gaussian, Inc.
  
 This software is provided under written license and may be
 used, copied, transmitted, or stored only in accord with that
 written license.
  
 The following legend is applicable only to US Government
 contracts under FAR:
  
                    RESTRICTED RIGHTS LEGEND
  
 Use, reproduction and disclosure by the US Government is
 subject to restrictions as set forth in subparagraphs (a)
 and (c) of the Commercial Computer Software - Restricted
 Rights clause in FAR 52.227-19.
  
 Gaussian, Inc.
 340 Quinnipiac St., Bldg. 40, Wallingford CT 06492
  
  
 ---------------------------------------------------------------
 Warning -- This program may not be used in any manner that
 competes with the business of Gaussian, Inc. or will provide
 assistance to any competitor of Gaussian, Inc.  The licensee
 of this program is prohibited from giving any competitor of
 Gaussian, Inc. access to this program.  By using this program,
 the user acknowledges that Gaussian, Inc. is engaged in the
 business of creating and licensing software in the field of
 computational chemistry and represents and warrants to the
 licensee that it is not a competitor of Gaussian, Inc. and that
 it will not use this program in any manner prohibited above.
 ---------------------------------------------------------------
  

 Cite this work as:
 Gaussian 09, Revision A.01,
 M. J. Frisch, G. W. Trucks, H. B. Schlegel, G. E. Scuseria, 
 M. A. Robb, J. R. Cheeseman, G. Scalmani, V. Barone, B. Mennucci, 
 G. A. Petersson, H. Nakatsuji, M. Caricato, X. Li, H. P. Hratchian, 
 A. F. Izmaylov, J. Bloino, G. Zheng, J. L. Sonnenberg, M. Hada, 
 M. Ehara, K. Toyota, R. Fukuda, J. Hasegawa, M. Ishida, T. Nakajima, 
 Y. Honda, O. Kitao, H. Nakai, T. Vreven, J. A. Montgomery, Jr., 
 J. E. Peralta, F. Ogliaro, M. Bearpark, J. J. Heyd, E. Brothers, 
 K. N. Kudin, V. N. Staroverov, R. Kobayashi, J. Normand, 
 K. Raghavachari, A. Rendell, J. C. Burant, S. S. Iyengar, J. Tomasi, 
 M. Cossi, N. Rega, J. M. Millam, M. Klene, J. E. Knox, J. B. Cross, 
 V. Bakken, C. Adamo, J. Jaramillo, R. Gomperts, R. E. Stratmann, 
 O. Yazyev, A. J. Austin, R. Cammi, C. Pomelli, J. W. Ochterski, 
 R. L. Martin, K. Morokuma, V. G. Zakrzewski, G. A. Voth, 
 P. Salvador, J. J. Dannenberg, S. Dapprich, A. D. Daniels, 
 O. Farkas, J. B. Foresman, J. V. Ortiz, J. Cioslowski, 
 and D. J. Fox, Gaussian, Inc., Wallingford CT, 2009.
 
 ******************************************
 Gaussian 09:  EM64L-G09RevA.01  8-May-2009
                 4-Jun-2016 
 ******************************************
 %mem=8000Mb
 %nproc=8
 Will use up to    8 processors via shared memory.
 -------------
 # mp2/cc-pVTZ
 -------------
 1/38=1/1;
 2/12=2,17=6,18=5,40=1/2;
 3/5=16,6=1,11=9,16=1,25=1,30=1/1,2,3;
 4//1;
 5/5=2,38=5/2;
 8/10=1/1;
 9/16=-3/6;
 6/7=2,8=2,9=2,10=2/1;
 99/5=1,9=1/99;
 -------------------------
 dimethylphosphine-ecl.hin
 -------------------------
 Symbolic Z-matrix:
 Charge =  0 Multiplicity = 1
 P                    -0.85392  -0.00647  -0.55405 
 C                    -0.88424   1.8809   -0.44483 
 C                     0.91023  -0.66672  -0.41449 
 Xx                   -1.37724  -0.35931   0.52483 
 H                    -1.68215  -0.61563  -1.5578 
 H                    -1.93341   2.24495  -0.37242 
 H                    -0.32469   2.22338   0.4542 
 H                    -0.41318   2.32504  -1.35004 
 H                     0.99913  -1.37951   0.43552 
 H                     1.18672  -1.19653  -1.35333 
 H                     1.62953   0.17234  -0.28329 
 
                          Input orientation:                          
 ---------------------------------------------------------------------
 Center     Atomic      Atomic             Coordinates (Angstroms)
 Number     Number       Type             X           Y           Z
 ---------------------------------------------------------------------
      1         15           0       -0.853920   -0.006470   -0.554050
      2          6           0       -0.884240    1.880900   -0.444830
      3          6           0        0.910230   -0.666720   -0.414490
      4          1           0       -1.682150   -0.615630   -1.557800
      5          1           0       -1.933410    2.244950   -0.372420
      6          1           0       -0.324690    2.223380    0.454200
      7          1           0       -0.413180    2.325040   -1.350040
      8          1           0        0.999130   -1.379510    0.435520
      9          1           0        1.186720   -1.196530   -1.353330
     10          1           0        1.629530    0.172340   -0.283290
 ---------------------------------------------------------------------
                    Distance matrix (angstroms):
                    1          2          3          4          5
     1  P    0.000000
     2  C    1.890771   0.000000
     3  C    1.888818   3.116314   0.000000
     4  H    1.436856   2.847459   2.833761   0.000000
     5  H    2.503434   1.112894   4.070120   3.106634   0.000000
     6  H    2.503774   1.112944   3.260725   3.735080   1.808797
     7  H    2.502757   1.112907   3.402543   3.209515   1.809214
     8  H    2.509638   3.866830   1.112875   3.427258   4.731730
     9  H    2.493853   3.819008   1.112909   2.934224   4.747755
    10  H    2.504557   3.043733   1.112936   3.634900   4.122887
                    6          7          8          9         10
     6  H    0.000000
     7  H    1.809267   0.000000
     8  H    3.838446   4.348165   0.000000
     9  H    4.152988   3.867964   1.807942   0.000000
    10  H    2.927393   3.153528   1.822726   1.793006   0.000000
 Stoichiometry    C2H7P
 Framework group  C1[X(C2H7P)]
 Deg. of freedom    24
 Full point group                 C1      NOp   1
 Largest Abelian subgroup         C1      NOp   1
 Largest concise Abelian subgroup C1      NOp   1
                         Standard orientation:                         
 ---------------------------------------------------------------------
 Center     Atomic      Atomic             Coordinates (Angstroms)
 Number     Number       Type             X           Y           Z
 ---------------------------------------------------------------------
      1         15           0       -0.000558   -0.563884   -0.094197
      2          6           0        1.559569    0.496625    0.033632
      3          6           0       -1.556741    0.499367    0.029998
      4          1           0       -0.013805   -1.797075    0.643107
      5          1           0        2.460352   -0.115622   -0.195008
      6          1           0        1.510177    1.342379   -0.688104
      7          1           0        1.659384    0.909533    1.062275
      8          1           0       -2.197989    0.367650   -0.869970
      9          1           0       -2.141248    0.203319    0.929594
     10          1           0       -1.285468    1.572124    0.149283
 ---------------------------------------------------------------------
 Rotational constants (GHZ):     17.8920152      5.9768637      4.8183539
 Standard basis: CC-pVTZ (5D, 7F)
 There are   192 symmetry adapted basis functions of A   symmetry.
 Integral buffers will be    131072 words long.
 Raffenetti 1 integral format.
 Two-electron integral symmetry is turned on.
   192 basis functions,   318 primitive gaussians,   214 cartesian basis functions
    17 alpha electrons       17 beta electrons
       nuclear repulsion energy       109.7409907945 Hartrees.
 NAtoms=   10 NActive=   10 NUniq=   10 SFac= 7.50D-01 NAtFMM=   80 NAOKFM=F Big=F
 One-electron integrals computed using PRISM.
 NBasis=   192 RedAO= T  NBF=   192
 NBsUse=   192 1.00D-06 NBFU=   192
 Harris functional with IExCor=  205 diagonalized for initial guess.
 ExpMin= 9.71D-02 ExpMax= 3.12D+05 ExpMxC= 9.87D+02 IAcc=2 IRadAn=         0 AccDes= 0.00D+00
 HarFok:  IExCor=  205 AccDes= 0.00D+00 IRadAn=         0 IDoV= 1
 ScaDFX=  1.000000  1.000000  1.000000  1.000000
 FoFCou: FMM=F IPFlag=           0 FMFlag=      100000 FMFlg1=           0
         NFxFlg=           0 DoJE=T BraDBF=F KetDBF=T FulRan=T
         Omega=  0.000000  0.000000  1.000000  0.000000  0.000000 ICntrl=     500 IOpCl=  0
         NMat0=    1 NMatS0=    1 NMatT0=    0 NMatD0=    1 NMtDS0=    0 NMtDT0=    0
         I1Cent=           4 NGrid=           0.
 Petite list used in FoFCou.
 Initial guess orbital symmetries:
       Occupied  (A) (A) (A) (A) (A) (A) (A) (A) (A) (A) (A) (A)
                 (A) (A) (A) (A) (A)
       Virtual   (A) (A) (A) (A) (A) (A) (A) (A) (A) (A) (A) (A)
                 (A) (A) (A) (A) (A) (A) (A) (A) (A) (A) (A) (A)
                 (A) (A) (A) (A) (A) (A) (A) (A) (A) (A) (A) (A)
                 (A) (A) (A) (A) (A) (A) (A) (A) (A) (A) (A) (A)
                 (A) (A) (A) (A) (A) (A) (A) (A) (A) (A) (A) (A)
                 (A) (A) (A) (A) (A) (A) (A) (A) (A) (A) (A) (A)
                 (A) (A) (A) (A) (A) (A) (A) (A) (A) (A) (A) (A)
                 (A) (A) (A) (A) (A) (A) (A) (A) (A) (A) (A) (A)
                 (A) (A) (A) (A) (A) (A) (A) (A) (A) (A) (A) (A)
                 (A) (A) (A) (A) (A) (A) (A) (A) (A) (A) (A) (A)
                 (A) (A) (A) (A) (A) (A) (A) (A) (A) (A) (A) (A)
                 (A) (A) (A) (A) (A) (A) (A) (A) (A) (A) (A) (A)
                 (A) (A) (A) (A) (A) (A) (A) (A) (A) (A) (A) (A)
                 (A) (A) (A) (A) (A) (A) (A) (A) (A) (A) (A) (A)
                 (A) (A) (A) (A) (A) (A) (A)
 The electronic state of the initial guess is 1-A.
 Requested convergence on RMS density matrix=1.00D-08 within 128 cycles.
 Requested convergence on MAX density matrix=1.00D-06.
 Requested convergence on             energy=1.00D-06.
 No special actions if energy rises.
 Keep R1 ints in memory in canonical form, NReq=269754425.
 SCF Done:  E(RHF) =  -420.548108310     A.U. after   12 cycles
             Convg  =    0.9585D-08             -V/T =  2.0011
 ExpMin= 9.71D-02 ExpMax= 3.12D+05 ExpMxC= 9.87D+02 IAcc=3 IRadAn=         5 AccDes= 0.00D+00
 HarFok:  IExCor=  205 AccDes= 0.00D+00 IRadAn=         5 IDoV=-2
 ScaDFX=  1.000000  1.000000  1.000000  1.000000
 Range of M.O.s used for correlation:     8   192
 NBasis=   192 NAE=    17 NBE=    17 NFC=     7 NFV=     0
 NROrb=    185 NOA=    10 NOB=    10 NVA=   175 NVB=   175
 Fully in-core method, ICMem=   554970489.
 JobTyp=1 Pass  1 fully in-core, NPsUse=  8.
 Spin components of T(2) and E(2):
     alpha-alpha T2 =       0.2141875302D-01 E2=     -0.5394301949D-01
     alpha-beta  T2 =       0.1461370783D+00 E2=     -0.4135842062D+00
     beta-beta   T2 =       0.2141875302D-01 E2=     -0.5394301949D-01
 ANorm=    0.1090401112D+01
 E2 =    -0.5214702452D+00 EUMP2 =    -0.42106957855500D+03

 **********************************************************************

            Population analysis using the SCF density.

 **********************************************************************

 Orbital symmetries:
       Occupied  (A) (A) (A) (A) (A) (A) (A) (A) (A) (A) (A) (A)
                 (A) (A) (A) (A) (A)
       Virtual   (A) (A) (A) (A) (A) (A) (A) (A) (A) (A) (A) (A)
                 (A) (A) (A) (A) (A) (A) (A) (A) (A) (A) (A) (A)
                 (A) (A) (A) (A) (A) (A) (A) (A) (A) (A) (A) (A)
                 (A) (A) (A) (A) (A) (A) (A) (A) (A) (A) (A) (A)
                 (A) (A) (A) (A) (A) (A) (A) (A) (A) (A) (A) (A)
                 (A) (A) (A) (A) (A) (A) (A) (A) (A) (A) (A) (A)
                 (A) (A) (A) (A) (A) (A) (A) (A) (A) (A) (A) (A)
                 (A) (A) (A) (A) (A) (A) (A) (A) (A) (A) (A) (A)
                 (A) (A) (A) (A) (A) (A) (A) (A) (A) (A) (A) (A)
                 (A) (A) (A) (A) (A) (A) (A) (A) (A) (A) (A) (A)
                 (A) (A) (A) (A) (A) (A) (A) (A) (A) (A) (A) (A)
                 (A) (A) (A) (A) (A) (A) (A) (A) (A) (A) (A) (A)
                 (A) (A) (A) (A) (A) (A) (A) (A) (A) (A) (A) (A)
                 (A) (A) (A) (A) (A) (A) (A) (A) (A) (A) (A) (A)
                 (A) (A) (A) (A) (A) (A) (A)
 The electronic state is 1-A.
 Alpha  occ. eigenvalues --  -79.92600 -11.24605 -11.24456  -7.46732  -5.36214
 Alpha  occ. eigenvalues --   -5.36187  -5.36168  -0.98206  -0.93344  -0.74459
 Alpha  occ. eigenvalues --   -0.58204  -0.57207  -0.55522  -0.55384  -0.49725
 Alpha  occ. eigenvalues --   -0.46721  -0.28039
 Alpha virt. eigenvalues --    0.13062   0.14940   0.15702   0.19453   0.20602
 Alpha virt. eigenvalues --    0.21104   0.22086   0.24734   0.26521   0.32527
 Alpha virt. eigenvalues --    0.35784   0.37511   0.38096   0.39790   0.42601
 Alpha virt. eigenvalues --    0.44598   0.46834   0.49986   0.51183   0.52989
 Alpha virt. eigenvalues --    0.56682   0.58063   0.61122   0.62449   0.63323
 Alpha virt. eigenvalues --    0.63979   0.64330   0.65054   0.71277   0.79152
 Alpha virt. eigenvalues --    0.80972   0.87335   0.87462   0.90998   0.91370
 Alpha virt. eigenvalues --    0.92874   0.96646   1.03783   1.05840   1.06329
 Alpha virt. eigenvalues --    1.09833   1.18051   1.19325   1.20962   1.21810
 Alpha virt. eigenvalues --    1.22479   1.23770   1.25281   1.26150   1.28956
 Alpha virt. eigenvalues --    1.33566   1.35106   1.40743   1.44226   1.46023
 Alpha virt. eigenvalues --    1.48819   1.51894   1.52922   1.54733   1.55009
 Alpha virt. eigenvalues --    1.57227   1.59559   1.68868   1.70754   1.74342
 Alpha virt. eigenvalues --    1.76610   1.77603   1.79164   1.84273   1.88681
 Alpha virt. eigenvalues --    1.92190   1.93723   2.03033   2.05348   2.09607
 Alpha virt. eigenvalues --    2.14425   2.39180   2.50045   2.51661   2.53614
 Alpha virt. eigenvalues --    2.55883   2.58453   2.60914   2.68825   2.71067
 Alpha virt. eigenvalues --    2.88544   2.98694   2.99141   3.05143   3.05660
 Alpha virt. eigenvalues --    3.06105   3.07177   3.09976   3.10267   3.21087
 Alpha virt. eigenvalues --    3.22550   3.23230   3.25892   3.30908   3.31766
 Alpha virt. eigenvalues --    3.33344   3.36305   3.39267   3.40060   3.42423
 Alpha virt. eigenvalues --    3.47088   3.49119   3.57732   3.59389   3.59923
 Alpha virt. eigenvalues --    3.61184   3.64815   3.67323   3.69660   3.70936
 Alpha virt. eigenvalues --    3.72389   3.73601   3.76413   3.77358   3.82813
 Alpha virt. eigenvalues --    3.84958   3.86272   3.87426   3.95077   3.98509
 Alpha virt. eigenvalues --    4.04808   4.06286   4.07547   4.10892   4.13145
 Alpha virt. eigenvalues --    4.15586   4.17320   4.23323   4.23989   4.24728
 Alpha virt. eigenvalues --    4.26766   4.30657   4.30848   4.34598   4.35631
 Alpha virt. eigenvalues --    4.35776   4.40360   4.40770   4.45126   4.47408
 Alpha virt. eigenvalues --    4.51689   4.52686   4.64139   4.85760   4.88670
 Alpha virt. eigenvalues --    4.98409   4.98950   5.00034   5.00928   5.17977
 Alpha virt. eigenvalues --    5.19496   5.29734   5.34121   5.34905   5.35485
 Alpha virt. eigenvalues --    5.39247   5.39300   5.46278   5.47744   5.52957
 Alpha virt. eigenvalues --    5.53089   5.54915   5.56698   5.77165   6.17165
 Alpha virt. eigenvalues --    6.18914   6.20238   6.20946  12.56209  12.77359
          Condensed to atoms (all electrons):
              1          2          3          4          5          6
     1  P   14.262689   0.323625   0.297791   0.363278  -0.025966  -0.024474
     2  C    0.323625   4.804266  -0.024437  -0.015686   0.409613   0.406186
     3  C    0.297791  -0.024437   4.832442  -0.017670   0.001928  -0.000788
     4  H    0.363278  -0.015686  -0.017670   0.640706  -0.000058   0.001549
     5  H   -0.025966   0.409613   0.001928  -0.000058   0.555289  -0.022963
     6  H   -0.024474   0.406186  -0.000788   0.001549  -0.022963   0.567317
     7  H   -0.052778   0.401426  -0.000390  -0.003349  -0.028110  -0.034372
     8  H   -0.035248   0.001870   0.417562   0.001713  -0.000076  -0.000049
     9  H   -0.032183   0.001200   0.402724  -0.004189  -0.000102   0.000059
    10  H   -0.027211  -0.001689   0.401598   0.000820   0.000070  -0.000005
              7          8          9         10
     1  P   -0.052778  -0.035248  -0.032183  -0.027211
     2  C    0.401426   0.001870   0.001200  -0.001689
     3  C   -0.000390   0.417562   0.402724   0.401598
     4  H   -0.003349   0.001713  -0.004189   0.000820
     5  H   -0.028110  -0.000076  -0.000102   0.000070
     6  H   -0.034372  -0.000049   0.000059  -0.000005
     7  H    0.619063  -0.000182   0.000688   0.001737
     8  H   -0.000182   0.554254  -0.029887  -0.028571
     9  H    0.000688  -0.029887   0.583639  -0.023433
    10  H    0.001737  -0.028571  -0.023433   0.577192
 Mulliken atomic charges:
              1
     1  P   -0.049524
     2  C   -0.306373
     3  C   -0.310760
     4  H    0.032886
     5  H    0.110375
     6  H    0.107539
     7  H    0.096268
     8  H    0.118614
     9  H    0.101483
    10  H    0.099492
 Sum of Mulliken atomic charges =   0.00000
 Mulliken charges with hydrogens summed into heavy atoms:
              1
     1  P   -0.016638
     2  C    0.007809
     3  C    0.008829
 Sum of Mulliken charges with hydrogens summed into heavy atoms =   0.00000
 Electronic spatial extent (au):  <R**2>=            318.7108
 Charge=              0.0000 electrons
 Dipole moment (field-independent basis, Debye):
    X=             -0.0082    Y=              1.0668    Z=              1.1155  Tot=              1.5435
 Quadrupole moment (field-independent basis, Debye-Ang):
   XX=            -26.3150   YY=            -28.3720   ZZ=            -31.0498
   XY=             -0.0196   XZ=             -0.1108   YZ=             -2.1284
 Traceless Quadrupole moment (field-independent basis, Debye-Ang):
   XX=              2.2639   YY=              0.2070   ZZ=             -2.4709
   XY=             -0.0196   XZ=             -0.1108   YZ=             -2.1284
 Octapole moment (field-independent basis, Debye-Ang**2):
  XXX=              0.7652  YYY=              1.9971  ZZZ=              3.0119  XYY=              0.3328
  XXY=             -1.4651  XXZ=             -1.3608  XZZ=             -0.9762  YZZ=              3.7352
  YYZ=              2.0802  XYZ=             -0.0846
 Hexadecapole moment (field-independent basis, Debye-Ang**3):
 XXXX=           -283.8958 YYYY=           -113.2986 ZZZZ=            -61.9010 XXXY=             -2.1298
 XXXZ=             -0.7659 YYYX=             -0.1330 YYYZ=             -6.1356 ZZZX=              0.9479
 ZZZY=             -3.2806 XXYY=            -69.0643 XXZZ=            -55.2550 YYZZ=            -31.9765
 XXYZ=             -1.6359 YYXZ=             -1.0901 ZZXY=              1.2749
 N-N= 1.097409907945D+02 E-N=-1.216381065132D+03  KE= 4.200783449198D+02
 1\1\GINC-ROCK\SP\RMP2-FC\CC-pVTZ\C2H7P1\STYLIANAKIS\04-Jun-2016\0\\# m
 p2/cc-pVTZ\\dimethylphosphine-ecl.hin\\0,1\P,0,-0.85392,-0.00647,-0.55
 405\C,0,-0.88424,1.8809,-0.44483\C,0,0.91023,-0.66672,-0.41449\X,0,-1.
 37724,-0.35931,0.52483\H,0,-1.68215,-0.61563,-1.5578\H,0,-1.93341,2.24
 495,-0.37242\H,0,-0.32469,2.22338,0.4542\H,0,-0.41318,2.32504,-1.35004
 \H,0,0.99913,-1.37951,0.43552\H,0,1.18672,-1.19653,-1.35333\H,0,1.6295
 3,0.17234,-0.28329\\Version=EM64L-G09RevA.01\State=1-A\HF=-420.5481083
 \MP2=-421.0695786\RMSD=9.585e-09\PG=C01 [X(C2H7P1)]\\@


 WAR ES EIN GOTT DER DIESE ZEICHEN SCHRIEB?
          - LUDWIG BOLTZMANN, QUOTING GOETHE, ABOUT MAXWELL'S EQUATIONS.
 Job cpu time:  0 days  0 hours 11 minutes 33.3 seconds.
 File lengths (MBytes):  RWF=     16 Int=      0 D2E=      0 Chk=      3 Scr=      1
 Normal termination of Gaussian 09 at Sat Jun  4 22:10:53 2016.
