 Entering Gaussian System, Link 0=g09
 Input=45.gjf
 Output=45.out
 Initial command:
 /usr/local/g09/l1.exe /home/scratch/stylianakis/Gau-25456.inp -scrdir=/home/scratch/stylianakis/
 Entering Link 1 = /usr/local/g09/l1.exe PID=     25457.
  
 Copyright (c) 1988,1990,1992,1993,1995,1998,2003,2009, Gaussian, Inc.
                  All Rights Reserved.
  
 This is part of the Gaussian(R) 09 program.  It is based on
 the Gaussian(R) 03 system (copyright 2003, Gaussian, Inc.),
 the Gaussian(R) 98 system (copyright 1998, Gaussian, Inc.),
 the Gaussian(R) 94 system (copyright 1995, Gaussian, Inc.),
 the Gaussian 92(TM) system (copyright 1992, Gaussian, Inc.),
 the Gaussian 90(TM) system (copyright 1990, Gaussian, Inc.),
 the Gaussian 88(TM) system (copyright 1988, Gaussian, Inc.),
 the Gaussian 86(TM) system (copyright 1986, Carnegie Mellon
 University), and the Gaussian 82(TM) system (copyright 1983,
 Carnegie Mellon University). Gaussian is a federally registered
 trademark of Gaussian, Inc.
  
 This software contains proprietary and confidential information,
 including trade secrets, belonging to Gaussian, Inc.
  
 This software is provided under written license and may be
 used, copied, transmitted, or stored only in accord with that
 written license.
  
 The following legend is applicable only to US Government
 contracts under FAR:
  
                    RESTRICTED RIGHTS LEGEND
  
 Use, reproduction and disclosure by the US Government is
 subject to restrictions as set forth in subparagraphs (a)
 and (c) of the Commercial Computer Software - Restricted
 Rights clause in FAR 52.227-19.
  
 Gaussian, Inc.
 340 Quinnipiac St., Bldg. 40, Wallingford CT 06492
  
  
 ---------------------------------------------------------------
 Warning -- This program may not be used in any manner that
 competes with the business of Gaussian, Inc. or will provide
 assistance to any competitor of Gaussian, Inc.  The licensee
 of this program is prohibited from giving any competitor of
 Gaussian, Inc. access to this program.  By using this program,
 the user acknowledges that Gaussian, Inc. is engaged in the
 business of creating and licensing software in the field of
 computational chemistry and represents and warrants to the
 licensee that it is not a competitor of Gaussian, Inc. and that
 it will not use this program in any manner prohibited above.
 ---------------------------------------------------------------
  

 Cite this work as:
 Gaussian 09, Revision A.01,
 M. J. Frisch, G. W. Trucks, H. B. Schlegel, G. E. Scuseria, 
 M. A. Robb, J. R. Cheeseman, G. Scalmani, V. Barone, B. Mennucci, 
 G. A. Petersson, H. Nakatsuji, M. Caricato, X. Li, H. P. Hratchian, 
 A. F. Izmaylov, J. Bloino, G. Zheng, J. L. Sonnenberg, M. Hada, 
 M. Ehara, K. Toyota, R. Fukuda, J. Hasegawa, M. Ishida, T. Nakajima, 
 Y. Honda, O. Kitao, H. Nakai, T. Vreven, J. A. Montgomery, Jr., 
 J. E. Peralta, F. Ogliaro, M. Bearpark, J. J. Heyd, E. Brothers, 
 K. N. Kudin, V. N. Staroverov, R. Kobayashi, J. Normand, 
 K. Raghavachari, A. Rendell, J. C. Burant, S. S. Iyengar, J. Tomasi, 
 M. Cossi, N. Rega, J. M. Millam, M. Klene, J. E. Knox, J. B. Cross, 
 V. Bakken, C. Adamo, J. Jaramillo, R. Gomperts, R. E. Stratmann, 
 O. Yazyev, A. J. Austin, R. Cammi, C. Pomelli, J. W. Ochterski, 
 R. L. Martin, K. Morokuma, V. G. Zakrzewski, G. A. Voth, 
 P. Salvador, J. J. Dannenberg, S. Dapprich, A. D. Daniels, 
 O. Farkas, J. B. Foresman, J. V. Ortiz, J. Cioslowski, 
 and D. J. Fox, Gaussian, Inc., Wallingford CT, 2009.
 
 ******************************************
 Gaussian 09:  EM64L-G09RevA.01  8-May-2009
                 4-Jun-2016 
 ******************************************
 %mem=8000Mb
 %nproc=8
 Will use up to    8 processors via shared memory.
 -------------
 # mp2/cc-pVTZ
 -------------
 1/38=1/1;
 2/12=2,17=6,18=5,40=1/2;
 3/5=16,6=1,11=9,16=1,25=1,30=1/1,2,3;
 4//1;
 5/5=2,38=5/2;
 8/10=1/1;
 9/16=-3/6;
 6/7=2,8=2,9=2,10=2/1;
 99/5=1,9=1/99;
 ---------------------
 dimethilsulfide-g.hin
 ---------------------
 Symbolic Z-matrix:
 Charge =  0 Multiplicity = 1
 C                    -0.61222  -1.22192   0.22922 
 S                    -0.88788   0.39243  -0.49771 
 C                    -2.41977   1.16757   0.01515 
 H                     0.35369  -1.6381   -0.13452 
 H                    -0.57839  -1.13437   1.33821 
 H                    -1.43844  -1.91002  -0.0581 
 H                    -2.42195   1.30203   1.11996 
 H                    -2.52042   2.16182  -0.47457 
 H                    -3.28177   0.52696  -0.27682 
 Xx                    0.0339    1.11655  -0.19794 
 Xx                   -0.89265   0.2809   -1.70246 
 
                          Input orientation:                          
 ---------------------------------------------------------------------
 Center     Atomic      Atomic             Coordinates (Angstroms)
 Number     Number       Type             X           Y           Z
 ---------------------------------------------------------------------
      1          6           0       -0.612220   -1.221920    0.229220
      2         16           0       -0.887880    0.392430   -0.497710
      3          6           0       -2.419770    1.167570    0.015150
      4          1           0        0.353690   -1.638100   -0.134520
      5          1           0       -0.578390   -1.134370    1.338210
      6          1           0       -1.438440   -1.910020   -0.058100
      7          1           0       -2.421950    1.302030    1.119960
      8          1           0       -2.520420    2.161820   -0.474570
      9          1           0       -3.281770    0.526960   -0.276820
 ---------------------------------------------------------------------
                    Distance matrix (angstroms):
                    1          2          3          4          5
     1  C    0.000000
     2  S    1.791798   0.000000
     3  C    3.003785   1.791802   0.000000
     4  H    1.112877   2.407583   3.947944   0.000000
     5  H    1.112955   2.407801   3.231114   1.814236   0.000000
     6  H    1.112957   2.407831   3.231089   1.814252   1.814112
     7  H    3.230923   2.407820   1.112964   4.233469   3.063069
     8  H    3.947942   2.407585   1.112874   4.776561   4.233500
     9  H    3.231278   2.407821   1.112956   4.233710   3.560422
                    6          7          8          9
     6  H    0.000000
     7  H    3.559829   0.000000
     8  H    4.233676   1.814238   0.000000
     9  H    3.063425   1.814116   1.814256   0.000000
 Stoichiometry    C2H6S
 Framework group  C1[X(C2H6S)]
 Deg. of freedom    21
 Full point group                 C1      NOp   1
 Largest Abelian subgroup         C1      NOp   1
 Largest concise Abelian subgroup C1      NOp   1
                         Standard orientation:                         
 ---------------------------------------------------------------------
 Center     Atomic      Atomic             Coordinates (Angstroms)
 Number     Number       Type             X           Y           Z
 ---------------------------------------------------------------------
      1          6           0       -1.501891   -0.423638    0.000000
      2         16           0       -0.000001    0.553536    0.000003
      3          6           0        1.501894   -0.423635    0.000003
      4          1           0       -2.388281    0.249272    0.000042
      5          1           0       -1.531636   -1.067814   -0.907094
      6          1           0       -1.531609   -1.067929    0.907018
      7          1           0        1.531433   -1.068163   -0.906861
      8          1           0        2.388280    0.249275   -0.000422
      9          1           0        1.531816   -1.067583    0.907255
 ---------------------------------------------------------------------
 Rotational constants (GHZ):     23.0571191      6.4455806      5.3940407
 Standard basis: CC-pVTZ (5D, 7F)
 There are   178 symmetry adapted basis functions of A   symmetry.
 Integral buffers will be    131072 words long.
 Raffenetti 1 integral format.
 Two-electron integral symmetry is turned on.
   178 basis functions,   300 primitive gaussians,   199 cartesian basis functions
    17 alpha electrons       17 beta electrons
       nuclear repulsion energy       109.8051146562 Hartrees.
 NAtoms=    9 NActive=    9 NUniq=    9 SFac= 7.50D-01 NAtFMM=   80 NAOKFM=F Big=F
 One-electron integrals computed using PRISM.
 NBasis=   178 RedAO= T  NBF=   178
 NBsUse=   178 1.00D-06 NBFU=   178
 Harris functional with IExCor=  205 diagonalized for initial guess.
 ExpMin= 1.03D-01 ExpMax= 3.74D+05 ExpMxC= 1.18D+03 IAcc=2 IRadAn=         0 AccDes= 0.00D+00
 HarFok:  IExCor=  205 AccDes= 0.00D+00 IRadAn=         0 IDoV= 1
 ScaDFX=  1.000000  1.000000  1.000000  1.000000
 FoFCou: FMM=F IPFlag=           0 FMFlag=      100000 FMFlg1=           0
         NFxFlg=           0 DoJE=T BraDBF=F KetDBF=T FulRan=T
         Omega=  0.000000  0.000000  1.000000  0.000000  0.000000 ICntrl=     500 IOpCl=  0
         NMat0=    1 NMatS0=    1 NMatT0=    0 NMatD0=    1 NMtDS0=    0 NMtDT0=    0
         I1Cent=           4 NGrid=           0.
 Petite list used in FoFCou.
 Initial guess orbital symmetries:
       Occupied  (A) (A) (A) (A) (A) (A) (A) (A) (A) (A) (A) (A)
                 (A) (A) (A) (A) (A)
       Virtual   (A) (A) (A) (A) (A) (A) (A) (A) (A) (A) (A) (A)
                 (A) (A) (A) (A) (A) (A) (A) (A) (A) (A) (A) (A)
                 (A) (A) (A) (A) (A) (A) (A) (A) (A) (A) (A) (A)
                 (A) (A) (A) (A) (A) (A) (A) (A) (A) (A) (A) (A)
                 (A) (A) (A) (A) (A) (A) (A) (A) (A) (A) (A) (A)
                 (A) (A) (A) (A) (A) (A) (A) (A) (A) (A) (A) (A)
                 (A) (A) (A) (A) (A) (A) (A) (A) (A) (A) (A) (A)
                 (A) (A) (A) (A) (A) (A) (A) (A) (A) (A) (A) (A)
                 (A) (A) (A) (A) (A) (A) (A) (A) (A) (A) (A) (A)
                 (A) (A) (A) (A) (A) (A) (A) (A) (A) (A) (A) (A)
                 (A) (A) (A) (A) (A) (A) (A) (A) (A) (A) (A) (A)
                 (A) (A) (A) (A) (A) (A) (A) (A) (A) (A) (A) (A)
                 (A) (A) (A) (A) (A) (A) (A) (A) (A) (A) (A) (A)
                 (A) (A) (A) (A) (A)
 The electronic state of the initial guess is 1-A.
 Requested convergence on RMS density matrix=1.00D-08 within 128 cycles.
 Requested convergence on MAX density matrix=1.00D-06.
 Requested convergence on             energy=1.00D-06.
 No special actions if energy rises.
 Keep R1 ints in memory in canonical form, NReq=202154863.
 SCF Done:  E(RHF) =  -476.789743003     A.U. after   10 cycles
             Convg  =    0.7818D-08             -V/T =  2.0006
 ExpMin= 1.03D-01 ExpMax= 3.74D+05 ExpMxC= 1.18D+03 IAcc=3 IRadAn=         5 AccDes= 0.00D+00
 HarFok:  IExCor=  205 AccDes= 0.00D+00 IRadAn=         5 IDoV=-2
 ScaDFX=  1.000000  1.000000  1.000000  1.000000
 Range of M.O.s used for correlation:     8   178
 NBasis=   178 NAE=    17 NBE=    17 NFC=     7 NFV=     0
 NROrb=    171 NOA=    10 NOB=    10 NVA=   161 NVB=   161
 Fully in-core method, ICMem=   418253266.
 JobTyp=1 Pass  1 fully in-core, NPsUse=  8.
 Spin components of T(2) and E(2):
     alpha-alpha T2 =       0.2249339466D-01 E2=     -0.5868420520D-01
     alpha-beta  T2 =       0.1436875782D+00 E2=     -0.4213931683D+00
     beta-beta   T2 =       0.2249339466D-01 E2=     -0.5868420520D-01
 ANorm=    0.1090263440D+01
 E2 =    -0.5387615787D+00 EUMP2 =    -0.47732850458191D+03

 **********************************************************************

            Population analysis using the SCF density.

 **********************************************************************

 Orbital symmetries:
       Occupied  (A) (A) (A) (A) (A) (A) (A) (A) (A) (A) (A) (A)
                 (A) (A) (A) (A) (A)
       Virtual   (A) (A) (A) (A) (A) (A) (A) (A) (A) (A) (A) (A)
                 (A) (A) (A) (A) (A) (A) (A) (A) (A) (A) (A) (A)
                 (A) (A) (A) (A) (A) (A) (A) (A) (A) (A) (A) (A)
                 (A) (A) (A) (A) (A) (A) (A) (A) (A) (A) (A) (A)
                 (A) (A) (A) (A) (A) (A) (A) (A) (A) (A) (A) (A)
                 (A) (A) (A) (A) (A) (A) (A) (A) (A) (A) (A) (A)
                 (A) (A) (A) (A) (A) (A) (A) (A) (A) (A) (A) (A)
                 (A) (A) (A) (A) (A) (A) (A) (A) (A) (A) (A) (A)
                 (A) (A) (A) (A) (A) (A) (A) (A) (A) (A) (A) (A)
                 (A) (A) (A) (A) (A) (A) (A) (A) (A) (A) (A) (A)
                 (A) (A) (A) (A) (A) (A) (A) (A) (A) (A) (A) (A)
                 (A) (A) (A) (A) (A) (A) (A) (A) (A) (A) (A) (A)
                 (A) (A) (A) (A) (A) (A) (A) (A) (A) (A) (A) (A)
                 (A) (A) (A) (A) (A)
 The electronic state is 1-A.
 Alpha  occ. eigenvalues --  -91.93428 -11.26044 -11.26044  -8.93667  -6.61814
 Alpha  occ. eigenvalues --   -6.61726  -6.61622  -1.05598  -0.95322  -0.79592
 Alpha  occ. eigenvalues --   -0.59484  -0.59477  -0.57459  -0.56252  -0.51769
 Alpha  occ. eigenvalues --   -0.40728  -0.32785
 Alpha virt. eigenvalues --    0.13171   0.15540   0.19373   0.19381   0.20706
 Alpha virt. eigenvalues --    0.22161   0.23446   0.27818   0.33987   0.36599
 Alpha virt. eigenvalues --    0.37021   0.37642   0.42753   0.45342   0.47481
 Alpha virt. eigenvalues --    0.49102   0.53340   0.56369   0.57622   0.57945
 Alpha virt. eigenvalues --    0.61203   0.61539   0.62467   0.64062   0.64985
 Alpha virt. eigenvalues --    0.66242   0.66849   0.77001   0.84630   0.88649
 Alpha virt. eigenvalues --    0.91707   0.96806   0.97635   1.00075   1.04410
 Alpha virt. eigenvalues --    1.06006   1.08871   1.15093   1.17980   1.18465
 Alpha virt. eigenvalues --    1.18848   1.23359   1.23643   1.26603   1.27726
 Alpha virt. eigenvalues --    1.32638   1.36396   1.37587   1.39229   1.46748
 Alpha virt. eigenvalues --    1.47101   1.50895   1.53104   1.53805   1.55638
 Alpha virt. eigenvalues --    1.56832   1.63518   1.73157   1.76749   1.90577
 Alpha virt. eigenvalues --    1.95140   1.96091   1.96972   1.98286   2.03996
 Alpha virt. eigenvalues --    2.16102   2.16501   2.19170   2.26129   2.28838
 Alpha virt. eigenvalues --    2.34505   2.40587   2.53851   2.56130   2.57019
 Alpha virt. eigenvalues --    2.58310   2.64233   2.67707   2.67780   2.76166
 Alpha virt. eigenvalues --    2.97839   3.00547   3.02890   3.05256   3.05431
 Alpha virt. eigenvalues --    3.08600   3.09222   3.09466   3.24753   3.24902
 Alpha virt. eigenvalues --    3.25237   3.27828   3.35905   3.36270   3.36433
 Alpha virt. eigenvalues --    3.38980   3.40295   3.43107   3.44799   3.45876
 Alpha virt. eigenvalues --    3.50289   3.58510   3.58918   3.67487   3.67810
 Alpha virt. eigenvalues --    3.68881   3.70067   3.72207   3.75743   3.77898
 Alpha virt. eigenvalues --    3.79986   3.81847   3.88043   3.89450   3.95564
 Alpha virt. eigenvalues --    4.06545   4.07828   4.09133   4.11339   4.12210
 Alpha virt. eigenvalues --    4.16098   4.20072   4.24124   4.25329   4.25556
 Alpha virt. eigenvalues --    4.32536   4.33912   4.34690   4.38976   4.39340
 Alpha virt. eigenvalues --    4.40179   4.43276   4.51214   4.52696   4.65882
 Alpha virt. eigenvalues --    4.91121   4.98562   4.98890   5.00533   5.00749
 Alpha virt. eigenvalues --    5.18360   5.19279   5.29176   5.30770   5.34119
 Alpha virt. eigenvalues --    5.34458   5.40765   5.40774   5.46329   5.50274
 Alpha virt. eigenvalues --    5.50472   5.50503   5.51968   5.58512   5.65295
 Alpha virt. eigenvalues --    6.15558   6.17328   6.17704   6.19160  12.77400
 Alpha virt. eigenvalues --   12.82562
          Condensed to atoms (all electrons):
              1          2          3          4          5          6
     1  C    4.742511   0.286894  -0.024834   0.413543   0.409530   0.409525
     2  S    0.286894  15.816827   0.286894  -0.025251  -0.051236  -0.051231
     3  C   -0.024834   0.286894   4.742512   0.002129  -0.001282  -0.001281
     4  H    0.413543  -0.025251   0.002129   0.547757  -0.026474  -0.026474
     5  H    0.409530  -0.051236  -0.001282  -0.026474   0.608508  -0.037305
     6  H    0.409525  -0.051231  -0.001281  -0.026474  -0.037305   0.608514
     7  H   -0.001282  -0.051228   0.409521  -0.000121   0.004127  -0.000373
     8  H    0.002129  -0.025251   0.413543  -0.000067  -0.000121  -0.000121
     9  H   -0.001281  -0.051238   0.409532  -0.000121  -0.000372   0.004126
              7          8          9
     1  C   -0.001282   0.002129  -0.001281
     2  S   -0.051228  -0.025251  -0.051238
     3  C    0.409521   0.413543   0.409532
     4  H   -0.000121  -0.000067  -0.000121
     5  H    0.004127  -0.000121  -0.000372
     6  H   -0.000373  -0.000121   0.004126
     7  H    0.608518  -0.026471  -0.037305
     8  H   -0.026471   0.547755  -0.026477
     9  H   -0.037305  -0.026477   0.608506
 Mulliken atomic charges:
              1
     1  C   -0.236735
     2  S   -0.135179
     3  C   -0.236734
     4  H    0.115080
     5  H    0.094625
     6  H    0.094620
     7  H    0.094613
     8  H    0.115081
     9  H    0.094630
 Sum of Mulliken atomic charges =   0.00000
 Mulliken charges with hydrogens summed into heavy atoms:
              1
     1  C    0.067590
     2  S   -0.135179
     3  C    0.067590
 Sum of Mulliken charges with hydrogens summed into heavy atoms =   0.00000
 Electronic spatial extent (au):  <R**2>=            285.0707
 Charge=              0.0000 electrons
 Dipole moment (field-independent basis, Debye):
    X=              0.0000    Y=             -1.7251    Z=              0.0000  Tot=              1.7251
 Quadrupole moment (field-independent basis, Debye-Ang):
   XX=            -23.2883   YY=            -29.1469   ZZ=            -28.9107
   XY=              0.0000   XZ=             -0.0002   YZ=             -0.0001
 Traceless Quadrupole moment (field-independent basis, Debye-Ang):
   XX=              3.8270   YY=             -2.0316   ZZ=             -1.7954
   XY=              0.0000   XZ=             -0.0002   YZ=             -0.0001
 Octapole moment (field-independent basis, Debye-Ang**2):
  XXX=              0.0000  YYY=             -1.9489  ZZZ=              0.0007  XYY=              0.0000
  XXY=              3.2081  XXZ=             -0.0008  XZZ=              0.0000  YZZ=             -3.2983
  YYZ=             -0.0004  XYZ=             -0.0004
 Hexadecapole moment (field-independent basis, Debye-Ang**3):
 XXXX=           -247.5825 YYYY=            -95.8077 ZZZZ=            -49.8684 XXXY=              0.0001
 XXXZ=             -0.0033 YYYX=              0.0001 YYYZ=              0.0007 ZZZX=              0.0016
 ZZZY=             -0.0005 XXYY=            -58.6224 XXZZ=            -52.8697 YYZZ=            -23.0678
 XXYZ=             -0.0013 YYXZ=             -0.0008 ZZXY=              0.0000
 N-N= 1.098051146562D+02 E-N=-1.350459632789D+03  KE= 4.765261179051D+02
 1\1\GINC-ROCK\SP\RMP2-FC\CC-pVTZ\C2H6S1\STYLIANAKIS\04-Jun-2016\0\\# m
 p2/cc-pVTZ\\dimethilsulfide-g.hin\\0,1\C,0,-0.61222,-1.22192,0.22922\S
 ,0,-0.88788,0.39243,-0.49771\C,0,-2.41977,1.16757,0.01515\H,0,0.35369,
 -1.6381,-0.13452\H,0,-0.57839,-1.13437,1.33821\H,0,-1.43844,-1.91002,-
 0.0581\H,0,-2.42195,1.30203,1.11996\H,0,-2.52042,2.16182,-0.47457\H,0,
 -3.28177,0.52696,-0.27682\X,0,0.0339,1.11655,-0.19794\X,0,-0.89265,0.2
 809,-1.70246\\Version=EM64L-G09RevA.01\State=1-A\HF=-476.789743\MP2=-4
 77.3285046\RMSD=7.818e-09\PG=C01 [X(C2H6S1)]\\@


 WHEN ALL ELSE FAILS, LOOK AT THE SCHRODINGER EQUATION.
     -- RUSSELL T. PACK, APRIL 1978
 Job cpu time:  0 days  0 hours  8 minutes  9.5 seconds.
 File lengths (MBytes):  RWF=     15 Int=      0 D2E=      0 Chk=      2 Scr=      1
 Normal termination of Gaussian 09 at Sat Jun  4 22:15:17 2016.
