c7102 1381493 SLURM_STEP_IDnodef 0 0 1 24 SLURM_MEM_PER_CPUnodef 122880
/mnt/lustre/scratch/slurm/1381493/uviqopsc.DHhGk10UCy
OMP_STACKSIZE=128m
-P- 24
-M- 114688MB
 Entering Gaussian System, Link 0=/opt/cesga/g09/e1/g09.exe
 Initial command:
 /opt/cesga/g09/e1/l1.exe "/mnt/lustre/scratch/slurm/1381493/uviqopsc.DHhGk10UCy/Gau-23419.inp" -scrdir="/mnt/lustre/scratch/slurm/1381493/uviqopsc.DHhGk10UCy/"
 Default is to use a total of  24 processors:
                               24 via shared-memory
                                1 via Linda
 Entering Link 1 = /opt/cesga/g09/e1/l1.exe PID=     23446.
  
 Copyright (c) 1988,1990,1992,1993,1995,1998,2003,2009,2015,
            Gaussian, Inc.  All Rights Reserved.
  
 This is part of the Gaussian(R) 09 program.  It is based on
 the Gaussian(R) 03 system (copyright 2003, Gaussian, Inc.),
 the Gaussian(R) 98 system (copyright 1998, Gaussian, Inc.),
 the Gaussian(R) 94 system (copyright 1995, Gaussian, Inc.),
 the Gaussian 92(TM) system (copyright 1992, Gaussian, Inc.),
 the Gaussian 90(TM) system (copyright 1990, Gaussian, Inc.),
 the Gaussian 88(TM) system (copyright 1988, Gaussian, Inc.),
 the Gaussian 86(TM) system (copyright 1986, Carnegie Mellon
 University), and the Gaussian 82(TM) system (copyright 1983,
 Carnegie Mellon University). Gaussian is a federally registered
 trademark of Gaussian, Inc.
  
 This software contains proprietary and confidential information,
 including trade secrets, belonging to Gaussian, Inc.
  
 This software is provided under written license and may be
 used, copied, transmitted, or stored only in accord with that
 written license.
  
 The following legend is applicable only to US Government
 contracts under FAR:
  
                    RESTRICTED RIGHTS LEGEND
  
 Use, reproduction and disclosure by the US Government is
 subject to restrictions as set forth in subparagraphs (a)
 and (c) of the Commercial Computer Software - Restricted
 Rights clause in FAR 52.227-19.
  
 Gaussian, Inc.
 340 Quinnipiac St., Bldg. 40, Wallingford CT 06492
  
  
 ---------------------------------------------------------------
 Warning -- This program may not be used in any manner that
 competes with the business of Gaussian, Inc. or will provide
 assistance to any competitor of Gaussian, Inc.  The licensee
 of this program is prohibited from giving any competitor of
 Gaussian, Inc. access to this program.  By using this program,
 the user acknowledges that Gaussian, Inc. is engaged in the
 business of creating and licensing software in the field of
 computational chemistry and represents and warrants to the
 licensee that it is not a competitor of Gaussian, Inc. and that
 it will not use this program in any manner prohibited above.
 ---------------------------------------------------------------
  

 Cite this work as:
 Gaussian 09, Revision E.01,
 M. J. Frisch, G. W. Trucks, H. B. Schlegel, G. E. Scuseria, 
 M. A. Robb, J. R. Cheeseman, G. Scalmani, V. Barone, B. Mennucci, 
 G. A. Petersson, H. Nakatsuji, M. Caricato, X. Li, H. P. Hratchian, 
 A. F. Izmaylov, J. Bloino, G. Zheng, J. L. Sonnenberg, M. Hada, 
 M. Ehara, K. Toyota, R. Fukuda, J. Hasegawa, M. Ishida, T. Nakajima, 
 Y. Honda, O. Kitao, H. Nakai, T. Vreven, J. A. Montgomery, Jr., 
 J. E. Peralta, F. Ogliaro, M. Bearpark, J. J. Heyd, E. Brothers, 
 K. N. Kudin, V. N. Staroverov, T. Keith, R. Kobayashi, J. Normand, 
 K. Raghavachari, A. Rendell, J. C. Burant, S. S. Iyengar, J. Tomasi, 
 M. Cossi, N. Rega, J. M. Millam, M. Klene, J. E. Knox, J. B. Cross, 
 V. Bakken, C. Adamo, J. Jaramillo, R. Gomperts, R. E. Stratmann, 
 O. Yazyev, A. J. Austin, R. Cammi, C. Pomelli, J. W. Ochterski, 
 R. L. Martin, K. Morokuma, V. G. Zakrzewski, G. A. Voth, 
 P. Salvador, J. J. Dannenberg, S. Dapprich, A. D. Daniels, 
 O. Farkas, J. B. Foresman, J. V. Ortiz, J. Cioslowski, 
 and D. J. Fox, Gaussian, Inc., Wallingford CT, 2013.
 
 ******************************************
 Gaussian 09:  ES64L-G09RevE.01 30-Nov-2015
                10-Jul-2018 
 ******************************************
 %Mem=105Gb
 %NProcShared=24
 Will use up to   24 processors via shared memory.
 Default route:  SCF=Direct
 -------------
 # mp2/cc-pVTZ
 -------------
 1/38=1/1;
 2/12=2,17=6,18=5,40=1/2;
 3/5=16,6=1,11=9,16=1,25=1,30=1/1,2,3;
 4//1;
 5/5=2,38=5/2;
 8/10=1/1;
 9/16=-3/6;
 6/7=2,8=2,9=2,10=2/1;
 99/5=1,9=1/99;
 ------------
 diMe-sulfone
 ------------
 Symbolic Z-matrix:
 Charge =  0 Multiplicity = 1
 C
 S                    1    B1
 C                    2    B2       1    A1
 O                    2    B3       1    A2       3    D1       0
 O                    2    B4       1    A3       4    D2       0
 H                    1    B5       2    A4       4    D3       0
 H                    1    B6       2    A5       4    D4       0
 H                    3    B7       2    A6       1    D5       0
 H                    3    B8       2    A7       1    D6       0
 H                    3    B9       2    A8       1    D7       0
 H                    1    B10      2    A9       4    D8       0
       Variables:
  B1                    1.77315                  
  B2                    1.77315                  
  B3                    1.4385                   
  B4                    1.4385                   
  B5                    1.08147                  
  B6                    1.08147                  
  B7                    1.08215                  
  B8                    1.08147                  
  B9                    1.08147                  
  B10                   1.08215                  
  A1                  104.56528                  
  A2                  107.85322                  
  A3                  107.85322                  
  A4                  109.54518                  
  A5                  109.54518                  
  A6                  106.27736                  
  A7                  109.54538                  
  A8                  109.54538                  
  A9                  106.27777                  
  D1                  114.61358                  
  D2                  130.77284                  
  D3                  175.89265                  
  D4                   53.33451                  
  D5                  180.                       
  D6                  -61.27953                  
  D7                   61.27953                  
  D8                  -65.38642                  
 
                          Input orientation:                          
 ---------------------------------------------------------------------
 Center     Atomic      Atomic             Coordinates (Angstroms)
 Number     Number       Type             X           Y           Z
 ---------------------------------------------------------------------
      1          6           0        0.000000    0.000000    0.000000
      2         16           0        0.000000    0.000000    1.773152
      3          6           0        1.716166    0.000000    2.219069
      4          8           0       -0.570280    1.244820    2.214167
      5          8           0       -0.570280   -1.244820    2.214167
      6          1           0        0.489746   -0.893764   -0.361804
      7          1           0        0.489746    0.893764   -0.361804
      8          1           0        1.748498    0.000000    3.300733
      9          1           0        2.189508   -0.893768    1.836058
     10          1           0        2.189508    0.893768    1.836058
     11          1           0       -1.038774    0.000000   -0.303321
 ---------------------------------------------------------------------
                    Distance matrix (angstroms):
                    1          2          3          4          5
     1  C    0.000000
     2  S    1.773152   0.000000
     3  C    2.805262   1.773152   0.000000
     4  O    2.603331   1.438503   2.603351   0.000000
     5  O    2.603331   1.438503   2.603351   2.489640   0.000000
     6  H    1.081465   2.365735   2.993965   3.511812   2.807584
     7  H    1.081465   2.365735   2.993965   2.807584   3.511812
     8  H    3.735249   2.321799   1.082147   2.847268   2.847268
     9  H    2.993973   2.365739   1.081467   3.511830   2.807603
    10  H    2.993973   2.365739   1.081467   2.807603   3.511830
    11  H    1.082153   2.321808   3.735258   2.847246   2.847246
                    6          7          8          9         10
     6  H    0.000000
     7  H    1.787528   0.000000
     8  H    3.974601   3.974601   0.000000
     9  H    2.778451   3.303795   1.771605   0.000000
    10  H    3.303795   2.778451   1.771605   1.787536   0.000000
    11  H    1.771612   1.771612   4.556105   3.974615   3.974615
                   11
    11  H    0.000000
 Stoichiometry    C2H6O2S
 Framework group  CS[SG(C2H2S),X(H4O2)]
 Deg. of freedom    16
 Full point group                 CS      NOp   2
 Largest Abelian subgroup         CS      NOp   2
 Largest concise Abelian subgroup CS      NOp   2
                         Standard orientation:                         
 ---------------------------------------------------------------------
 Center     Atomic      Atomic             Coordinates (Angstroms)
 Number     Number       Type             X           Y           Z
 ---------------------------------------------------------------------
      1          6           0        1.402648   -0.901646   -0.000000
      2         16           0       -0.000010    0.183074    0.000000
      3          6           0       -1.402614   -0.901717    0.000000
      4          8           0       -0.000010    0.903986    1.244820
      5          8           0       -0.000010    0.903986   -1.244820
      6          1           0        1.389254   -1.510394   -0.893764
      7          1           0        1.389254   -1.510394    0.893764
      8          1           0       -2.278047   -0.265588    0.000000
      9          1           0       -1.389197   -1.510461   -0.893768
     10          1           0       -1.389197   -1.510461    0.893768
     11          1           0        2.278058   -0.265476   -0.000000
 ---------------------------------------------------------------------
 Rotational constants (GHZ):      4.6619211      4.2738760      4.1741954
 Standard basis: CC-pVTZ (5D, 7F)
 There are   162 symmetry adapted cartesian basis functions of A'  symmetry.
 There are   107 symmetry adapted cartesian basis functions of A"  symmetry.
 There are   141 symmetry adapted basis functions of A'  symmetry.
 There are    97 symmetry adapted basis functions of A"  symmetry.
   238 basis functions,   404 primitive gaussians,   269 cartesian basis functions
    25 alpha electrons       25 beta electrons
       nuclear repulsion energy       275.9960747539 Hartrees.
 NAtoms=   11 NActive=   11 NUniq=    8 SFac= 1.89D+00 NAtFMM=   60 NAOKFM=F Big=F
 Integral buffers will be    131072 words long.
 Raffenetti 1 integral format.
 Two-electron integral symmetry is turned on.
 One-electron integrals computed using PRISM.
 NBasis=   238 RedAO= T EigKep=  1.49D-03  NBF=   141    97
 NBsUse=   238 1.00D-06 EigRej= -1.00D+00 NBFU=   141    97
 ExpMin= 1.03D-01 ExpMax= 3.74D+05 ExpMxC= 1.18D+03 IAcc=2 IRadAn=         4 AccDes= 0.00D+00
 Harris functional with IExCor=  205 and IRadAn=       4 diagonalized for initial guess.
 HarFok:  IExCor=  205 AccDes= 0.00D+00 IRadAn=         4 IDoV= 1 UseB2=F ITyADJ=14
 ICtDFT=  3500011 ScaDFX=  1.000000  1.000000  1.000000  1.000000
 FoFCou: FMM=F IPFlag=           0 FMFlag=      100000 FMFlg1=           0
         NFxFlg=           0 DoJE=T BraDBF=F KetDBF=T FulRan=T
         wScrn=  0.000000 ICntrl=     500 IOpCl=  0 I1Cent=   200000004 NGrid=           0
         NMat0=    1 NMatS0=      1 NMatT0=    0 NMatD0=    1 NMtDS0=    0 NMtDT0=    0
 Petite list used in FoFCou.
 Initial guess orbital symmetries:
       Occupied  (A') (A") (A') (A') (A') (A') (A") (A') (A') (A')
                 (A") (A') (A') (A') (A') (A") (A') (A") (A') (A")
                 (A') (A') (A") (A") (A')
       Virtual   (A') (A') (A') (A") (A') (A') (A') (A") (A') (A")
                 (A') (A') (A") (A') (A") (A') (A') (A') (A") (A')
                 (A") (A") (A') (A') (A') (A') (A") (A") (A') (A')
                 (A') (A") (A') (A") (A') (A') (A") (A") (A') (A')
                 (A") (A') (A') (A") (A") (A") (A') (A') (A') (A")
                 (A') (A") (A') (A") (A') (A') (A') (A') (A") (A")
                 (A') (A') (A") (A") (A') (A") (A') (A') (A") (A")
                 (A') (A') (A') (A") (A') (A") (A') (A") (A') (A')
                 (A") (A') (A') (A") (A') (A') (A") (A') (A') (A")
                 (A') (A') (A') (A") (A') (A") (A') (A") (A') (A")
                 (A') (A') (A") (A') (A") (A") (A") (A') (A") (A")
                 (A') (A') (A') (A") (A') (A") (A') (A") (A") (A')
                 (A') (A") (A") (A') (A') (A') (A") (A") (A') (A')
                 (A') (A') (A") (A") (A') (A") (A') (A") (A') (A')
                 (A') (A") (A') (A') (A") (A') (A') (A") (A") (A')
                 (A") (A') (A") (A") (A') (A") (A') (A') (A') (A')
                 (A') (A") (A') (A") (A') (A") (A') (A') (A") (A")
                 (A') (A') (A") (A") (A') (A') (A") (A") (A") (A')
                 (A') (A") (A') (A') (A") (A') (A") (A') (A') (A')
                 (A") (A') (A") (A") (A") (A') (A") (A') (A") (A")
                 (A') (A') (A') (A') (A") (A") (A') (A") (A') (A")
                 (A') (A') (A')
 The electronic state of the initial guess is 1-A'.
 Keep R1 ints in memory in symmetry-blocked form, NReq=607295593.
 Requested convergence on RMS density matrix=1.00D-08 within 128 cycles.
 Requested convergence on MAX density matrix=1.00D-06.
 Requested convergence on             energy=1.00D-06.
 No special actions if energy rises.
 SCF Done:  E(RHF) =  -626.546406869     A.U. after   12 cycles
            NFock= 12  Conv=0.34D-08     -V/T= 2.0005
 ExpMin= 1.03D-01 ExpMax= 3.74D+05 ExpMxC= 1.18D+03 IAcc=3 IRadAn=         5 AccDes= 0.00D+00
 HarFok:  IExCor=  205 AccDes= 0.00D+00 IRadAn=         5 IDoV=-2 UseB2=F ITyADJ=14
 ICtDFT= 12500011 ScaDFX=  1.000000  1.000000  1.000000  1.000000
 Range of M.O.s used for correlation:    10   238
 NBasis=   238 NAE=    25 NBE=    25 NFC=     9 NFV=     0
 NROrb=    229 NOA=    16 NOB=    16 NVA=   213 NVB=   213
 Fully in-core method, ICMem=  1368647866.
 JobTyp=1 Pass  1 fully in-core, NPsUse= 24.
 Spin components of T(2) and E(2):
     alpha-alpha T2 =       0.3808865435D-01 E2=     -0.1262539177D+00
     alpha-beta  T2 =       0.2117662355D+00 E2=     -0.7645472207D+00
     beta-beta   T2 =       0.3808865435D-01 E2=     -0.1262539177D+00
 ANorm=    0.1134876004D+01
 E2 =    -0.1017055056D+01 EUMP2 =    -0.62756346192490D+03

 **********************************************************************

            Population analysis using the SCF density.

 **********************************************************************

 Orbital symmetries:
       Occupied  (A') (A") (A') (A') (A') (A') (A') (A") (A') (A')
                 (A") (A') (A') (A') (A') (A') (A") (A") (A') (A")
                 (A') (A') (A") (A") (A')
       Virtual   (A') (A') (A") (A') (A') (A') (A") (A') (A") (A')
                 (A') (A') (A") (A') (A") (A') (A') (A") (A') (A')
                 (A") (A') (A') (A") (A') (A') (A") (A") (A') (A')
                 (A') (A") (A') (A') (A') (A") (A") (A') (A") (A')
                 (A") (A') (A') (A") (A") (A") (A') (A') (A') (A")
                 (A') (A') (A') (A") (A') (A") (A') (A') (A") (A")
                 (A') (A') (A") (A") (A') (A') (A") (A') (A") (A")
                 (A') (A') (A') (A") (A') (A") (A") (A') (A') (A')
                 (A") (A') (A') (A") (A") (A') (A') (A') (A') (A")
                 (A') (A') (A') (A") (A') (A") (A') (A') (A") (A")
                 (A') (A') (A") (A') (A") (A") (A") (A') (A") (A')
                 (A") (A') (A') (A') (A") (A") (A') (A") (A") (A')
                 (A") (A") (A') (A') (A') (A") (A') (A") (A') (A')
                 (A') (A') (A") (A") (A') (A') (A") (A') (A") (A')
                 (A') (A') (A") (A') (A") (A") (A") (A') (A") (A')
                 (A') (A") (A') (A") (A') (A') (A') (A") (A') (A')
                 (A') (A') (A") (A") (A') (A') (A') (A") (A") (A")
                 (A') (A') (A") (A") (A') (A") (A') (A") (A') (A')
                 (A") (A') (A") (A') (A") (A") (A') (A') (A') (A')
                 (A") (A') (A") (A") (A') (A") (A') (A") (A') (A")
                 (A") (A') (A') (A') (A") (A") (A') (A") (A') (A")
                 (A') (A') (A')
 The electronic state is 1-A'.
 Alpha  occ. eigenvalues --  -92.17354 -20.53488 -20.53486 -11.27259 -11.27258
 Alpha  occ. eigenvalues --   -9.14530  -6.82990  -6.82961  -6.82951  -1.45333
 Alpha  occ. eigenvalues --   -1.33709  -1.07332  -1.01217  -0.81350  -0.68896
 Alpha  occ. eigenvalues --   -0.67536  -0.66584  -0.61686  -0.61430  -0.59713
 Alpha  occ. eigenvalues --   -0.58203  -0.49584  -0.49297  -0.46561  -0.44126
 Alpha virt. eigenvalues --    0.11926   0.16604   0.16697   0.17740   0.21167
 Alpha virt. eigenvalues --    0.21729   0.22880   0.26700   0.27688   0.28149
 Alpha virt. eigenvalues --    0.34065   0.38129   0.38182   0.39413   0.39533
 Alpha virt. eigenvalues --    0.44815   0.49703   0.51763   0.51813   0.54401
 Alpha virt. eigenvalues --    0.55943   0.59776   0.60007   0.60632   0.62412
 Alpha virt. eigenvalues --    0.63820   0.67352   0.70167   0.71181   0.71760
 Alpha virt. eigenvalues --    0.78915   0.81758   0.88299   0.88516   0.89430
 Alpha virt. eigenvalues --    0.90322   0.91588   0.93940   0.95778   0.99170
 Alpha virt. eigenvalues --    1.01469   1.06102   1.06633   1.06929   1.09277
 Alpha virt. eigenvalues --    1.17954   1.19552   1.19712   1.21061   1.21189
 Alpha virt. eigenvalues --    1.24714   1.35071   1.35087   1.35277   1.37402
 Alpha virt. eigenvalues --    1.39208   1.40631   1.44571   1.46079   1.51363
 Alpha virt. eigenvalues --    1.54151   1.54211   1.54468   1.55097   1.55594
 Alpha virt. eigenvalues --    1.69715   1.71359   1.72446   1.76010   1.78057
 Alpha virt. eigenvalues --    1.78783   1.80163   1.84190   1.89673   1.89688
 Alpha virt. eigenvalues --    1.93505   2.00610   2.00761   2.10202   2.11998
 Alpha virt. eigenvalues --    2.22542   2.26019   2.26298   2.33224   2.47191
 Alpha virt. eigenvalues --    2.47591   2.50659   2.54979   2.59250   2.62612
 Alpha virt. eigenvalues --    2.64627   2.66475   2.67250   2.72100   2.72687
 Alpha virt. eigenvalues --    2.72981   2.84482   2.84543   2.86935   2.95008
 Alpha virt. eigenvalues --    3.02383   3.03337   3.06204   3.06316   3.08386
 Alpha virt. eigenvalues --    3.09246   3.13467   3.16597   3.23204   3.25282
 Alpha virt. eigenvalues --    3.27571   3.28698   3.32696   3.36533   3.37310
 Alpha virt. eigenvalues --    3.38481   3.43655   3.46564   3.47612   3.51135
 Alpha virt. eigenvalues --    3.56027   3.57307   3.63592   3.67073   3.69669
 Alpha virt. eigenvalues --    3.69931   3.70078   3.72476   3.76577   3.78963
 Alpha virt. eigenvalues --    3.82457   3.82865   3.87080   3.90020   4.03146
 Alpha virt. eigenvalues --    4.09028   4.11566   4.12226   4.12497   4.13316
 Alpha virt. eigenvalues --    4.20847   4.23850   4.25784   4.26207   4.27609
 Alpha virt. eigenvalues --    4.31008   4.33419   4.36298   4.39031   4.39886
 Alpha virt. eigenvalues --    4.39983   4.41705   4.45676   4.50383   4.54517
 Alpha virt. eigenvalues --    4.54611   4.56434   4.62017   4.71038   4.95400
 Alpha virt. eigenvalues --    5.03673   5.03739   5.05188   5.08646   5.13074
 Alpha virt. eigenvalues --    5.29580   5.30425   5.31987   5.36732   5.38510
 Alpha virt. eigenvalues --    5.38698   5.40116   5.51586   5.52933   5.57379
 Alpha virt. eigenvalues --    5.57564   5.57607   5.57845   5.59437   5.61276
 Alpha virt. eigenvalues --    5.62323   5.63941   5.64596   5.66262   5.66614
 Alpha virt. eigenvalues --    5.74345   5.76549   5.78619   5.81936   6.05876
 Alpha virt. eigenvalues --    6.07303   6.08652   6.14818   6.16445   6.17441
 Alpha virt. eigenvalues --    6.18034   6.22609   6.32903   6.80470   6.83879
 Alpha virt. eigenvalues --    6.85142   6.94799   6.98017   7.28054   7.29324
 Alpha virt. eigenvalues --    7.37797   7.38883   7.48584   7.57753  10.39763
 Alpha virt. eigenvalues --   10.75838  13.71869  13.81206
          Condensed to atoms (all electrons):
               1          2          3          4          5          6
     1  C    4.908908   0.323786  -0.048170  -0.046375  -0.046375   0.395950
     2  S    0.323786  13.081506   0.323784   0.679699   0.679699  -0.012902
     3  C   -0.048170   0.323784   4.908903  -0.046372  -0.046372   0.000939
     4  O   -0.046375   0.679699  -0.046372   8.009837  -0.036940   0.002695
     5  O   -0.046375   0.679699  -0.046372  -0.036940   8.009837   0.000525
     6  H    0.395950  -0.012902   0.000939   0.002695   0.000525   0.548729
     7  H    0.395950  -0.012902   0.000939   0.000525   0.002695  -0.031389
     8  H    0.003789  -0.010817   0.403103   0.000815   0.000815  -0.000138
     9  H    0.000939  -0.012902   0.395950   0.002694   0.000526  -0.002221
    10  H    0.000939  -0.012902   0.395950   0.000526   0.002694   0.000688
    11  H    0.403103  -0.010817   0.003789   0.000815   0.000815  -0.018986
               7          8          9         10         11
     1  C    0.395950   0.003789   0.000939   0.000939   0.403103
     2  S   -0.012902  -0.010817  -0.012902  -0.012902  -0.010817
     3  C    0.000939   0.403103   0.395950   0.395950   0.003789
     4  O    0.000525   0.000815   0.002694   0.000526   0.000815
     5  O    0.002695   0.000815   0.000526   0.002694   0.000815
     6  H   -0.031389  -0.000138  -0.002221   0.000688  -0.018986
     7  H    0.548729  -0.000138   0.000688  -0.002221  -0.018986
     8  H   -0.000138   0.504908  -0.018986  -0.018986  -0.000120
     9  H    0.000688  -0.018986   0.548725  -0.031388  -0.000138
    10  H   -0.002221  -0.018986  -0.031388   0.548725  -0.000138
    11  H   -0.018986  -0.000120  -0.000138  -0.000138   0.504908
 Mulliken charges:
               1
     1  C   -0.292444
     2  S    0.984767
     3  C   -0.292443
     4  O   -0.567920
     5  O   -0.567920
     6  H    0.116111
     7  H    0.116111
     8  H    0.135756
     9  H    0.116113
    10  H    0.116113
    11  H    0.135756
 Sum of Mulliken charges =  -0.00000
 Mulliken charges with hydrogens summed into heavy atoms:
               1
     1  C    0.075533
     2  S    0.984767
     3  C    0.075539
     4  O   -0.567920
     5  O   -0.567920
 Electronic spatial extent (au):  <R**2>=            449.7832
 Charge=             -0.0000 electrons
 Dipole moment (field-independent basis, Debye):
    X=             -0.0000    Y=             -5.0852    Z=             -0.0000  Tot=              5.0852
 Quadrupole moment (field-independent basis, Debye-Ang):
   XX=            -31.0968   YY=            -38.4901   ZZ=            -43.8746
   XY=              0.0002   XZ=             -0.0000   YZ=             -0.0000
 Traceless Quadrupole moment (field-independent basis, Debye-Ang):
   XX=              6.7237   YY=             -0.6696   ZZ=             -6.0541
   XY=              0.0002   XZ=             -0.0000   YZ=             -0.0000
 Octapole moment (field-independent basis, Debye-Ang**2):
  XXX=             -0.0002  YYY=             -1.5195  ZZZ=             -0.0000  XYY=             -0.0002
  XXY=              0.2008  XXZ=              0.0000  XZZ=              0.0001  YZZ=             -8.5383
  YYZ=              0.0000  XYZ=             -0.0000
 Hexadecapole moment (field-independent basis, Debye-Ang**3):
 XXXX=           -209.3300 YYYY=           -184.5040 ZZZZ=           -166.1248 XXXY=             -0.0005
 XXXZ=             -0.0000 YYYX=             -0.0008 YYYZ=              0.0000 ZZZX=             -0.0000
 ZZZY=             -0.0000 XXYY=            -66.7936 XXZZ=            -64.0523 YYZZ=            -57.2725
 XXYZ=              0.0000 YYXZ=              0.0000 ZZXY=             -0.0002
 N-N= 2.759960747539D+02 E-N=-2.036395243894D+03  KE= 6.262069903597D+02
 Symmetry A'   KE= 5.085545396089D+02
 Symmetry A"   KE= 1.176524507507D+02
 1\1\GINC-C7102\SP\RMP2-FC\CC-pVTZ\C2H6O2S1\ROOT\10-Jul-2018\0\\# mp2/c
 c-pVTZ\\diMe-sulfone\\0,1\C\S,1,1.7731517\C,2,1.77315242,1,104.5652768
 1\O,2,1.43850302,1,107.85322077,3,114.61358001,0\O,2,1.43850302,1,107.
 85322077,4,130.77283997,0\H,1,1.08146549,2,109.54517773,4,175.8926456,
 0\H,1,1.08146549,2,109.54517773,4,53.33451443,0\H,3,1.08214742,2,106.2
 7735522,1,180.,0\H,3,1.08146683,2,109.54537717,1,-61.27953328,0\H,3,1.
 08146683,2,109.54537717,1,61.27953328,0\H,1,1.08215292,2,106.27776553,
 4,-65.38641999,0\\Version=ES64L-G09RevE.01\State=1-A'\HF=-626.5464069\
 MP2=-627.5634619\RMSD=3.439e-09\PG=CS [SG(C2H2S1),X(H4O2)]\\@


 ONE BIG VICE IN A MAN IS APT TO KEEP OUT MANY SMALLER ONES.

                           -- BRET HARTE
 Job cpu time:       0 days  0 hours  8 minutes  6.5 seconds.
 File lengths (MBytes):  RWF=     23 Int=      0 D2E=      0 Chk=      4 Scr=      1
 Normal termination of Gaussian 09 at Tue Jul 10 16:37:24 2018.
