 Entering Gaussian System, Link 0=g09
 Input=37.gjf
 Output=37.out
 Initial command:
 /usr/local/g09/l1.exe /home/scratch/stylianakis/Gau-24245.inp -scrdir=/home/scratch/stylianakis/
 Entering Link 1 = /usr/local/g09/l1.exe PID=     24246.
  
 Copyright (c) 1988,1990,1992,1993,1995,1998,2003,2009, Gaussian, Inc.
                  All Rights Reserved.
  
 This is part of the Gaussian(R) 09 program.  It is based on
 the Gaussian(R) 03 system (copyright 2003, Gaussian, Inc.),
 the Gaussian(R) 98 system (copyright 1998, Gaussian, Inc.),
 the Gaussian(R) 94 system (copyright 1995, Gaussian, Inc.),
 the Gaussian 92(TM) system (copyright 1992, Gaussian, Inc.),
 the Gaussian 90(TM) system (copyright 1990, Gaussian, Inc.),
 the Gaussian 88(TM) system (copyright 1988, Gaussian, Inc.),
 the Gaussian 86(TM) system (copyright 1986, Carnegie Mellon
 University), and the Gaussian 82(TM) system (copyright 1983,
 Carnegie Mellon University). Gaussian is a federally registered
 trademark of Gaussian, Inc.
  
 This software contains proprietary and confidential information,
 including trade secrets, belonging to Gaussian, Inc.
  
 This software is provided under written license and may be
 used, copied, transmitted, or stored only in accord with that
 written license.
  
 The following legend is applicable only to US Government
 contracts under FAR:
  
                    RESTRICTED RIGHTS LEGEND
  
 Use, reproduction and disclosure by the US Government is
 subject to restrictions as set forth in subparagraphs (a)
 and (c) of the Commercial Computer Software - Restricted
 Rights clause in FAR 52.227-19.
  
 Gaussian, Inc.
 340 Quinnipiac St., Bldg. 40, Wallingford CT 06492
  
  
 ---------------------------------------------------------------
 Warning -- This program may not be used in any manner that
 competes with the business of Gaussian, Inc. or will provide
 assistance to any competitor of Gaussian, Inc.  The licensee
 of this program is prohibited from giving any competitor of
 Gaussian, Inc. access to this program.  By using this program,
 the user acknowledges that Gaussian, Inc. is engaged in the
 business of creating and licensing software in the field of
 computational chemistry and represents and warrants to the
 licensee that it is not a competitor of Gaussian, Inc. and that
 it will not use this program in any manner prohibited above.
 ---------------------------------------------------------------
  

 Cite this work as:
 Gaussian 09, Revision A.01,
 M. J. Frisch, G. W. Trucks, H. B. Schlegel, G. E. Scuseria, 
 M. A. Robb, J. R. Cheeseman, G. Scalmani, V. Barone, B. Mennucci, 
 G. A. Petersson, H. Nakatsuji, M. Caricato, X. Li, H. P. Hratchian, 
 A. F. Izmaylov, J. Bloino, G. Zheng, J. L. Sonnenberg, M. Hada, 
 M. Ehara, K. Toyota, R. Fukuda, J. Hasegawa, M. Ishida, T. Nakajima, 
 Y. Honda, O. Kitao, H. Nakai, T. Vreven, J. A. Montgomery, Jr., 
 J. E. Peralta, F. Ogliaro, M. Bearpark, J. J. Heyd, E. Brothers, 
 K. N. Kudin, V. N. Staroverov, R. Kobayashi, J. Normand, 
 K. Raghavachari, A. Rendell, J. C. Burant, S. S. Iyengar, J. Tomasi, 
 M. Cossi, N. Rega, J. M. Millam, M. Klene, J. E. Knox, J. B. Cross, 
 V. Bakken, C. Adamo, J. Jaramillo, R. Gomperts, R. E. Stratmann, 
 O. Yazyev, A. J. Austin, R. Cammi, C. Pomelli, J. W. Ochterski, 
 R. L. Martin, K. Morokuma, V. G. Zakrzewski, G. A. Voth, 
 P. Salvador, J. J. Dannenberg, S. Dapprich, A. D. Daniels, 
 O. Farkas, J. B. Foresman, J. V. Ortiz, J. Cioslowski, 
 and D. J. Fox, Gaussian, Inc., Wallingford CT, 2009.
 
 ******************************************
 Gaussian 09:  EM64L-G09RevA.01  8-May-2009
                 4-Jun-2016 
 ******************************************
 %mem=8000Mb
 %nproc=8
 Will use up to    8 processors via shared memory.
 -------------
 # mp2/cc-pVTZ
 -------------
 1/38=1/1;
 2/12=2,17=6,18=5,40=1/2;
 3/5=16,6=1,11=9,16=1,25=1,30=1/1,2,3;
 4//1;
 5/5=2,38=5/2;
 8/10=1/1;
 9/16=-3/6;
 6/7=2,8=2,9=2,10=2/1;
 99/5=1,9=1/99;
 -----------------
 ethanethiol-g.hin
 -----------------
 Symbolic Z-matrix:
 Charge =  0 Multiplicity = 1
 C                    -0.38646  -1.34545  -0.1544 
 S                    -0.31211   0.54167  -0.36905 
 Xx                    0.84295   0.87412  -0.23018 
 Xx                   -0.55584   0.77896  -1.53017 
 H                    -1.0605    1.37819   0.37173 
 H                    -1.4262   -1.70458  -0.33466 
 H                     0.28651  -1.83381  -0.89679 
 C                     0.05988  -1.68211   1.2729 
 H                     0.03301  -2.78356   1.44208 
 H                     1.10326  -1.34097   1.46725 
 H                    -0.60791  -1.21269   2.03215 
 
                          Input orientation:                          
 ---------------------------------------------------------------------
 Center     Atomic      Atomic             Coordinates (Angstroms)
 Number     Number       Type             X           Y           Z
 ---------------------------------------------------------------------
      1          6           0       -0.386460   -1.345450   -0.154400
      2         16           0       -0.312110    0.541670   -0.369050
      3          1           0       -1.060500    1.378190    0.371730
      4          1           0       -1.426200   -1.704580   -0.334660
      5          1           0        0.286510   -1.833810   -0.896790
      6          6           0        0.059880   -1.682110    1.272900
      7          1           0        0.033010   -2.783560    1.442080
      8          1           0        1.103260   -1.340970    1.467250
      9          1           0       -0.607910   -1.212690    2.032150
 ---------------------------------------------------------------------
                    Distance matrix (angstroms):
                    1          2          3          4          5
     1  C    0.000000
     2  S    1.900743   0.000000
     3  H    2.854708   1.344845   0.000000
     4  H    1.114687   2.507592   3.183739   0.000000
     5  H    1.114687   2.505945   3.706821   1.807226   0.000000
     6  C    1.532888   2.789189   3.381242   2.189335   2.186762
     7  H    2.189261   3.802164   4.434138   2.539743   2.537046
     8  H    2.202052   2.986570   3.643604   3.126861   2.549246
     9  H    2.201742   2.988484   3.110384   2.552125   3.124815
                    6          7          8          9
     6  C    0.000000
     7  H    1.114691   0.000000
     8  H    1.114805   1.796423   0.000000
     9  H    1.114791   1.796272   1.806563   0.000000
 Stoichiometry    C2H6S
 Framework group  C1[X(C2H6S)]
 Deg. of freedom    21
 Full point group                 C1      NOp   1
 Largest Abelian subgroup         C1      NOp   1
 Largest concise Abelian subgroup C1      NOp   1
                         Standard orientation:                         
 ---------------------------------------------------------------------
 Center     Atomic      Atomic             Coordinates (Angstroms)
 Number     Number       Type             X           Y           Z
 ---------------------------------------------------------------------
      1          6           0       -0.569885    0.700279    0.079715
      2         16           0        1.157267   -0.077677   -0.076983
      3          1           0        1.617023   -0.987016    0.800704
      4          1           0       -0.660447    1.222489    1.060339
      5          1           0       -0.718053    1.450221   -0.731556
      6          6           0       -1.610515   -0.419670   -0.032307
      7          1           0       -2.642002   -0.005746    0.052778
      8          1           0       -1.542816   -0.945444   -1.013005
      9          1           0       -1.487573   -1.175324    0.778021
 ---------------------------------------------------------------------
 Rotational constants (GHZ):     26.1866133      5.2185708      4.6894749
 Standard basis: CC-pVTZ (5D, 7F)
 There are   178 symmetry adapted basis functions of A   symmetry.
 Integral buffers will be    131072 words long.
 Raffenetti 1 integral format.
 Two-electron integral symmetry is turned on.
   178 basis functions,   300 primitive gaussians,   199 cartesian basis functions
    17 alpha electrons       17 beta electrons
       nuclear repulsion energy       104.9322151211 Hartrees.
 NAtoms=    9 NActive=    9 NUniq=    9 SFac= 7.50D-01 NAtFMM=   80 NAOKFM=F Big=F
 One-electron integrals computed using PRISM.
 NBasis=   178 RedAO= T  NBF=   178
 NBsUse=   178 1.00D-06 NBFU=   178
 Harris functional with IExCor=  205 diagonalized for initial guess.
 ExpMin= 1.03D-01 ExpMax= 3.74D+05 ExpMxC= 1.18D+03 IAcc=2 IRadAn=         0 AccDes= 0.00D+00
 HarFok:  IExCor=  205 AccDes= 0.00D+00 IRadAn=         0 IDoV= 1
 ScaDFX=  1.000000  1.000000  1.000000  1.000000
 FoFCou: FMM=F IPFlag=           0 FMFlag=      100000 FMFlg1=           0
         NFxFlg=           0 DoJE=T BraDBF=F KetDBF=T FulRan=T
         Omega=  0.000000  0.000000  1.000000  0.000000  0.000000 ICntrl=     500 IOpCl=  0
         NMat0=    1 NMatS0=    1 NMatT0=    0 NMatD0=    1 NMtDS0=    0 NMtDT0=    0
         I1Cent=           4 NGrid=           0.
 Petite list used in FoFCou.
 Initial guess orbital symmetries:
       Occupied  (A) (A) (A) (A) (A) (A) (A) (A) (A) (A) (A) (A)
                 (A) (A) (A) (A) (A)
       Virtual   (A) (A) (A) (A) (A) (A) (A) (A) (A) (A) (A) (A)
                 (A) (A) (A) (A) (A) (A) (A) (A) (A) (A) (A) (A)
                 (A) (A) (A) (A) (A) (A) (A) (A) (A) (A) (A) (A)
                 (A) (A) (A) (A) (A) (A) (A) (A) (A) (A) (A) (A)
                 (A) (A) (A) (A) (A) (A) (A) (A) (A) (A) (A) (A)
                 (A) (A) (A) (A) (A) (A) (A) (A) (A) (A) (A) (A)
                 (A) (A) (A) (A) (A) (A) (A) (A) (A) (A) (A) (A)
                 (A) (A) (A) (A) (A) (A) (A) (A) (A) (A) (A) (A)
                 (A) (A) (A) (A) (A) (A) (A) (A) (A) (A) (A) (A)
                 (A) (A) (A) (A) (A) (A) (A) (A) (A) (A) (A) (A)
                 (A) (A) (A) (A) (A) (A) (A) (A) (A) (A) (A) (A)
                 (A) (A) (A) (A) (A) (A) (A) (A) (A) (A) (A) (A)
                 (A) (A) (A) (A) (A) (A) (A) (A) (A) (A) (A) (A)
                 (A) (A) (A) (A) (A)
 The electronic state of the initial guess is 1-A.
 Requested convergence on RMS density matrix=1.00D-08 within 128 cycles.
 Requested convergence on MAX density matrix=1.00D-06.
 Requested convergence on             energy=1.00D-06.
 No special actions if energy rises.
 Keep R1 ints in memory in canonical form, NReq=202154863.
 SCF Done:  E(RHF) =  -476.777948769     A.U. after   12 cycles
             Convg  =    0.4379D-08             -V/T =  2.0008
 ExpMin= 1.03D-01 ExpMax= 3.74D+05 ExpMxC= 1.18D+03 IAcc=3 IRadAn=         5 AccDes= 0.00D+00
 HarFok:  IExCor=  205 AccDes= 0.00D+00 IRadAn=         5 IDoV=-2
 ScaDFX=  1.000000  1.000000  1.000000  1.000000
 Range of M.O.s used for correlation:     8   178
 NBasis=   178 NAE=    17 NBE=    17 NFC=     7 NFV=     0
 NROrb=    171 NOA=    10 NOB=    10 NVA=   161 NVB=   161

 **** Warning!!: The largest alpha MO coefficient is  0.11493055D+02

 Fully in-core method, ICMem=   418253266.
 JobTyp=1 Pass  1 fully in-core, NPsUse=  8.
 Spin components of T(2) and E(2):
     alpha-alpha T2 =       0.2253504576D-01 E2=     -0.5850301595D-01
     alpha-beta  T2 =       0.1456798327D+00 E2=     -0.4224491829D+00
     beta-beta   T2 =       0.2253504576D-01 E2=     -0.5850301595D-01
 ANorm=    0.1091214885D+01
 E2 =    -0.5394552149D+00 EUMP2 =    -0.47731740398404D+03

 **********************************************************************

            Population analysis using the SCF density.

 **********************************************************************

 Orbital symmetries:
       Occupied  (A) (A) (A) (A) (A) (A) (A) (A) (A) (A) (A) (A)
                 (A) (A) (A) (A) (A)
       Virtual   (A) (A) (A) (A) (A) (A) (A) (A) (A) (A) (A) (A)
                 (A) (A) (A) (A) (A) (A) (A) (A) (A) (A) (A) (A)
                 (A) (A) (A) (A) (A) (A) (A) (A) (A) (A) (A) (A)
                 (A) (A) (A) (A) (A) (A) (A) (A) (A) (A) (A) (A)
                 (A) (A) (A) (A) (A) (A) (A) (A) (A) (A) (A) (A)
                 (A) (A) (A) (A) (A) (A) (A) (A) (A) (A) (A) (A)
                 (A) (A) (A) (A) (A) (A) (A) (A) (A) (A) (A) (A)
                 (A) (A) (A) (A) (A) (A) (A) (A) (A) (A) (A) (A)
                 (A) (A) (A) (A) (A) (A) (A) (A) (A) (A) (A) (A)
                 (A) (A) (A) (A) (A) (A) (A) (A) (A) (A) (A) (A)
                 (A) (A) (A) (A) (A) (A) (A) (A) (A) (A) (A) (A)
                 (A) (A) (A) (A) (A) (A) (A) (A) (A) (A) (A) (A)
                 (A) (A) (A) (A) (A) (A) (A) (A) (A) (A) (A) (A)
                 (A) (A) (A) (A) (A)
 The electronic state is 1-A.
 Alpha  occ. eigenvalues --  -91.94132 -11.28766 -11.23649  -8.94320  -6.62465
 Alpha  occ. eigenvalues --   -6.62377  -6.62289  -1.05627  -0.92972  -0.82528
 Alpha  occ. eigenvalues --   -0.62820  -0.59717  -0.54852  -0.51966  -0.50827
 Alpha  occ. eigenvalues --   -0.40437  -0.35149
 Alpha virt. eigenvalues --    0.12578   0.13770   0.17699   0.18864   0.19749
 Alpha virt. eigenvalues --    0.22454   0.23646   0.30368   0.32108   0.36966
 Alpha virt. eigenvalues --    0.38861   0.39765   0.42612   0.44726   0.46686
 Alpha virt. eigenvalues --    0.47866   0.54642   0.56606   0.57398   0.58056
 Alpha virt. eigenvalues --    0.62353   0.62667   0.63670   0.63873   0.64583
 Alpha virt. eigenvalues --    0.67745   0.68294   0.75568   0.80250   0.83209
 Alpha virt. eigenvalues --    0.91235   0.94226   0.94848   0.99927   1.05910
 Alpha virt. eigenvalues --    1.06056   1.08910   1.11540   1.15131   1.21767
 Alpha virt. eigenvalues --    1.24615   1.25577   1.26086   1.28885   1.30602
 Alpha virt. eigenvalues --    1.32774   1.34683   1.36676   1.43911   1.47189
 Alpha virt. eigenvalues --    1.48131   1.50270   1.52365   1.56098   1.57603
 Alpha virt. eigenvalues --    1.64952   1.71209   1.73804   1.77740   1.88408
 Alpha virt. eigenvalues --    1.91156   1.92921   1.97919   2.02280   2.06399
 Alpha virt. eigenvalues --    2.09891   2.14559   2.18549   2.20668   2.25605
 Alpha virt. eigenvalues --    2.29777   2.35542   2.50734   2.53381   2.59099
 Alpha virt. eigenvalues --    2.63922   2.68574   2.70681   2.74093   2.79188
 Alpha virt. eigenvalues --    2.86009   2.87475   2.90733   2.94320   3.04158
 Alpha virt. eigenvalues --    3.08348   3.08630   3.13473   3.18483   3.25581
 Alpha virt. eigenvalues --    3.26333   3.28495   3.31533   3.32372   3.37391
 Alpha virt. eigenvalues --    3.40064   3.41956   3.47083   3.49187   3.55542
 Alpha virt. eigenvalues --    3.56011   3.60502   3.61551   3.64103   3.70364
 Alpha virt. eigenvalues --    3.71300   3.72656   3.78031   3.79615   3.81330
 Alpha virt. eigenvalues --    3.86967   3.89575   3.94354   3.99166   4.02336
 Alpha virt. eigenvalues --    4.07994   4.09098   4.10837   4.13301   4.16261
 Alpha virt. eigenvalues --    4.17487   4.19191   4.29869   4.30246   4.31172
 Alpha virt. eigenvalues --    4.32346   4.34860   4.35364   4.36863   4.38717
 Alpha virt. eigenvalues --    4.43724   4.48287   4.52887   4.54515   4.62206
 Alpha virt. eigenvalues --    4.67438   4.72366   4.76592   4.86744   5.01280
 Alpha virt. eigenvalues --    5.05968   5.10544   5.11206   5.14117   5.22001
 Alpha virt. eigenvalues --    5.25478   5.30457   5.48651   5.49498   5.55380
 Alpha virt. eigenvalues --    5.60970   5.61032   5.65176   5.73625   5.80020
 Alpha virt. eigenvalues --    5.96942   6.22613   6.24746   6.25491  11.91706
 Alpha virt. eigenvalues --   13.51843
          Condensed to atoms (all electrons):
              1          2          3          4          5          6
     1  C    4.790132   0.267519  -0.008043   0.418186   0.415363   0.334332
     2  S    0.267519  15.764616   0.344940  -0.032112  -0.019284  -0.073507
     3  H   -0.008043   0.344940   0.559385  -0.001485   0.001152  -0.003106
     4  H    0.418186  -0.032112  -0.001485   0.568108  -0.031604  -0.032196
     5  H    0.415363  -0.019284   0.001152  -0.031604   0.547871  -0.032831
     6  C    0.334332  -0.073507  -0.003106  -0.032196  -0.032831   4.823402
     7  H   -0.035470   0.008645  -0.000099  -0.003244  -0.003962   0.404046
     8  H   -0.032786  -0.000329  -0.000168   0.006287  -0.004184   0.413376
     9  H   -0.031955  -0.003234   0.000921  -0.004435   0.005580   0.411607
              7          8          9
     1  C   -0.035470  -0.032786  -0.031955
     2  S    0.008645  -0.000329  -0.003234
     3  H   -0.000099  -0.000168   0.000921
     4  H   -0.003244   0.006287  -0.004435
     5  H   -0.003962  -0.004184   0.005580
     6  C    0.404046   0.413376   0.411607
     7  H    0.603421  -0.030092  -0.029615
     8  H   -0.030092   0.573772  -0.028320
     9  H   -0.029615  -0.028320   0.589506
 Mulliken atomic charges:
              1
     1  C   -0.117279
     2  S   -0.257253
     3  H    0.106503
     4  H    0.112494
     5  H    0.121901
     6  C   -0.245122
     7  H    0.086370
     8  H    0.102443
     9  H    0.089944
 Sum of Mulliken atomic charges =   0.00000
 Mulliken charges with hydrogens summed into heavy atoms:
              1
     1  C    0.117116
     2  S   -0.150750
     6  C    0.033634
 Sum of Mulliken charges with hydrogens summed into heavy atoms =   0.00000
 Electronic spatial extent (au):  <R**2>=            309.0023
 Charge=              0.0000 electrons
 Dipole moment (field-independent basis, Debye):
    X=             -1.7677    Y=              0.0196    Z=              0.9127  Tot=              1.9895
 Quadrupole moment (field-independent basis, Debye-Ang):
   XX=            -29.0081   YY=            -27.0229   ZZ=            -27.7046
   XY=             -2.6586   XZ=              1.6521   YZ=             -1.6073
 Traceless Quadrupole moment (field-independent basis, Debye-Ang):
   XX=             -1.0963   YY=              0.8890   ZZ=              0.2073
   XY=             -2.6586   XZ=              1.6521   YZ=             -1.6073
 Octapole moment (field-independent basis, Debye-Ang**2):
  XXX=             -0.7227  YYY=              0.7662  ZZZ=              1.2160  XYY=             -0.2197
  XXY=             -4.0874  XXZ=              2.3187  XZZ=             -0.9315  YZZ=              0.4043
  YYZ=              0.7859  XYZ=             -1.8936
 Hexadecapole moment (field-independent basis, Debye-Ang**3):
 XXXX=           -301.8951 YYYY=            -84.8166 ZZZZ=            -51.1918 XXXY=            -14.2252
 XXXZ=              4.4264 YYYX=             -4.5716 YYYZ=             -3.6308 ZZZX=              2.3169
 ZZZY=             -1.2924 XXYY=            -63.3410 XXZZ=            -60.2557 YYZZ=            -20.0257
 XXYZ=             -3.4304 YYXZ=              2.1355 ZZXY=             -1.2527
 N-N= 1.049322151211D+02 E-N=-1.340517379222D+03  KE= 4.763948434123D+02
 1\1\GINC-ROCK\SP\RMP2-FC\CC-pVTZ\C2H6S1\STYLIANAKIS\04-Jun-2016\0\\# m
 p2/cc-pVTZ\\ethanethiol-g.hin\\0,1\C,0,-0.38646,-1.34545,-0.1544\S,0,-
 0.31211,0.54167,-0.36905\X,0,0.84295,0.87412,-0.23018\X,0,-0.55584,0.7
 7896,-1.53017\H,0,-1.0605,1.37819,0.37173\H,0,-1.4262,-1.70458,-0.3346
 6\H,0,0.28651,-1.83381,-0.89679\C,0,0.05988,-1.68211,1.2729\H,0,0.0330
 1,-2.78356,1.44208\H,0,1.10326,-1.34097,1.46725\H,0,-0.60791,-1.21269,
 2.03215\\Version=EM64L-G09RevA.01\State=1-A\HF=-476.7779488\MP2=-477.3
 17404\RMSD=4.379e-09\PG=C01 [X(C2H6S1)]\\@


 HE WHO LOVES TO READ, AND KNOWS HOW TO REFLECT,
 HAS LAID BY A PERPETUAL FEAST FOR HIS OLD AGE.
 -- UNCLE ESEK, "SCRIBNER'S MONTHLY", SEPT. 1880
 Job cpu time:  0 days  0 hours  8 minutes 26.9 seconds.
 File lengths (MBytes):  RWF=     15 Int=      0 D2E=      0 Chk=      2 Scr=      1
 Normal termination of Gaussian 09 at Sat Jun  4 22:07:30 2016.
