 Entering Gaussian System, Link 0=g09
 Input=38.gjf
 Output=38.out
 Initial command:
 /usr/local/g09/l1.exe /home/scratch/stylianakis/Gau-24396.inp -scrdir=/home/scratch/stylianakis/
 Entering Link 1 = /usr/local/g09/l1.exe PID=     24397.
  
 Copyright (c) 1988,1990,1992,1993,1995,1998,2003,2009, Gaussian, Inc.
                  All Rights Reserved.
  
 This is part of the Gaussian(R) 09 program.  It is based on
 the Gaussian(R) 03 system (copyright 2003, Gaussian, Inc.),
 the Gaussian(R) 98 system (copyright 1998, Gaussian, Inc.),
 the Gaussian(R) 94 system (copyright 1995, Gaussian, Inc.),
 the Gaussian 92(TM) system (copyright 1992, Gaussian, Inc.),
 the Gaussian 90(TM) system (copyright 1990, Gaussian, Inc.),
 the Gaussian 88(TM) system (copyright 1988, Gaussian, Inc.),
 the Gaussian 86(TM) system (copyright 1986, Carnegie Mellon
 University), and the Gaussian 82(TM) system (copyright 1983,
 Carnegie Mellon University). Gaussian is a federally registered
 trademark of Gaussian, Inc.
  
 This software contains proprietary and confidential information,
 including trade secrets, belonging to Gaussian, Inc.
  
 This software is provided under written license and may be
 used, copied, transmitted, or stored only in accord with that
 written license.
  
 The following legend is applicable only to US Government
 contracts under FAR:
  
                    RESTRICTED RIGHTS LEGEND
  
 Use, reproduction and disclosure by the US Government is
 subject to restrictions as set forth in subparagraphs (a)
 and (c) of the Commercial Computer Software - Restricted
 Rights clause in FAR 52.227-19.
  
 Gaussian, Inc.
 340 Quinnipiac St., Bldg. 40, Wallingford CT 06492
  
  
 ---------------------------------------------------------------
 Warning -- This program may not be used in any manner that
 competes with the business of Gaussian, Inc. or will provide
 assistance to any competitor of Gaussian, Inc.  The licensee
 of this program is prohibited from giving any competitor of
 Gaussian, Inc. access to this program.  By using this program,
 the user acknowledges that Gaussian, Inc. is engaged in the
 business of creating and licensing software in the field of
 computational chemistry and represents and warrants to the
 licensee that it is not a competitor of Gaussian, Inc. and that
 it will not use this program in any manner prohibited above.
 ---------------------------------------------------------------
  

 Cite this work as:
 Gaussian 09, Revision A.01,
 M. J. Frisch, G. W. Trucks, H. B. Schlegel, G. E. Scuseria, 
 M. A. Robb, J. R. Cheeseman, G. Scalmani, V. Barone, B. Mennucci, 
 G. A. Petersson, H. Nakatsuji, M. Caricato, X. Li, H. P. Hratchian, 
 A. F. Izmaylov, J. Bloino, G. Zheng, J. L. Sonnenberg, M. Hada, 
 M. Ehara, K. Toyota, R. Fukuda, J. Hasegawa, M. Ishida, T. Nakajima, 
 Y. Honda, O. Kitao, H. Nakai, T. Vreven, J. A. Montgomery, Jr., 
 J. E. Peralta, F. Ogliaro, M. Bearpark, J. J. Heyd, E. Brothers, 
 K. N. Kudin, V. N. Staroverov, R. Kobayashi, J. Normand, 
 K. Raghavachari, A. Rendell, J. C. Burant, S. S. Iyengar, J. Tomasi, 
 M. Cossi, N. Rega, J. M. Millam, M. Klene, J. E. Knox, J. B. Cross, 
 V. Bakken, C. Adamo, J. Jaramillo, R. Gomperts, R. E. Stratmann, 
 O. Yazyev, A. J. Austin, R. Cammi, C. Pomelli, J. W. Ochterski, 
 R. L. Martin, K. Morokuma, V. G. Zakrzewski, G. A. Voth, 
 P. Salvador, J. J. Dannenberg, S. Dapprich, A. D. Daniels, 
 O. Farkas, J. B. Foresman, J. V. Ortiz, J. Cioslowski, 
 and D. J. Fox, Gaussian, Inc., Wallingford CT, 2009.
 
 ******************************************
 Gaussian 09:  EM64L-G09RevA.01  8-May-2009
                 4-Jun-2016 
 ******************************************
 %mem=8000Mb
 %nproc=8
 Will use up to    8 processors via shared memory.
 -------------
 # mp2/cc-pVTZ
 -------------
 1/38=1/1;
 2/12=2,17=6,18=5,40=1/2;
 3/5=16,6=1,11=9,16=1,25=1,30=1/1,2,3;
 4//1;
 5/5=2,38=5/2;
 8/10=1/1;
 9/16=-3/6;
 6/7=2,8=2,9=2,10=2/1;
 99/5=1,9=1/99;
 -------------------
 ethanethiol-ecl.hin
 -------------------
 Symbolic Z-matrix:
 Charge =  0 Multiplicity = 1
 C                    -0.43603  -1.27895  -0.31377 
 S                    -0.36731   0.60677  -0.55914 
 Xx                    0.78717   0.94436  -0.42814 
 Xx                   -0.61339   0.82432  -1.72363 
 H                    -1.11628   1.45421   0.16855 
 H                    -1.47575  -1.63372  -0.50266 
 H                     0.22737  -1.76569  -1.06579 
 C                     0.01236  -1.63137   1.11351 
 H                     0.28847  -0.74401   1.72764 
 H                    -0.79423  -2.16765   1.66518 
 H                     0.9002   -2.30525   1.10025 
 
                          Input orientation:                          
 ---------------------------------------------------------------------
 Center     Atomic      Atomic             Coordinates (Angstroms)
 Number     Number       Type             X           Y           Z
 ---------------------------------------------------------------------
      1          6           0       -0.436030   -1.278950   -0.313770
      2         16           0       -0.367310    0.606770   -0.559140
      3          1           0       -1.116280    1.454210    0.168550
      4          1           0       -1.475750   -1.633720   -0.502660
      5          1           0        0.227370   -1.765690   -1.065790
      6          6           0        0.012360   -1.631370    1.113510
      7          1           0        0.288470   -0.744010    1.727640
      8          1           0       -0.794230   -2.167650    1.665180
      9          1           0        0.900200   -2.305250    1.100250
 ---------------------------------------------------------------------
                    Distance matrix (angstroms):
                    1          2          3          4          5
     1  C    0.000000
     2  S    1.902858   0.000000
     3  H    2.857540   1.344858   0.000000
     4  H    1.114701   2.500325   3.180417   0.000000
     5  H    1.114697   2.497780   3.700912   1.798652   0.000000
     6  C    1.537004   2.819783   3.418711   2.196926   2.193996
     7  H    2.231236   2.735693   3.039121   2.979647   2.975032
     8  H    2.198713   3.581517   3.932110   2.334327   2.943371
     9  H    2.199603   3.583297   4.366669   2.943707   2.331428
                    6          7          8          9
     6  C    0.000000
     7  H    1.113912   0.000000
     8  H    1.114685   1.789662   0.000000
     9  H    1.114697   1.790336   1.791416   0.000000
 Stoichiometry    C2H6S
 Framework group  C1[X(C2H6S)]
 Deg. of freedom    21
 Full point group                 C1      NOp   1
 Largest Abelian subgroup         C1      NOp   1
 Largest concise Abelian subgroup C1      NOp   1
                         Standard orientation:                         
 ---------------------------------------------------------------------
 Center     Atomic      Atomic             Coordinates (Angstroms)
 Number     Number       Type             X           Y           Z
 ---------------------------------------------------------------------
      1          6           0       -0.564741    0.691233    0.079109
      2         16           0        1.167601   -0.080390   -0.077287
      3          1           0        1.632488   -0.987425    0.800101
      4          1           0       -0.640747    1.222053    1.056357
      5          1           0       -0.696627    1.449809   -0.726942
      6          6           0       -1.632636   -0.408651   -0.031505
      7          1           0       -1.210489   -1.428847   -0.179128
      8          1           0       -2.261637   -0.449296    0.887859
      9          1           0       -2.320332   -0.215553   -0.887273
 ---------------------------------------------------------------------
 Rotational constants (GHZ):     26.5671452      5.1185212      4.6165306
 Standard basis: CC-pVTZ (5D, 7F)
 There are   178 symmetry adapted basis functions of A   symmetry.
 Integral buffers will be    131072 words long.
 Raffenetti 1 integral format.
 Two-electron integral symmetry is turned on.
   178 basis functions,   300 primitive gaussians,   199 cartesian basis functions
    17 alpha electrons       17 beta electrons
       nuclear repulsion energy       104.5766577057 Hartrees.
 NAtoms=    9 NActive=    9 NUniq=    9 SFac= 7.50D-01 NAtFMM=   80 NAOKFM=F Big=F
 One-electron integrals computed using PRISM.
 NBasis=   178 RedAO= T  NBF=   178
 NBsUse=   178 1.00D-06 NBFU=   178
 Harris functional with IExCor=  205 diagonalized for initial guess.
 ExpMin= 1.03D-01 ExpMax= 3.74D+05 ExpMxC= 1.18D+03 IAcc=2 IRadAn=         0 AccDes= 0.00D+00
 HarFok:  IExCor=  205 AccDes= 0.00D+00 IRadAn=         0 IDoV= 1
 ScaDFX=  1.000000  1.000000  1.000000  1.000000
 FoFCou: FMM=F IPFlag=           0 FMFlag=      100000 FMFlg1=           0
         NFxFlg=           0 DoJE=T BraDBF=F KetDBF=T FulRan=T
         Omega=  0.000000  0.000000  1.000000  0.000000  0.000000 ICntrl=     500 IOpCl=  0
         NMat0=    1 NMatS0=    1 NMatT0=    0 NMatD0=    1 NMtDS0=    0 NMtDT0=    0
         I1Cent=           4 NGrid=           0.
 Petite list used in FoFCou.
 Initial guess orbital symmetries:
       Occupied  (A) (A) (A) (A) (A) (A) (A) (A) (A) (A) (A) (A)
                 (A) (A) (A) (A) (A)
       Virtual   (A) (A) (A) (A) (A) (A) (A) (A) (A) (A) (A) (A)
                 (A) (A) (A) (A) (A) (A) (A) (A) (A) (A) (A) (A)
                 (A) (A) (A) (A) (A) (A) (A) (A) (A) (A) (A) (A)
                 (A) (A) (A) (A) (A) (A) (A) (A) (A) (A) (A) (A)
                 (A) (A) (A) (A) (A) (A) (A) (A) (A) (A) (A) (A)
                 (A) (A) (A) (A) (A) (A) (A) (A) (A) (A) (A) (A)
                 (A) (A) (A) (A) (A) (A) (A) (A) (A) (A) (A) (A)
                 (A) (A) (A) (A) (A) (A) (A) (A) (A) (A) (A) (A)
                 (A) (A) (A) (A) (A) (A) (A) (A) (A) (A) (A) (A)
                 (A) (A) (A) (A) (A) (A) (A) (A) (A) (A) (A) (A)
                 (A) (A) (A) (A) (A) (A) (A) (A) (A) (A) (A) (A)
                 (A) (A) (A) (A) (A) (A) (A) (A) (A) (A) (A) (A)
                 (A) (A) (A) (A) (A) (A) (A) (A) (A) (A) (A) (A)
                 (A) (A) (A) (A) (A)
 The electronic state of the initial guess is 1-A.
 Requested convergence on RMS density matrix=1.00D-08 within 128 cycles.
 Requested convergence on MAX density matrix=1.00D-06.
 Requested convergence on             energy=1.00D-06.
 No special actions if energy rises.
 Keep R1 ints in memory in canonical form, NReq=202154863.
 SCF Done:  E(RHF) =  -476.771675959     A.U. after   12 cycles
             Convg  =    0.4837D-08             -V/T =  2.0008
 ExpMin= 1.03D-01 ExpMax= 3.74D+05 ExpMxC= 1.18D+03 IAcc=3 IRadAn=         5 AccDes= 0.00D+00
 HarFok:  IExCor=  205 AccDes= 0.00D+00 IRadAn=         5 IDoV=-2
 ScaDFX=  1.000000  1.000000  1.000000  1.000000
 Range of M.O.s used for correlation:     8   178
 NBasis=   178 NAE=    17 NBE=    17 NFC=     7 NFV=     0
 NROrb=    171 NOA=    10 NOB=    10 NVA=   161 NVB=   161

 **** Warning!!: The largest alpha MO coefficient is  0.10579033D+02

 Fully in-core method, ICMem=   418253266.
 JobTyp=1 Pass  1 fully in-core, NPsUse=  8.
 Spin components of T(2) and E(2):
     alpha-alpha T2 =       0.2252308295D-01 E2=     -0.5847276412D-01
     alpha-beta  T2 =       0.1458683103D+00 E2=     -0.4226588192D+00
     beta-beta   T2 =       0.2252308295D-01 E2=     -0.5847276412D-01
 ANorm=    0.1091290280D+01
 E2 =    -0.5396043475D+00 EUMP2 =    -0.47731128030659D+03

 **********************************************************************

            Population analysis using the SCF density.

 **********************************************************************

 Orbital symmetries:
       Occupied  (A) (A) (A) (A) (A) (A) (A) (A) (A) (A) (A) (A)
                 (A) (A) (A) (A) (A)
       Virtual   (A) (A) (A) (A) (A) (A) (A) (A) (A) (A) (A) (A)
                 (A) (A) (A) (A) (A) (A) (A) (A) (A) (A) (A) (A)
                 (A) (A) (A) (A) (A) (A) (A) (A) (A) (A) (A) (A)
                 (A) (A) (A) (A) (A) (A) (A) (A) (A) (A) (A) (A)
                 (A) (A) (A) (A) (A) (A) (A) (A) (A) (A) (A) (A)
                 (A) (A) (A) (A) (A) (A) (A) (A) (A) (A) (A) (A)
                 (A) (A) (A) (A) (A) (A) (A) (A) (A) (A) (A) (A)
                 (A) (A) (A) (A) (A) (A) (A) (A) (A) (A) (A) (A)
                 (A) (A) (A) (A) (A) (A) (A) (A) (A) (A) (A) (A)
                 (A) (A) (A) (A) (A) (A) (A) (A) (A) (A) (A) (A)
                 (A) (A) (A) (A) (A) (A) (A) (A) (A) (A) (A) (A)
                 (A) (A) (A) (A) (A) (A) (A) (A) (A) (A) (A) (A)
                 (A) (A) (A) (A) (A) (A) (A) (A) (A) (A) (A) (A)
                 (A) (A) (A) (A) (A)
 The electronic state is 1-A.
 Alpha  occ. eigenvalues --  -91.94128 -11.28708 -11.23478  -8.94316  -6.62458
 Alpha  occ. eigenvalues --   -6.62371  -6.62282  -1.05404  -0.93035  -0.82618
 Alpha  occ. eigenvalues --   -0.62665  -0.59554  -0.55043  -0.51998  -0.50381
 Alpha  occ. eigenvalues --   -0.40335  -0.35071
 Alpha virt. eigenvalues --    0.12679   0.13664   0.17294   0.17761   0.19017
 Alpha virt. eigenvalues --    0.24975   0.25825   0.31231   0.31921   0.36402
 Alpha virt. eigenvalues --    0.37612   0.39883   0.43765   0.45878   0.46566
 Alpha virt. eigenvalues --    0.50784   0.52277   0.55128   0.56079   0.58162
 Alpha virt. eigenvalues --    0.60083   0.61401   0.62648   0.63566   0.64582
 Alpha virt. eigenvalues --    0.66396   0.67490   0.75202   0.78263   0.88750
 Alpha virt. eigenvalues --    0.91422   0.97363   1.00944   1.03697   1.04024
 Alpha virt. eigenvalues --    1.05812   1.08719   1.13809   1.16256   1.18341
 Alpha virt. eigenvalues --    1.22476   1.23834   1.24228   1.24955   1.27638
 Alpha virt. eigenvalues --    1.31693   1.38095   1.42601   1.46366   1.47048
 Alpha virt. eigenvalues --    1.47444   1.49606   1.51909   1.54808   1.56815
 Alpha virt. eigenvalues --    1.66099   1.70115   1.73176   1.75798   1.88188
 Alpha virt. eigenvalues --    1.90928   1.93429   1.96304   2.01353   2.02635
 Alpha virt. eigenvalues --    2.08500   2.14730   2.20249   2.22457   2.24459
 Alpha virt. eigenvalues --    2.25818   2.34685   2.42889   2.49929   2.58220
 Alpha virt. eigenvalues --    2.59028   2.68055   2.71548   2.76989   2.82687
 Alpha virt. eigenvalues --    2.84146   2.86384   2.91485   2.94309   3.07526
 Alpha virt. eigenvalues --    3.08107   3.09856   3.14924   3.17692   3.19915
 Alpha virt. eigenvalues --    3.22583   3.29026   3.29337   3.34014   3.38327
 Alpha virt. eigenvalues --    3.39472   3.39777   3.46821   3.52907   3.57677
 Alpha virt. eigenvalues --    3.61413   3.62415   3.62965   3.67034   3.67470
 Alpha virt. eigenvalues --    3.72621   3.75511   3.77680   3.79181   3.83064
 Alpha virt. eigenvalues --    3.85047   3.86052   3.89583   3.91564   3.96975
 Alpha virt. eigenvalues --    4.05467   4.07504   4.09434   4.12409   4.19725
 Alpha virt. eigenvalues --    4.20385   4.20687   4.25408   4.27789   4.29754
 Alpha virt. eigenvalues --    4.32111   4.36560   4.39163   4.39729   4.41574
 Alpha virt. eigenvalues --    4.45289   4.46882   4.50077   4.53155   4.59114
 Alpha virt. eigenvalues --    4.69921   4.75283   4.76336   4.85322   4.95971
 Alpha virt. eigenvalues --    4.96622   5.08036   5.14847   5.23006   5.24650
 Alpha virt. eigenvalues --    5.30037   5.30915   5.37699   5.46050   5.53393
 Alpha virt. eigenvalues --    5.57837   5.62313   5.68379   5.71518   5.87657
 Alpha virt. eigenvalues --    5.97397   6.15880   6.22161   6.29948  11.30723
 Alpha virt. eigenvalues --   13.61233
          Condensed to atoms (all electrons):
              1          2          3          4          5          6
     1  C    4.815549   0.272399  -0.009812   0.421403   0.417106   0.307535
     2  S    0.272399  15.761864   0.345364  -0.032140  -0.018623  -0.077672
     3  H   -0.009812   0.345364   0.559711  -0.001599   0.001151  -0.000809
     4  H    0.421403  -0.032140  -0.001599   0.563265  -0.031432  -0.034051
     5  H    0.417106  -0.018623   0.001151  -0.031432   0.544673  -0.033633
     6  C    0.307535  -0.077672  -0.000809  -0.034051  -0.033633   4.859289
     7  H   -0.034894  -0.008272  -0.001101   0.004576   0.002438   0.419807
     8  H   -0.037001   0.006439   0.000062  -0.008871   0.003892   0.408773
     9  H   -0.035310   0.007848   0.000032   0.003492  -0.009033   0.404055
              7          8          9
     1  C   -0.034894  -0.037001  -0.035310
     2  S   -0.008272   0.006439   0.007848
     3  H   -0.001101   0.000062   0.000032
     4  H    0.004576  -0.008871   0.003492
     5  H    0.002438   0.003892  -0.009033
     6  C    0.419807   0.408773   0.404055
     7  H    0.571729  -0.031689  -0.029698
     8  H   -0.031689   0.600096  -0.029125
     9  H   -0.029698  -0.029125   0.600610
 Mulliken atomic charges:
              1
     1  C   -0.116975
     2  S   -0.257207
     3  H    0.107002
     4  H    0.115358
     5  H    0.123461
     6  C   -0.253294
     7  H    0.107103
     8  H    0.087424
     9  H    0.087129
 Sum of Mulliken atomic charges =   0.00000
 Mulliken charges with hydrogens summed into heavy atoms:
              1
     1  C    0.121843
     2  S   -0.150205
     6  C    0.028362
 Sum of Mulliken charges with hydrogens summed into heavy atoms =   0.00000
 Electronic spatial extent (au):  <R**2>=            312.6386
 Charge=              0.0000 electrons
 Dipole moment (field-independent basis, Debye):
    X=             -1.7720    Y=              0.0046    Z=              0.9158  Tot=              1.9947
 Quadrupole moment (field-independent basis, Debye-Ang):
   XX=            -29.0662   YY=            -26.9169   ZZ=            -27.7832
   XY=             -2.6737   XZ=              1.6530   YZ=             -1.5889
 Traceless Quadrupole moment (field-independent basis, Debye-Ang):
   XX=             -1.1441   YY=              1.0052   ZZ=              0.1389
   XY=             -2.6737   XZ=              1.6530   YZ=             -1.5889
 Octapole moment (field-independent basis, Debye-Ang**2):
  XXX=             -0.2772  YYY=              0.1722  ZZZ=              1.6498  XYY=              0.0061
  XXY=             -4.4107  XXZ=              2.2321  XZZ=             -1.5813  YZZ=              1.2453
  YYZ=              0.4980  XYZ=             -1.7433
 Hexadecapole moment (field-independent basis, Debye-Ang**3):
 XXXX=           -311.2491 YYYY=            -82.3043 ZZZZ=            -51.3506 XXXY=            -12.7121
 XXXZ=              5.1833 YYYX=             -4.5026 YYYZ=             -2.8379 ZZZX=              1.6185
 ZZZY=             -1.8242 XXYY=            -64.9074 XXZZ=            -58.2061 YYZZ=            -21.2336
 XXYZ=             -4.0747 YYXZ=              2.3807 ZZXY=             -2.2482
 N-N= 1.045766577057D+02 E-N=-1.339823162056D+03  KE= 4.764033928615D+02
 1\1\GINC-ROCK\SP\RMP2-FC\CC-pVTZ\C2H6S1\STYLIANAKIS\04-Jun-2016\0\\# m
 p2/cc-pVTZ\\ethanethiol-ecl.hin\\0,1\C,0,-0.43603,-1.27895,-0.31377\S,
 0,-0.36731,0.60677,-0.55914\X,0,0.78717,0.94436,-0.42814\X,0,-0.61339,
 0.82432,-1.72363\H,0,-1.11628,1.45421,0.16855\H,0,-1.47575,-1.63372,-0
 .50266\H,0,0.22737,-1.76569,-1.06579\C,0,0.01236,-1.63137,1.11351\H,0,
 0.28847,-0.74401,1.72764\H,0,-0.79423,-2.16765,1.66518\H,0,0.9002,-2.3
 0525,1.10025\\Version=EM64L-G09RevA.01\State=1-A\HF=-476.771676\MP2=-4
 77.3112803\RMSD=4.837e-09\PG=C01 [X(C2H6S1)]\\@


 IT IS A QUALITY OF REVOLUTIONS NOT TO GO BY OLD LINES OR OLD LAWS,
 BUT TO BREAK UP BOTH, AND MAKE NEW ONES.
                                              -- A. LINCOLN (1848)
 Job cpu time:  0 days  0 hours  8 minutes 32.0 seconds.
 File lengths (MBytes):  RWF=     15 Int=      0 D2E=      0 Chk=      2 Scr=      1
 Normal termination of Gaussian 09 at Sat Jun  4 22:08:35 2016.
