 Entering Gaussian System, Link 0=g09
 Input=25.gjf
 Output=25.out
 Initial command:
 /usr/local/g09/l1.exe /home/scratch/stylianakis/Gau-22611.inp -scrdir=/home/scratch/stylianakis/
 Entering Link 1 = /usr/local/g09/l1.exe PID=     22612.
  
 Copyright (c) 1988,1990,1992,1993,1995,1998,2003,2009, Gaussian, Inc.
                  All Rights Reserved.
  
 This is part of the Gaussian(R) 09 program.  It is based on
 the Gaussian(R) 03 system (copyright 2003, Gaussian, Inc.),
 the Gaussian(R) 98 system (copyright 1998, Gaussian, Inc.),
 the Gaussian(R) 94 system (copyright 1995, Gaussian, Inc.),
 the Gaussian 92(TM) system (copyright 1992, Gaussian, Inc.),
 the Gaussian 90(TM) system (copyright 1990, Gaussian, Inc.),
 the Gaussian 88(TM) system (copyright 1988, Gaussian, Inc.),
 the Gaussian 86(TM) system (copyright 1986, Carnegie Mellon
 University), and the Gaussian 82(TM) system (copyright 1983,
 Carnegie Mellon University). Gaussian is a federally registered
 trademark of Gaussian, Inc.
  
 This software contains proprietary and confidential information,
 including trade secrets, belonging to Gaussian, Inc.
  
 This software is provided under written license and may be
 used, copied, transmitted, or stored only in accord with that
 written license.
  
 The following legend is applicable only to US Government
 contracts under FAR:
  
                    RESTRICTED RIGHTS LEGEND
  
 Use, reproduction and disclosure by the US Government is
 subject to restrictions as set forth in subparagraphs (a)
 and (c) of the Commercial Computer Software - Restricted
 Rights clause in FAR 52.227-19.
  
 Gaussian, Inc.
 340 Quinnipiac St., Bldg. 40, Wallingford CT 06492
  
  
 ---------------------------------------------------------------
 Warning -- This program may not be used in any manner that
 competes with the business of Gaussian, Inc. or will provide
 assistance to any competitor of Gaussian, Inc.  The licensee
 of this program is prohibited from giving any competitor of
 Gaussian, Inc. access to this program.  By using this program,
 the user acknowledges that Gaussian, Inc. is engaged in the
 business of creating and licensing software in the field of
 computational chemistry and represents and warrants to the
 licensee that it is not a competitor of Gaussian, Inc. and that
 it will not use this program in any manner prohibited above.
 ---------------------------------------------------------------
  

 Cite this work as:
 Gaussian 09, Revision A.01,
 M. J. Frisch, G. W. Trucks, H. B. Schlegel, G. E. Scuseria, 
 M. A. Robb, J. R. Cheeseman, G. Scalmani, V. Barone, B. Mennucci, 
 G. A. Petersson, H. Nakatsuji, M. Caricato, X. Li, H. P. Hratchian, 
 A. F. Izmaylov, J. Bloino, G. Zheng, J. L. Sonnenberg, M. Hada, 
 M. Ehara, K. Toyota, R. Fukuda, J. Hasegawa, M. Ishida, T. Nakajima, 
 Y. Honda, O. Kitao, H. Nakai, T. Vreven, J. A. Montgomery, Jr., 
 J. E. Peralta, F. Ogliaro, M. Bearpark, J. J. Heyd, E. Brothers, 
 K. N. Kudin, V. N. Staroverov, R. Kobayashi, J. Normand, 
 K. Raghavachari, A. Rendell, J. C. Burant, S. S. Iyengar, J. Tomasi, 
 M. Cossi, N. Rega, J. M. Millam, M. Klene, J. E. Knox, J. B. Cross, 
 V. Bakken, C. Adamo, J. Jaramillo, R. Gomperts, R. E. Stratmann, 
 O. Yazyev, A. J. Austin, R. Cammi, C. Pomelli, J. W. Ochterski, 
 R. L. Martin, K. Morokuma, V. G. Zakrzewski, G. A. Voth, 
 P. Salvador, J. J. Dannenberg, S. Dapprich, A. D. Daniels, 
 O. Farkas, J. B. Foresman, J. V. Ortiz, J. Cioslowski, 
 and D. J. Fox, Gaussian, Inc., Wallingford CT, 2009.
 
 ******************************************
 Gaussian 09:  EM64L-G09RevA.01  8-May-2009
                 4-Jun-2016 
 ******************************************
 %mem=8000Mb
 %nproc=8
 Will use up to    8 processors via shared memory.
 -------------
 # mp2/cc-pVTZ
 -------------
 1/38=1/1;
 2/12=2,17=6,18=5,40=1/2;
 3/5=16,6=1,11=9,16=1,25=1,30=1/1,2,3;
 4//1;
 5/5=2,38=5/2;
 8/10=1/1;
 9/16=-3/6;
 6/7=2,8=2,9=2,10=2/1;
 99/5=1,9=1/99;
 ----------------
 methanol-ecl.hin
 ----------------
 Symbolic Z-matrix:
 Charge =  0 Multiplicity = 1
 C                    -0.63135  -0.43867  -0.5447 
 O                    -0.65753   0.97041  -0.501 
 Xx                   -0.10041   1.15536  -0.37122 
 Xx                   -1.04561   1.15487  -0.92149 
 H                    -1.11398   1.22471   0.2828 
 H                     0.42904  -0.78408  -0.5509 
 H                    -1.15617  -0.83043   0.3571 
 H                    -1.14923  -0.78491  -1.46974 
 
                          Input orientation:                          
 ---------------------------------------------------------------------
 Center     Atomic      Atomic             Coordinates (Angstroms)
 Number     Number       Type             X           Y           Z
 ---------------------------------------------------------------------
      1          6           0       -0.631350   -0.438670   -0.544700
      2          8           0       -0.657530    0.970410   -0.501000
      3          1           0       -1.113980    1.224710    0.282800
      4          1           0        0.429040   -0.784080   -0.550900
      5          1           0       -1.156170   -0.830430    0.357100
      6          1           0       -1.149230   -0.784910   -1.469740
 ---------------------------------------------------------------------
                    Distance matrix (angstroms):
                    1          2          3          4          5
     1  C    0.000000
     2  O    1.410001   0.000000
     3  H    1.919511   0.941997   0.000000
     4  H    1.115246   2.064306   2.666684   0.000000
     5  H    1.114520   2.056211   2.056915   1.827431   0.000000
     6  H    1.115249   2.064310   2.666686   1.826254   1.827420
                    6
     6  H    0.000000
 Stoichiometry    CH4O
 Framework group  C1[X(CH4O)]
 Deg. of freedom    12
 Full point group                 C1      NOp   1
 Largest Abelian subgroup         C1      NOp   1
 Largest concise Abelian subgroup C1      NOp   1
                         Standard orientation:                         
 ---------------------------------------------------------------------
 Center     Atomic      Atomic             Coordinates (Angstroms)
 Number     Number       Type             X           Y           Z
 ---------------------------------------------------------------------
      1          6           0        0.662355    0.018658   -0.000002
      2          8           0       -0.740047   -0.127529    0.000003
      3          1           0       -1.118427    0.735133   -0.000012
      4          1           0        1.079990   -0.466701   -0.913118
      5          1           0        0.904683    1.106515   -0.000013
      6          1           0        1.079995   -0.466663    0.913136
 ---------------------------------------------------------------------
 Rotational constants (GHZ):    123.2570182     25.1899210     24.2951409
 Standard basis: CC-pVTZ (5D, 7F)
 There are   116 symmetry adapted basis functions of A   symmetry.
 Integral buffers will be    131072 words long.
 Raffenetti 1 integral format.
 Two-electron integral symmetry is turned on.
   116 basis functions,   172 primitive gaussians,   130 cartesian basis functions
     9 alpha electrons        9 beta electrons
       nuclear repulsion energy        40.3889004904 Hartrees.
 NAtoms=    6 NActive=    6 NUniq=    6 SFac= 7.50D-01 NAtFMM=   80 NAOKFM=F Big=F
 One-electron integrals computed using PRISM.
 NBasis=   116 RedAO= T  NBF=   116
 NBsUse=   116 1.00D-06 NBFU=   116
 Harris functional with IExCor=  205 diagonalized for initial guess.
 ExpMin= 1.03D-01 ExpMax= 1.53D+04 ExpMxC= 5.22D+02 IAcc=1 IRadAn=         1 AccDes= 0.00D+00
 HarFok:  IExCor=  205 AccDes= 0.00D+00 IRadAn=         1 IDoV= 1
 ScaDFX=  1.000000  1.000000  1.000000  1.000000
 FoFCou: FMM=F IPFlag=           0 FMFlag=      100000 FMFlg1=           0
         NFxFlg=           0 DoJE=T BraDBF=F KetDBF=T FulRan=T
         Omega=  0.000000  0.000000  1.000000  0.000000  0.000000 ICntrl=     500 IOpCl=  0
         NMat0=    1 NMatS0=    1 NMatT0=    0 NMatD0=    1 NMtDS0=    0 NMtDT0=    0
         I1Cent=           4 NGrid=           0.
 Petite list used in FoFCou.
 Initial guess orbital symmetries:
       Occupied  (A) (A) (A) (A) (A) (A) (A) (A) (A)
       Virtual   (A) (A) (A) (A) (A) (A) (A) (A) (A) (A) (A) (A)
                 (A) (A) (A) (A) (A) (A) (A) (A) (A) (A) (A) (A)
                 (A) (A) (A) (A) (A) (A) (A) (A) (A) (A) (A) (A)
                 (A) (A) (A) (A) (A) (A) (A) (A) (A) (A) (A) (A)
                 (A) (A) (A) (A) (A) (A) (A) (A) (A) (A) (A) (A)
                 (A) (A) (A) (A) (A) (A) (A) (A) (A) (A) (A) (A)
                 (A) (A) (A) (A) (A) (A) (A) (A) (A) (A) (A) (A)
                 (A) (A) (A) (A) (A) (A) (A) (A) (A) (A) (A) (A)
                 (A) (A) (A) (A) (A) (A) (A) (A) (A) (A) (A)
 The electronic state of the initial guess is 1-A.
 Requested convergence on RMS density matrix=1.00D-08 within 128 cycles.
 Requested convergence on MAX density matrix=1.00D-06.
 Requested convergence on             energy=1.00D-06.
 No special actions if energy rises.
 Keep R1 ints in memory in canonical form, NReq=38267722.
 SCF Done:  E(RHF) =  -115.085589403     A.U. after   10 cycles
             Convg  =    0.6051D-08             -V/T =  2.0015
 ExpMin= 1.03D-01 ExpMax= 1.53D+04 ExpMxC= 5.22D+02 IAcc=1 IRadAn=         1 AccDes= 0.00D+00
 HarFok:  IExCor=  205 AccDes= 0.00D+00 IRadAn=         1 IDoV=-2
 ScaDFX=  1.000000  1.000000  1.000000  1.000000
 Range of M.O.s used for correlation:     3   116
 NBasis=   116 NAE=     9 NBE=     9 NFC=     2 NFV=     0
 NROrb=    114 NOA=     7 NOB=     7 NVA=   107 NVB=   107

 **** Warning!!: The largest alpha MO coefficient is  0.11370470D+02

 Fully in-core method, ICMem=    83224159.
 JobTyp=1 Pass  1 fully in-core, NPsUse=  8.
 Spin components of T(2) and E(2):
     alpha-alpha T2 =       0.1319044634D-01 E2=     -0.4897718463D-01
     alpha-beta  T2 =       0.8487431080D-01 E2=     -0.3297621795D+00
     beta-beta   T2 =       0.1319044634D-01 E2=     -0.4897718463D-01
 ANorm=    0.1054160900D+01
 E2 =    -0.4277165488D+00 EUMP2 =    -0.11551330595133D+03

 **********************************************************************

            Population analysis using the SCF density.

 **********************************************************************

 Orbital symmetries:
       Occupied  (A) (A) (A) (A) (A) (A) (A) (A) (A)
       Virtual   (A) (A) (A) (A) (A) (A) (A) (A) (A) (A) (A) (A)
                 (A) (A) (A) (A) (A) (A) (A) (A) (A) (A) (A) (A)
                 (A) (A) (A) (A) (A) (A) (A) (A) (A) (A) (A) (A)
                 (A) (A) (A) (A) (A) (A) (A) (A) (A) (A) (A) (A)
                 (A) (A) (A) (A) (A) (A) (A) (A) (A) (A) (A) (A)
                 (A) (A) (A) (A) (A) (A) (A) (A) (A) (A) (A) (A)
                 (A) (A) (A) (A) (A) (A) (A) (A) (A) (A) (A) (A)
                 (A) (A) (A) (A) (A) (A) (A) (A) (A) (A) (A) (A)
                 (A) (A) (A) (A) (A) (A) (A) (A) (A) (A) (A)
 The electronic state is 1-A.
 Alpha  occ. eigenvalues --  -20.54790 -11.27742  -1.36144  -0.91571  -0.69186
 Alpha  occ. eigenvalues --   -0.61634  -0.59386  -0.49670  -0.44402
 Alpha virt. eigenvalues --    0.13600   0.17845   0.22182   0.22378   0.29249
 Alpha virt. eigenvalues --    0.38713   0.38782   0.56055   0.58118   0.61632
 Alpha virt. eigenvalues --    0.61758   0.65542   0.66615   0.71067   0.72610
 Alpha virt. eigenvalues --    0.80345   0.84792   0.86700   0.94625   1.05242
 Alpha virt. eigenvalues --    1.12970   1.16242   1.17110   1.23735   1.26504
 Alpha virt. eigenvalues --    1.28634   1.31470   1.45867   1.50334   1.50703
 Alpha virt. eigenvalues --    1.52230   1.57248   1.64476   1.74272   2.10682
 Alpha virt. eigenvalues --    2.16580   2.16717   2.22806   2.37220   2.52210
 Alpha virt. eigenvalues --    2.54145   2.55266   2.81467   2.97332   3.00666
 Alpha virt. eigenvalues --    3.05039   3.09471   3.18042   3.19065   3.28454
 Alpha virt. eigenvalues --    3.29634   3.33281   3.35188   3.47929   3.50526
 Alpha virt. eigenvalues --    3.56731   3.59316   3.67865   3.68157   3.70439
 Alpha virt. eigenvalues --    3.72519   3.78696   3.86295   3.92688   4.02659
 Alpha virt. eigenvalues --    4.06807   4.09067   4.09728   4.14809   4.23400
 Alpha virt. eigenvalues --    4.30305   4.31409   4.33933   4.36475   4.40501
 Alpha virt. eigenvalues --    4.48975   4.56723   4.69555   4.72356   4.96939
 Alpha virt. eigenvalues --    5.00232   5.02176   5.18713   5.22634   5.25781
 Alpha virt. eigenvalues --    5.32345   5.44456   5.47064   5.48059   5.56842
 Alpha virt. eigenvalues --    5.78323   6.03422   6.08482   6.18200   6.23909
 Alpha virt. eigenvalues --    6.39320   6.64384   7.03995   7.15390   7.19752
 Alpha virt. eigenvalues --    7.27377   7.34847   7.51587   7.60498   7.92453
 Alpha virt. eigenvalues --   12.24722  13.43619
          Condensed to atoms (all electrons):
              1          2          3          4          5          6
     1  C    4.475364   0.312669  -0.037359   0.405359   0.429463   0.405357
     2  O    0.312669   7.870938   0.353705  -0.044904  -0.047033  -0.044904
     3  H   -0.037359   0.353705   0.471386   0.004556  -0.016769   0.004556
     4  H    0.405359  -0.044904   0.004556   0.667918  -0.038254  -0.057831
     5  H    0.429463  -0.047033  -0.016769  -0.038254   0.665756  -0.038255
     6  H    0.405357  -0.044904   0.004556  -0.057831  -0.038255   0.667923
 Mulliken atomic charges:
              1
     1  C    0.009147
     2  O   -0.400471
     3  H    0.219923
     4  H    0.063155
     5  H    0.045092
     6  H    0.063153
 Sum of Mulliken atomic charges =   0.00000
 Mulliken charges with hydrogens summed into heavy atoms:
              1
     1  C    0.180548
     2  O   -0.180548
 Sum of Mulliken charges with hydrogens summed into heavy atoms =   0.00000
 Electronic spatial extent (au):  <R**2>=             83.8174
 Charge=              0.0000 electrons
 Dipole moment (field-independent basis, Debye):
    X=              0.8321    Y=              1.5989    Z=              0.0000  Tot=              1.8025
 Quadrupole moment (field-independent basis, Debye-Ang):
   XX=            -13.0397   YY=            -12.1149   ZZ=            -13.5368
   XY=             -2.1856   XZ=              0.0000   YZ=              0.0000
 Traceless Quadrupole moment (field-independent basis, Debye-Ang):
   XX=             -0.1426   YY=              0.7823   ZZ=             -0.6397
   XY=             -2.1856   XZ=              0.0000   YZ=              0.0000
 Octapole moment (field-independent basis, Debye-Ang**2):
  XXX=             -4.8495  YYY=              1.8398  ZZZ=              0.0000  XYY=             -2.0697
  XXY=              2.3486  XXZ=              0.0000  XZZ=             -0.3826  YZZ=             -0.4412
  YYZ=              0.0000  XYZ=              0.0000
 Hexadecapole moment (field-independent basis, Debye-Ang**3):
 XXXX=            -60.6015 YYYY=            -20.0064 ZZZZ=            -19.5416 XXXY=             -3.5985
 XXXZ=              0.0001 YYYX=             -1.4840 YYYZ=              0.0000 ZZZX=              0.0000
 ZZZY=              0.0000 XXYY=            -12.6070 XXZZ=            -13.7070 YYZZ=             -6.8592
 XXYZ=              0.0000 YYXZ=              0.0000 ZZXY=             -1.0784
 N-N= 4.038890049038D+01 E-N=-3.519736424502D+02  KE= 1.149151379807D+02
 1\1\GINC-ROCK\SP\RMP2-FC\CC-pVTZ\C1H4O1\STYLIANAKIS\04-Jun-2016\0\\# m
 p2/cc-pVTZ\\methanol-ecl.hin\\0,1\C,0,-0.63135,-0.43867,-0.5447\O,0,-0
 .65753,0.97041,-0.501\X,0,-0.10041,1.15536,-0.37122\X,0,-1.04561,1.154
 87,-0.92149\H,0,-1.11398,1.22471,0.2828\H,0,0.42904,-0.78408,-0.5509\H
 ,0,-1.15617,-0.83043,0.3571\H,0,-1.14923,-0.78491,-1.46974\\Version=EM
 64L-G09RevA.01\State=1-A\HF=-115.0855894\MP2=-115.513306\RMSD=6.051e-0
 9\PG=C01 [X(C1H4O1)]\\@


 NO MATTER HOW THIN YOU SLICE IT, IT'S STILL BALONEY

                                   -- ALFRED E. SMITH
 Job cpu time:  0 days  0 hours  1 minutes 34.6 seconds.
 File lengths (MBytes):  RWF=     10 Int=      0 D2E=      0 Chk=      2 Scr=      1
 Normal termination of Gaussian 09 at Sat Jun  4 21:57:15 2016.
