 Entering Gaussian System, Link 0=g09
 Input=24.gjf
 Output=24.out
 Initial command:
 /usr/local/g09/l1.exe /home/scratch/stylianakis/Gau-22460.inp -scrdir=/home/scratch/stylianakis/
 Entering Link 1 = /usr/local/g09/l1.exe PID=     22461.
  
 Copyright (c) 1988,1990,1992,1993,1995,1998,2003,2009, Gaussian, Inc.
                  All Rights Reserved.
  
 This is part of the Gaussian(R) 09 program.  It is based on
 the Gaussian(R) 03 system (copyright 2003, Gaussian, Inc.),
 the Gaussian(R) 98 system (copyright 1998, Gaussian, Inc.),
 the Gaussian(R) 94 system (copyright 1995, Gaussian, Inc.),
 the Gaussian 92(TM) system (copyright 1992, Gaussian, Inc.),
 the Gaussian 90(TM) system (copyright 1990, Gaussian, Inc.),
 the Gaussian 88(TM) system (copyright 1988, Gaussian, Inc.),
 the Gaussian 86(TM) system (copyright 1986, Carnegie Mellon
 University), and the Gaussian 82(TM) system (copyright 1983,
 Carnegie Mellon University). Gaussian is a federally registered
 trademark of Gaussian, Inc.
  
 This software contains proprietary and confidential information,
 including trade secrets, belonging to Gaussian, Inc.
  
 This software is provided under written license and may be
 used, copied, transmitted, or stored only in accord with that
 written license.
  
 The following legend is applicable only to US Government
 contracts under FAR:
  
                    RESTRICTED RIGHTS LEGEND
  
 Use, reproduction and disclosure by the US Government is
 subject to restrictions as set forth in subparagraphs (a)
 and (c) of the Commercial Computer Software - Restricted
 Rights clause in FAR 52.227-19.
  
 Gaussian, Inc.
 340 Quinnipiac St., Bldg. 40, Wallingford CT 06492
  
  
 ---------------------------------------------------------------
 Warning -- This program may not be used in any manner that
 competes with the business of Gaussian, Inc. or will provide
 assistance to any competitor of Gaussian, Inc.  The licensee
 of this program is prohibited from giving any competitor of
 Gaussian, Inc. access to this program.  By using this program,
 the user acknowledges that Gaussian, Inc. is engaged in the
 business of creating and licensing software in the field of
 computational chemistry and represents and warrants to the
 licensee that it is not a competitor of Gaussian, Inc. and that
 it will not use this program in any manner prohibited above.
 ---------------------------------------------------------------
  

 Cite this work as:
 Gaussian 09, Revision A.01,
 M. J. Frisch, G. W. Trucks, H. B. Schlegel, G. E. Scuseria, 
 M. A. Robb, J. R. Cheeseman, G. Scalmani, V. Barone, B. Mennucci, 
 G. A. Petersson, H. Nakatsuji, M. Caricato, X. Li, H. P. Hratchian, 
 A. F. Izmaylov, J. Bloino, G. Zheng, J. L. Sonnenberg, M. Hada, 
 M. Ehara, K. Toyota, R. Fukuda, J. Hasegawa, M. Ishida, T. Nakajima, 
 Y. Honda, O. Kitao, H. Nakai, T. Vreven, J. A. Montgomery, Jr., 
 J. E. Peralta, F. Ogliaro, M. Bearpark, J. J. Heyd, E. Brothers, 
 K. N. Kudin, V. N. Staroverov, R. Kobayashi, J. Normand, 
 K. Raghavachari, A. Rendell, J. C. Burant, S. S. Iyengar, J. Tomasi, 
 M. Cossi, N. Rega, J. M. Millam, M. Klene, J. E. Knox, J. B. Cross, 
 V. Bakken, C. Adamo, J. Jaramillo, R. Gomperts, R. E. Stratmann, 
 O. Yazyev, A. J. Austin, R. Cammi, C. Pomelli, J. W. Ochterski, 
 R. L. Martin, K. Morokuma, V. G. Zakrzewski, G. A. Voth, 
 P. Salvador, J. J. Dannenberg, S. Dapprich, A. D. Daniels, 
 O. Farkas, J. B. Foresman, J. V. Ortiz, J. Cioslowski, 
 and D. J. Fox, Gaussian, Inc., Wallingford CT, 2009.
 
 ******************************************
 Gaussian 09:  EM64L-G09RevA.01  8-May-2009
                 4-Jun-2016 
 ******************************************
 %mem=8000Mb
 %nproc=8
 Will use up to    8 processors via shared memory.
 -------------
 # mp2/cc-pVTZ
 -------------
 1/38=1/1;
 2/12=2,17=6,18=5,40=1/2;
 3/5=16,6=1,11=9,16=1,25=1,30=1/1,2,3;
 4//1;
 5/5=2,38=5/2;
 8/10=1/1;
 9/16=-3/6;
 6/7=2,8=2,9=2,10=2/1;
 99/5=1,9=1/99;
 ----------------------------
 methylformate-C=O-Lp-ecl.hin
 ----------------------------
 Symbolic Z-matrix:
 Charge =  0 Multiplicity = 1
 C                    -1.66865   0.72343  -0.0344 
 O                    -2.58475   0.16034  -0.58916 
 O                    -0.57333   0.11772   0.498 
 C                     0.67489   0.58067   0.02198 
 H                    -1.61297   1.83085   0.10051 
 H                     0.67686   0.57994  -1.09384 
 H                     0.88125   1.60572   0.41341 
 H                     1.46509  -0.11627   0.38747 
 Xx                   -0.65246  -0.46482   0.37908 
 Xx                   -0.60145   0.35431   1.04887 
 
                          Input orientation:                          
 ---------------------------------------------------------------------
 Center     Atomic      Atomic             Coordinates (Angstroms)
 Number     Number       Type             X           Y           Z
 ---------------------------------------------------------------------
      1          6           0       -1.668650    0.723430   -0.034400
      2          8           0       -2.584750    0.160340   -0.589160
      3          8           0       -0.573330    0.117720    0.498000
      4          6           0        0.674890    0.580670    0.021980
      5          1           0       -1.612970    1.830850    0.100510
      6          1           0        0.676860    0.579940   -1.093840
      7          1           0        0.881250    1.605720    0.413410
      8          1           0        1.465090   -0.116270    0.387470
 ---------------------------------------------------------------------
                    Distance matrix (angstroms):
                    1          2          3          4          5
     1  C    0.000000
     2  O    1.209987   0.000000
     3  O    1.360169   2.286820   0.000000
     4  C    2.348561   3.342966   1.413850   0.000000
     5  H    1.116996   2.051976   2.042955   2.608337   0.000000
     6  H    2.577677   3.326991   2.076193   1.115822   2.869594
     7  H    2.735134   3.886827   2.082571   1.116481   2.523831
     8  H    3.271605   4.175108   2.054781   1.115224   3.653502
                    6          7          8
     6  H    0.000000
     7  H    1.834612   0.000000
     8  H    1.816671   1.818459   0.000000
 Stoichiometry    C2H4O2
 Framework group  C1[X(C2H4O2)]
 Deg. of freedom    18
 Full point group                 C1      NOp   1
 Largest Abelian subgroup         C1      NOp   1
 Largest concise Abelian subgroup C1      NOp   1
                         Standard orientation:                         
 ---------------------------------------------------------------------
 Center     Atomic      Atomic             Coordinates (Angstroms)
 Number     Number       Type             X           Y           Z
 ---------------------------------------------------------------------
      1          6           0        0.706337    0.281556   -0.217867
      2          8           0        1.741495   -0.104578    0.275506
      3          8           0       -0.432049   -0.451977   -0.344627
      4          6           0       -1.593818    0.116178    0.226742
      5          1           0        0.561729    1.310291   -0.628321
      6          1           0       -1.386575    0.418766    1.280569
      7          1           0       -1.929437    0.995105   -0.374405
      8          1           0       -2.396406   -0.658129    0.221875
 ---------------------------------------------------------------------
 Rotational constants (GHZ):     35.2867721      4.7898637      4.6989826
 Standard basis: CC-pVTZ (5D, 7F)
 There are   176 symmetry adapted basis functions of A   symmetry.
 Integral buffers will be    131072 words long.
 Raffenetti 1 integral format.
 Two-electron integral symmetry is turned on.
   176 basis functions,   276 primitive gaussians,   200 cartesian basis functions
    16 alpha electrons       16 beta electrons
       nuclear repulsion energy       119.1637153721 Hartrees.
 NAtoms=    8 NActive=    8 NUniq=    8 SFac= 7.50D-01 NAtFMM=   80 NAOKFM=F Big=F
 One-electron integrals computed using PRISM.
 NBasis=   176 RedAO= T  NBF=   176
 NBsUse=   176 1.00D-06 NBFU=   176
 Harris functional with IExCor=  205 diagonalized for initial guess.
 ExpMin= 1.03D-01 ExpMax= 1.53D+04 ExpMxC= 5.22D+02 IAcc=1 IRadAn=         1 AccDes= 0.00D+00
 HarFok:  IExCor=  205 AccDes= 0.00D+00 IRadAn=         1 IDoV= 1
 ScaDFX=  1.000000  1.000000  1.000000  1.000000
 FoFCou: FMM=F IPFlag=           0 FMFlag=      100000 FMFlg1=           0
         NFxFlg=           0 DoJE=T BraDBF=F KetDBF=T FulRan=T
         Omega=  0.000000  0.000000  1.000000  0.000000  0.000000 ICntrl=     500 IOpCl=  0
         NMat0=    1 NMatS0=    1 NMatT0=    0 NMatD0=    1 NMtDS0=    0 NMtDT0=    0
         I1Cent=           4 NGrid=           0.
 Petite list used in FoFCou.
 Initial guess orbital symmetries:
       Occupied  (A) (A) (A) (A) (A) (A) (A) (A) (A) (A) (A) (A)
                 (A) (A) (A) (A)
       Virtual   (A) (A) (A) (A) (A) (A) (A) (A) (A) (A) (A) (A)
                 (A) (A) (A) (A) (A) (A) (A) (A) (A) (A) (A) (A)
                 (A) (A) (A) (A) (A) (A) (A) (A) (A) (A) (A) (A)
                 (A) (A) (A) (A) (A) (A) (A) (A) (A) (A) (A) (A)
                 (A) (A) (A) (A) (A) (A) (A) (A) (A) (A) (A) (A)
                 (A) (A) (A) (A) (A) (A) (A) (A) (A) (A) (A) (A)
                 (A) (A) (A) (A) (A) (A) (A) (A) (A) (A) (A) (A)
                 (A) (A) (A) (A) (A) (A) (A) (A) (A) (A) (A) (A)
                 (A) (A) (A) (A) (A) (A) (A) (A) (A) (A) (A) (A)
                 (A) (A) (A) (A) (A) (A) (A) (A) (A) (A) (A) (A)
                 (A) (A) (A) (A) (A) (A) (A) (A) (A) (A) (A) (A)
                 (A) (A) (A) (A) (A) (A) (A) (A) (A) (A) (A) (A)
                 (A) (A) (A) (A) (A) (A) (A) (A) (A) (A) (A) (A)
                 (A) (A) (A) (A)
 The electronic state of the initial guess is 1-A.
 Requested convergence on RMS density matrix=1.00D-08 within 128 cycles.
 Requested convergence on MAX density matrix=1.00D-06.
 Requested convergence on             energy=1.00D-06.
 No special actions if energy rises.
 Keep R1 ints in memory in canonical form, NReq=206216466.
 SCF Done:  E(RHF) =  -227.855101319     A.U. after   14 cycles
             Convg  =    0.6586D-08             -V/T =  2.0024
 ExpMin= 1.03D-01 ExpMax= 1.53D+04 ExpMxC= 5.22D+02 IAcc=1 IRadAn=         1 AccDes= 0.00D+00
 HarFok:  IExCor=  205 AccDes= 0.00D+00 IRadAn=         1 IDoV=-2
 ScaDFX=  1.000000  1.000000  1.000000  1.000000
 Range of M.O.s used for correlation:     5   176
 NBasis=   176 NAE=    16 NBE=    16 NFC=     4 NFV=     0
 NROrb=    172 NOA=    12 NOB=    12 NVA=   160 NVB=   160

 **** Warning!!: The largest alpha MO coefficient is  0.11311423D+02

 Fully in-core method, ICMem=   428074400.
 JobTyp=1 Pass  1 fully in-core, NPsUse=  8.
 Spin components of T(2) and E(2):
     alpha-alpha T2 =       0.2749257126D-01 E2=     -0.9866290499D-01
     alpha-beta  T2 =       0.1601795028D+00 E2=     -0.6032670087D+00
     beta-beta   T2 =       0.2749257126D-01 E2=     -0.9866290499D-01
 ANorm=    0.1102345066D+01
 E2 =    -0.8005928187D+00 EUMP2 =    -0.22865569413799D+03

 **********************************************************************

            Population analysis using the SCF density.

 **********************************************************************

 Orbital symmetries:
       Occupied  (A) (A) (A) (A) (A) (A) (A) (A) (A) (A) (A) (A)
                 (A) (A) (A) (A)
       Virtual   (A) (A) (A) (A) (A) (A) (A) (A) (A) (A) (A) (A)
                 (A) (A) (A) (A) (A) (A) (A) (A) (A) (A) (A) (A)
                 (A) (A) (A) (A) (A) (A) (A) (A) (A) (A) (A) (A)
                 (A) (A) (A) (A) (A) (A) (A) (A) (A) (A) (A) (A)
                 (A) (A) (A) (A) (A) (A) (A) (A) (A) (A) (A) (A)
                 (A) (A) (A) (A) (A) (A) (A) (A) (A) (A) (A) (A)
                 (A) (A) (A) (A) (A) (A) (A) (A) (A) (A) (A) (A)
                 (A) (A) (A) (A) (A) (A) (A) (A) (A) (A) (A) (A)
                 (A) (A) (A) (A) (A) (A) (A) (A) (A) (A) (A) (A)
                 (A) (A) (A) (A) (A) (A) (A) (A) (A) (A) (A) (A)
                 (A) (A) (A) (A) (A) (A) (A) (A) (A) (A) (A) (A)
                 (A) (A) (A) (A) (A) (A) (A) (A) (A) (A) (A) (A)
                 (A) (A) (A) (A) (A) (A) (A) (A) (A) (A) (A) (A)
                 (A) (A) (A) (A)
 The electronic state is 1-A.
 Alpha  occ. eigenvalues --  -20.60363 -20.56765 -11.39334 -11.31408  -1.45861
 Alpha  occ. eigenvalues --   -1.37501  -0.97711  -0.84087  -0.72715  -0.68474
 Alpha  occ. eigenvalues --   -0.67022  -0.61588  -0.55660  -0.51933  -0.47222
 Alpha  occ. eigenvalues --   -0.46143
 Alpha virt. eigenvalues --    0.12419   0.14594   0.18298   0.19901   0.20862
 Alpha virt. eigenvalues --    0.23718   0.32092   0.37114   0.37334   0.39603
 Alpha virt. eigenvalues --    0.47272   0.51512   0.54299   0.55129   0.59059
 Alpha virt. eigenvalues --    0.59532   0.60374   0.61633   0.66086   0.68747
 Alpha virt. eigenvalues --    0.73181   0.75668   0.79355   0.80915   0.86451
 Alpha virt. eigenvalues --    0.90583   0.93145   0.95908   1.01227   1.03846
 Alpha virt. eigenvalues --    1.07283   1.12859   1.14371   1.15385   1.19213
 Alpha virt. eigenvalues --    1.22076   1.25230   1.27871   1.34488   1.35896
 Alpha virt. eigenvalues --    1.38489   1.41509   1.47425   1.49067   1.49586
 Alpha virt. eigenvalues --    1.54485   1.56759   1.70163   1.76173   1.81460
 Alpha virt. eigenvalues --    1.90876   1.96073   2.10294   2.15441   2.21842
 Alpha virt. eigenvalues --    2.28074   2.29211   2.37445   2.40491   2.44319
 Alpha virt. eigenvalues --    2.47138   2.51324   2.56015   2.66186   2.73786
 Alpha virt. eigenvalues --    2.79306   2.87830   2.88810   3.00738   3.04590
 Alpha virt. eigenvalues --    3.05376   3.06561   3.11057   3.14172   3.18255
 Alpha virt. eigenvalues --    3.21497   3.25268   3.28868   3.29440   3.34023
 Alpha virt. eigenvalues --    3.39425   3.41401   3.44451   3.47158   3.51706
 Alpha virt. eigenvalues --    3.57098   3.59936   3.64214   3.64816   3.65520
 Alpha virt. eigenvalues --    3.69331   3.71117   3.75580   3.78886   3.80844
 Alpha virt. eigenvalues --    3.85447   3.92785   3.99508   4.04658   4.08340
 Alpha virt. eigenvalues --    4.10677   4.13511   4.15002   4.23130   4.27903
 Alpha virt. eigenvalues --    4.30741   4.32411   4.38143   4.40171   4.47967
 Alpha virt. eigenvalues --    4.58713   4.62462   4.64935   4.77065   4.79948
 Alpha virt. eigenvalues --    4.93401   4.94286   4.99205   5.05471   5.09341
 Alpha virt. eigenvalues --    5.13440   5.21164   5.24369   5.30549   5.39484
 Alpha virt. eigenvalues --    5.42736   5.46456   5.51861   5.60658   5.62792
 Alpha virt. eigenvalues --    5.63830   5.75152   5.85015   5.95773   6.05980
 Alpha virt. eigenvalues --    6.12213   6.15418   6.15657   6.28437   6.40304
 Alpha virt. eigenvalues --    6.56986   6.64448   6.67604   6.70890   6.82281
 Alpha virt. eigenvalues --    6.86831   6.89743   7.21632   7.23456   7.31349
 Alpha virt. eigenvalues --    7.32549   7.51411   7.53665   7.68716   7.75766
 Alpha virt. eigenvalues --    7.82208  10.29489  11.43358  13.44445  13.47206
          Condensed to atoms (all electrons):
              1          2          3          4          5          6
     1  C    4.184126   0.739689   0.361585  -0.041062   0.403101   0.000231
     2  O    0.739689   7.745312  -0.069892  -0.000738  -0.073312   0.003019
     3  O    0.361585  -0.069892   7.911575   0.286188  -0.086520  -0.044698
     4  C   -0.041062  -0.000738   0.286188   4.559548  -0.000788   0.408033
     5  H    0.403101  -0.073312  -0.086520  -0.000788   0.694365  -0.002200
     6  H    0.000231   0.003019  -0.044698   0.408033  -0.002200   0.639378
     7  H   -0.009764  -0.000558  -0.042416   0.420054   0.009829  -0.050495
     8  H    0.003395  -0.000143  -0.026767   0.413891  -0.000664  -0.028825
              7          8
     1  C   -0.009764   0.003395
     2  O   -0.000558  -0.000143
     3  O   -0.042416  -0.026767
     4  C    0.420054   0.413891
     5  H    0.009829  -0.000664
     6  H   -0.050495  -0.028825
     7  H    0.630949  -0.031556
     8  H   -0.031556   0.557515
 Mulliken atomic charges:
              1
     1  C    0.358699
     2  O   -0.343378
     3  O   -0.289054
     4  C   -0.045126
     5  H    0.056190
     6  H    0.075558
     7  H    0.073956
     8  H    0.113154
 Sum of Mulliken atomic charges =   0.00000
 Mulliken charges with hydrogens summed into heavy atoms:
              1
     1  C    0.414889
     2  O   -0.343378
     3  O   -0.289054
     4  C    0.217543
 Sum of Mulliken charges with hydrogens summed into heavy atoms =   0.00000
 Electronic spatial extent (au):  <R**2>=            288.5016
 Charge=              0.0000 electrons
 Dipole moment (field-independent basis, Debye):
    X=             -3.3862    Y=              2.0381    Z=             -0.3488  Tot=              3.9676
 Quadrupole moment (field-independent basis, Debye-Ang):
   XX=            -25.9204   YY=            -23.4327   ZZ=            -23.2983
   XY=              0.7593   XZ=             -2.3466   YZ=             -0.7073
 Traceless Quadrupole moment (field-independent basis, Debye-Ang):
   XX=             -1.7033   YY=              0.7845   ZZ=              0.9188
   XY=              0.7593   XZ=             -2.3466   YZ=             -0.7073
 Octapole moment (field-independent basis, Debye-Ang**2):
  XXX=            -14.7664  YYY=             -0.0664  ZZZ=              0.1900  XYY=              0.6246
  XXY=             -1.1736  XXZ=             -1.8448  XZZ=              1.1811  YZZ=              0.3541
  YYZ=             -0.9456  XYZ=              0.4032
 Hexadecapole moment (field-independent basis, Debye-Ang**3):
 XXXX=           -278.0344 YYYY=            -44.4827 ZZZZ=            -38.7649 XXXY=              4.4023
 XXXZ=             -2.3725 YYYX=              1.7467 YYYZ=             -1.3139 ZZZX=              0.4234
 ZZZY=              0.5958 XXYY=            -50.5892 XXZZ=            -51.9226 YYZZ=            -13.9896
 XXYZ=             -0.5663 YYXZ=              0.3885 ZZXY=             -0.4013
 N-N= 1.191637153721D+02 E-N=-7.748786805030D+02  KE= 2.273167848899D+02
 1\1\GINC-ROCK\SP\RMP2-FC\CC-pVTZ\C2H4O2\STYLIANAKIS\04-Jun-2016\0\\# m
 p2/cc-pVTZ\\methylformate-C=O-Lp-ecl.hin\\0,1\C,0,-1.66865,0.72343,-0.
 0344\O,0,-2.58475,0.16034,-0.58916\O,0,-0.57333,0.11772,0.498\C,0,0.67
 489,0.58067,0.02198\H,0,-1.61297,1.83085,0.10051\H,0,0.67686,0.57994,-
 1.09384\H,0,0.88125,1.60572,0.41341\H,0,1.46509,-0.11627,0.38747\X,0,-
 0.65246,-0.46482,0.37908\X,0,-0.60145,0.35431,1.04887\\Version=EM64L-G
 09RevA.01\State=1-A\HF=-227.8551013\MP2=-228.6556941\RMSD=6.586e-09\PG
 =C01 [X(C2H4O2)]\\@


 TELEVISION IS CALLED A MEDIUM BECAUSE IT ISN'T
 RARE, AND IT ISN'T WELL DONE.
 Job cpu time:  0 days  0 hours  9 minutes  3.8 seconds.
 File lengths (MBytes):  RWF=     14 Int=      0 D2E=      0 Chk=      2 Scr=      1
 Normal termination of Gaussian 09 at Sat Jun  4 21:57:03 2016.
