c7040 1397326 SLURM_STEP_IDnodef 0 0 1 24 SLURM_MEM_PER_CPUnodef 122880
/mnt/lustre/scratch/slurm/1397326/uviqopsc.UHhWC0u0oy
OMP_STACKSIZE=128m
-P- 24
-M- 114688MB
 Entering Gaussian System, Link 0=/opt/cesga/g09/e1/g09.exe
 Initial command:
 /opt/cesga/g09/e1/l1.exe "/mnt/lustre/scratch/slurm/1397326/uviqopsc.UHhWC0u0oy/Gau-7287.inp" -scrdir="/mnt/lustre/scratch/slurm/1397326/uviqopsc.UHhWC0u0oy/"
 Default is to use a total of  24 processors:
                               24 via shared-memory
                                1 via Linda
 Entering Link 1 = /opt/cesga/g09/e1/l1.exe PID=      7313.
  
 Copyright (c) 1988,1990,1992,1993,1995,1998,2003,2009,2015,
            Gaussian, Inc.  All Rights Reserved.
  
 This is part of the Gaussian(R) 09 program.  It is based on
 the Gaussian(R) 03 system (copyright 2003, Gaussian, Inc.),
 the Gaussian(R) 98 system (copyright 1998, Gaussian, Inc.),
 the Gaussian(R) 94 system (copyright 1995, Gaussian, Inc.),
 the Gaussian 92(TM) system (copyright 1992, Gaussian, Inc.),
 the Gaussian 90(TM) system (copyright 1990, Gaussian, Inc.),
 the Gaussian 88(TM) system (copyright 1988, Gaussian, Inc.),
 the Gaussian 86(TM) system (copyright 1986, Carnegie Mellon
 University), and the Gaussian 82(TM) system (copyright 1983,
 Carnegie Mellon University). Gaussian is a federally registered
 trademark of Gaussian, Inc.
  
 This software contains proprietary and confidential information,
 including trade secrets, belonging to Gaussian, Inc.
  
 This software is provided under written license and may be
 used, copied, transmitted, or stored only in accord with that
 written license.
  
 The following legend is applicable only to US Government
 contracts under FAR:
  
                    RESTRICTED RIGHTS LEGEND
  
 Use, reproduction and disclosure by the US Government is
 subject to restrictions as set forth in subparagraphs (a)
 and (c) of the Commercial Computer Software - Restricted
 Rights clause in FAR 52.227-19.
  
 Gaussian, Inc.
 340 Quinnipiac St., Bldg. 40, Wallingford CT 06492
  
  
 ---------------------------------------------------------------
 Warning -- This program may not be used in any manner that
 competes with the business of Gaussian, Inc. or will provide
 assistance to any competitor of Gaussian, Inc.  The licensee
 of this program is prohibited from giving any competitor of
 Gaussian, Inc. access to this program.  By using this program,
 the user acknowledges that Gaussian, Inc. is engaged in the
 business of creating and licensing software in the field of
 computational chemistry and represents and warrants to the
 licensee that it is not a competitor of Gaussian, Inc. and that
 it will not use this program in any manner prohibited above.
 ---------------------------------------------------------------
  

 Cite this work as:
 Gaussian 09, Revision E.01,
 M. J. Frisch, G. W. Trucks, H. B. Schlegel, G. E. Scuseria, 
 M. A. Robb, J. R. Cheeseman, G. Scalmani, V. Barone, B. Mennucci, 
 G. A. Petersson, H. Nakatsuji, M. Caricato, X. Li, H. P. Hratchian, 
 A. F. Izmaylov, J. Bloino, G. Zheng, J. L. Sonnenberg, M. Hada, 
 M. Ehara, K. Toyota, R. Fukuda, J. Hasegawa, M. Ishida, T. Nakajima, 
 Y. Honda, O. Kitao, H. Nakai, T. Vreven, J. A. Montgomery, Jr., 
 J. E. Peralta, F. Ogliaro, M. Bearpark, J. J. Heyd, E. Brothers, 
 K. N. Kudin, V. N. Staroverov, T. Keith, R. Kobayashi, J. Normand, 
 K. Raghavachari, A. Rendell, J. C. Burant, S. S. Iyengar, J. Tomasi, 
 M. Cossi, N. Rega, J. M. Millam, M. Klene, J. E. Knox, J. B. Cross, 
 V. Bakken, C. Adamo, J. Jaramillo, R. Gomperts, R. E. Stratmann, 
 O. Yazyev, A. J. Austin, R. Cammi, C. Pomelli, J. W. Ochterski, 
 R. L. Martin, K. Morokuma, V. G. Zakrzewski, G. A. Voth, 
 P. Salvador, J. J. Dannenberg, S. Dapprich, A. D. Daniels, 
 O. Farkas, J. B. Foresman, J. V. Ortiz, J. Cioslowski, 
 and D. J. Fox, Gaussian, Inc., Wallingford CT, 2013.
 
 ******************************************
 Gaussian 09:  ES64L-G09RevE.01 30-Nov-2015
                15-Jul-2018 
 ******************************************
 %Mem=105Gb
 %NProcShared=24
 Will use up to   24 processors via shared memory.
 Default route:  SCF=Direct
 -----------------
 # opt mp2/cc-pVTZ
 -----------------
 1/18=20,19=15,38=1/1,3;
 2/9=110,12=2,17=6,18=5,40=1/2;
 3/5=16,6=1,11=9,16=1,25=1,30=1,71=1/1,2,3;
 4//1;
 5/5=2,38=5/2;
 8/6=4,10=1/1;
 9/15=2,16=-3/6;
 10/5=1/2;
 6/7=2,8=2,9=2,10=2/1;
 7/12=2/1,2,3,16;
 1/18=20,19=15/3(2);
 2/9=110/2;
 99//99;
 2/9=110/2;
 3/5=16,6=1,11=9,16=1,25=1,30=1,71=1/1,2,3;
 4/5=5,16=3,69=1/1;
 5/5=2,38=5/2;
 8/6=4,10=1/1;
 9/15=2,16=-3/6;
 10/5=1/2;
 7/12=2/1,2,3,16;
 1/18=20,19=15/3(-8);
 2/9=110/2;
 6/7=2,8=2,9=2,10=2/1;
 99//99;
 --------------
 methanethiol-g
 --------------
 Symbolic Z-matrix:
 Charge =  0 Multiplicity = 1
 C                    -1.15443   0.02018   0. 
 S                     0.66011  -0.08652   0. 
 H                     0.92204   1.21476   0.00001 
 H                    -1.51671   0.52266  -0.88614 
 H                    -1.52373  -0.99657  -0.00015 
 H                    -1.51672   0.52238   0.8863 
 

 GradGradGradGradGradGradGradGradGradGradGradGradGradGradGradGradGradGrad
 Berny optimization.
 Initialization pass.
                           ----------------------------
                           !    Initial Parameters    !
                           ! (Angstroms and Degrees)  !
 --------------------------                            --------------------------
 ! Name  Definition              Value          Derivative Info.                !
 --------------------------------------------------------------------------------
 ! R1    R(1,2)                  1.8177         estimate D2E/DX2                !
 ! R2    R(1,4)                  1.0812         estimate D2E/DX2                !
 ! R3    R(1,5)                  1.0817         estimate D2E/DX2                !
 ! R4    R(1,6)                  1.0812         estimate D2E/DX2                !
 ! R5    R(2,3)                  1.3274         estimate D2E/DX2                !
 ! A1    A(2,1,4)              111.2095         estimate D2E/DX2                !
 ! A2    A(2,1,5)              106.5968         estimate D2E/DX2                !
 ! A3    A(2,1,6)              111.209          estimate D2E/DX2                !
 ! A4    A(4,1,5)              108.8027         estimate D2E/DX2                !
 ! A5    A(4,1,6)              110.1029         estimate D2E/DX2                !
 ! A6    A(5,1,6)              108.8022         estimate D2E/DX2                !
 ! A7    A(1,2,3)               98.0159         estimate D2E/DX2                !
 ! D1    D(4,1,2,3)             61.5398         estimate D2E/DX2                !
 ! D2    D(5,1,2,3)            179.9918         estimate D2E/DX2                !
 ! D3    D(6,1,2,3)            -61.557          estimate D2E/DX2                !
 --------------------------------------------------------------------------------
 Trust Radius=3.00D-01 FncErr=1.00D-07 GrdErr=1.00D-07
 Number of steps in this run=     25 maximum allowed number of steps=    100.
 GradGradGradGradGradGradGradGradGradGradGradGradGradGradGradGradGradGrad

                          Input orientation:                          
 ---------------------------------------------------------------------
 Center     Atomic      Atomic             Coordinates (Angstroms)
 Number     Number       Type             X           Y           Z
 ---------------------------------------------------------------------
      1          6           0       -1.154429    0.020178    0.000000
      2         16           0        0.660106   -0.086519    0.000000
      3          1           0        0.922043    1.214763    0.000008
      4          1           0       -1.516713    0.522657   -0.886144
      5          1           0       -1.523733   -0.996572   -0.000154
      6          1           0       -1.516720    0.522382    0.886298
 ---------------------------------------------------------------------
                    Distance matrix (angstroms):
                    1          2          3          4          5
     1  C    0.000000
     2  S    1.817669   0.000000
     3  H    2.395573   1.327383   0.000000
     4  H    1.081197   2.427939   2.685481   0.000000
     5  H    1.081742   2.365872   3.297245   1.758717   0.000000
     6  H    1.081197   2.427932   2.685604   1.772442   1.758712
                    6
     6  H    0.000000
 Stoichiometry    CH4S
 Framework group  C1[X(CH4S)]
 Deg. of freedom    12
 Full point group                 C1      NOp   1
 Largest Abelian subgroup         C1      NOp   1
 Largest concise Abelian subgroup C1      NOp   1
                         Standard orientation:                         
 ---------------------------------------------------------------------
 Center     Atomic      Atomic             Coordinates (Angstroms)
 Number     Number       Type             X           Y           Z
 ---------------------------------------------------------------------
      1          6           0       -1.154429    0.020178   -0.000000
      2         16           0        0.660106   -0.086519   -0.000000
      3          1           0        0.922043    1.214764    0.000008
      4          1           0       -1.516713    0.522657   -0.886144
      5          1           0       -1.523733   -0.996572   -0.000154
      6          1           0       -1.516720    0.522382    0.886298
 ---------------------------------------------------------------------
 Rotational constants (GHZ):    105.1387538     12.9256954     12.4051551
 Standard basis: CC-pVTZ (5D, 7F)
 There are   134 symmetry adapted cartesian basis functions of A   symmetry.
 There are   120 symmetry adapted basis functions of A   symmetry.
   120 basis functions,   214 primitive gaussians,   134 cartesian basis functions
    13 alpha electrons       13 beta electrons
       nuclear repulsion energy        56.4689632193 Hartrees.
 NAtoms=    6 NActive=    6 NUniq=    6 SFac= 1.00D+00 NAtFMM=   60 NAOKFM=F Big=F
 Integral buffers will be    131072 words long.
 Raffenetti 1 integral format.
 Two-electron integral symmetry is turned on.
 One-electron integrals computed using PRISM.
 NBasis=   120 RedAO= T EigKep=  1.79D-03  NBF=   120
 NBsUse=   120 1.00D-06 EigRej= -1.00D+00 NBFU=   120
 ExpMin= 1.03D-01 ExpMax= 3.74D+05 ExpMxC= 1.18D+03 IAcc=2 IRadAn=         4 AccDes= 0.00D+00
 Harris functional with IExCor=  205 and IRadAn=       4 diagonalized for initial guess.
 HarFok:  IExCor=  205 AccDes= 0.00D+00 IRadAn=         4 IDoV= 1 UseB2=F ITyADJ=14
 ICtDFT=  3500011 ScaDFX=  1.000000  1.000000  1.000000  1.000000
 FoFCou: FMM=F IPFlag=           0 FMFlag=      100000 FMFlg1=           0
         NFxFlg=           0 DoJE=T BraDBF=F KetDBF=T FulRan=T
         wScrn=  0.000000 ICntrl=     500 IOpCl=  0 I1Cent=   200000004 NGrid=           0
         NMat0=    1 NMatS0=      1 NMatT0=    0 NMatD0=    1 NMtDS0=    0 NMtDT0=    0
 Petite list used in FoFCou.
 Keep R1 ints in memory in canonical form, NReq=28467468.
 Requested convergence on RMS density matrix=1.00D-08 within 128 cycles.
 Requested convergence on MAX density matrix=1.00D-06.
 Requested convergence on             energy=1.00D-06.
 No special actions if energy rises.
 SCF Done:  E(RHF) =  -437.756757328     A.U. after   11 cycles
            NFock= 11  Conv=0.28D-08     -V/T= 2.0001
 ExpMin= 1.03D-01 ExpMax= 3.74D+05 ExpMxC= 1.18D+03 IAcc=3 IRadAn=         5 AccDes= 0.00D+00
 HarFok:  IExCor=  205 AccDes= 0.00D+00 IRadAn=         5 IDoV=-2 UseB2=F ITyADJ=14
 ICtDFT= 12500011 ScaDFX=  1.000000  1.000000  1.000000  1.000000
 Range of M.O.s used for correlation:     7   120
 NBasis=   120 NAE=    13 NBE=    13 NFC=     6 NFV=     0
 NROrb=    114 NOA=     7 NOB=     7 NVA=   107 NVB=   107

 **** Warning!!: The largest alpha MO coefficient is  0.11900797D+02

 Fully direct method using O(ONN) memory.
 JobTyp=1 Pass  1:  I=   7 to  13 NPSUse= 24 ParTrn=T ParDer=T DoDerP=T.
 Spin components of T(2) and E(2):
     alpha-alpha T2 =       0.1524397701D-01 E2=     -0.3882073475D-01
     alpha-beta  T2 =       0.9957095578D-01 E2=     -0.2853461171D+00
     beta-beta   T2 =       0.1524397701D-01 E2=     -0.3882073475D-01
 ANorm=    0.1063042290D+01
 E2 =    -0.3629875866D+00 EUMP2 =    -0.43811974491500D+03
          IDoAtm=111111
          Differentiating once with respect to electric field.
                with respect to dipole field.
          Differentiating once with respect to nuclear coordinates.
 Keep R1 ints in memory in canonical form, NReq=28429684.
          There are     1 degrees of freedom in the 1st order CPHF.  IDoFFX=0 NUNeed=     1.
 LinEq1:  Iter=  0 NonCon=     1 RMS=2.87D-03 Max=2.46D-02 NDo=     1
 AX will form     1 AO Fock derivatives at one time.
 LinEq1:  Iter=  1 NonCon=     1 RMS=9.38D-04 Max=1.11D-02 NDo=     1
 LinEq1:  Iter=  2 NonCon=     1 RMS=2.27D-04 Max=2.40D-03 NDo=     1
 LinEq1:  Iter=  3 NonCon=     1 RMS=6.20D-05 Max=8.15D-04 NDo=     1
 LinEq1:  Iter=  4 NonCon=     1 RMS=1.13D-05 Max=1.44D-04 NDo=     1
 LinEq1:  Iter=  5 NonCon=     1 RMS=2.69D-06 Max=2.93D-05 NDo=     1
 LinEq1:  Iter=  6 NonCon=     1 RMS=6.63D-07 Max=6.15D-06 NDo=     1
 LinEq1:  Iter=  7 NonCon=     1 RMS=1.03D-07 Max=1.23D-06 NDo=     1
 LinEq1:  Iter=  8 NonCon=     1 RMS=2.71D-08 Max=2.72D-07 NDo=     1
 LinEq1:  Iter=  9 NonCon=     1 RMS=5.26D-09 Max=8.08D-08 NDo=     1
 LinEq1:  Iter= 10 NonCon=     1 RMS=9.03D-10 Max=1.53D-08 NDo=     1
 LinEq1:  Iter= 11 NonCon=     1 RMS=1.56D-10 Max=1.51D-09 NDo=     1
 LinEq1:  Iter= 12 NonCon=     0 RMS=2.18D-11 Max=2.50D-10 NDo=     1
 Linear equations converged to 1.000D-10 1.000D-09 after    12 iterations.
 End of Minotr F.D. properties file   721 does not exist.
 End of Minotr F.D. properties file   722 does not exist.
 End of Minotr F.D. properties file   788 does not exist.

 **********************************************************************

            Population analysis using the SCF density.

 **********************************************************************

 Orbital symmetries:
       Occupied  (A) (A) (A) (A) (A) (A) (A) (A) (A) (A) (A) (A)
                 (A)
       Virtual   (A) (A) (A) (A) (A) (A) (A) (A) (A) (A) (A) (A)
                 (A) (A) (A) (A) (A) (A) (A) (A) (A) (A) (A) (A)
                 (A) (A) (A) (A) (A) (A) (A) (A) (A) (A) (A) (A)
                 (A) (A) (A) (A) (A) (A) (A) (A) (A) (A) (A) (A)
                 (A) (A) (A) (A) (A) (A) (A) (A) (A) (A) (A) (A)
                 (A) (A) (A) (A) (A) (A) (A) (A) (A) (A) (A) (A)
                 (A) (A) (A) (A) (A) (A) (A) (A) (A) (A) (A) (A)
                 (A) (A) (A) (A) (A) (A) (A) (A) (A) (A) (A) (A)
                 (A) (A) (A) (A) (A) (A) (A) (A) (A) (A) (A)
 The electronic state is 1-A.
 Alpha  occ. eigenvalues --  -91.94835 -11.25546  -8.95083  -6.63223  -6.63118
 Alpha  occ. eigenvalues --   -6.63013  -1.03768  -0.86915  -0.60899  -0.59339
 Alpha  occ. eigenvalues --   -0.53110  -0.45677  -0.35610
 Alpha virt. eigenvalues --    0.12591   0.16312   0.20669   0.20726   0.21415
 Alpha virt. eigenvalues --    0.34958   0.36533   0.38396   0.38633   0.43663
 Alpha virt. eigenvalues --    0.45776   0.51271   0.52915   0.55791   0.57030
 Alpha virt. eigenvalues --    0.62961   0.63529   0.64852   0.65619   0.78677
 Alpha virt. eigenvalues --    0.88424   0.90332   0.92219   1.00633   1.04127
 Alpha virt. eigenvalues --    1.09215   1.11568   1.16615   1.17448   1.23313
 Alpha virt. eigenvalues --    1.26640   1.28018   1.35027   1.45204   1.47671
 Alpha virt. eigenvalues --    1.52071   1.52643   1.54882   1.78822   1.84210
 Alpha virt. eigenvalues --    1.90015   1.91457   1.93669   1.96205   2.00761
 Alpha virt. eigenvalues --    2.08527   2.14175   2.16364   2.21493   2.26085
 Alpha virt. eigenvalues --    2.28696   2.36529   2.55198   2.55205   2.57387
 Alpha virt. eigenvalues --    2.61701   2.74917   2.86703   3.00435   3.05447
 Alpha virt. eigenvalues --    3.07489   3.11430   3.23964   3.27120   3.35894
 Alpha virt. eigenvalues --    3.36458   3.37214   3.40065   3.59801   3.60942
 Alpha virt. eigenvalues --    3.61991   3.67082   3.72124   3.75288   3.78887
 Alpha virt. eigenvalues --    3.86018   3.89660   3.89794   3.98374   4.06213
 Alpha virt. eigenvalues --    4.08599   4.09464   4.17995   4.29591   4.31382
 Alpha virt. eigenvalues --    4.31652   4.38382   4.38674   4.42718   4.44230
 Alpha virt. eigenvalues --    4.45911   4.58770   4.71276   4.98250   5.07768
 Alpha virt. eigenvalues --    5.07955   5.31819   5.39087   5.42243   5.48872
 Alpha virt. eigenvalues --    5.58339   5.59232   5.61113   6.03266   6.19481
 Alpha virt. eigenvalues --    6.21325  13.35580
          Condensed to atoms (all electrons):
               1          2          3          4          5          6
     1  C    4.737202   0.276285  -0.022970   0.417971   0.410664   0.417970
     2  S    0.276285  15.637015   0.370606  -0.037765  -0.029572  -0.037771
     3  H   -0.022970   0.370606   0.566365  -0.004506   0.003819  -0.004505
     4  H    0.417971  -0.037765  -0.004506   0.577039  -0.029797  -0.032346
     5  H    0.410664  -0.029572   0.003819  -0.029797   0.568768  -0.029801
     6  H    0.417970  -0.037771  -0.004505  -0.032346  -0.029801   0.577046
 Mulliken charges:
               1
     1  C   -0.237123
     2  S   -0.178798
     3  H    0.091192
     4  H    0.109405
     5  H    0.105919
     6  H    0.109406
 Sum of Mulliken charges =  -0.00000
 Mulliken charges with hydrogens summed into heavy atoms:
               1
     1  C    0.087606
     2  S   -0.087606
 Electronic spatial extent (au):  <R**2>=            144.3624
 Charge=             -0.0000 electrons
 Dipole moment (field-independent basis, Debye):
    X=             -1.4236    Y=              0.8828    Z=              0.0000  Tot=              1.6751
 Quadrupole moment (field-independent basis, Debye-Ang):
   XX=            -20.2511   YY=            -19.4432   ZZ=            -22.6362
   XY=              1.4375   XZ=              0.0000   YZ=              0.0000
 Traceless Quadrupole moment (field-independent basis, Debye-Ang):
   XX=              0.5257   YY=              1.3336   ZZ=             -1.8594
   XY=              1.4375   XZ=              0.0000   YZ=              0.0000
 Octapole moment (field-independent basis, Debye-Ang**2):
  XXX=              0.2792  YYY=              0.9420  ZZZ=              0.0003  XYY=             -0.0728
  XXY=              1.4797  XXZ=             -0.0000  XZZ=             -2.5863  YZZ=              1.0668
  YYZ=             -0.0003  XYZ=              0.0000
 Hexadecapole moment (field-independent basis, Debye-Ang**3):
 XXXX=           -133.7554 YYYY=            -34.5838 ZZZZ=            -35.8178 XXXY=              2.7718
 XXXZ=              0.0001 YYYX=              3.6658 YYYZ=              0.0000 ZZZX=             -0.0004
 ZZZY=             -0.0000 XXYY=            -27.1857 XXZZ=            -28.9053 YYZZ=            -12.2799
 XXYZ=             -0.0000 YYXZ=              0.0005 ZZXY=             -0.5428
 N-N= 5.646896321929D+01 E-N=-1.153182897717D+03  KE= 4.377341637462D+02
 Calling FoFJK, ICntrl=  10002127 FMM=F ISym2X=0 I1Cent= 0 IOpClX= 0 NMat=1 NMatS=1 NMatT=0.
 ***** Axes restored to original set *****
 -------------------------------------------------------------------
 Center     Atomic                   Forces (Hartrees/Bohr)
 Number     Number              X              Y              Z
 -------------------------------------------------------------------
      1        6           0.003560793    0.002970389    0.000002351
      2       16          -0.000671085   -0.006768299   -0.000001291
      3        1          -0.001134399    0.004688109    0.000000546
      4        1          -0.000889673    0.001081612   -0.002451799
      5        1           0.000024588   -0.003053572   -0.000000987
      6        1          -0.000890224    0.001081762    0.002451180
 -------------------------------------------------------------------
 Cartesian Forces:  Max     0.006768299 RMS     0.002541834

 GradGradGradGradGradGradGradGradGradGradGradGradGradGradGradGradGradGrad
 Berny optimization.
 FormGI is forming the generalized inverse of G from B-inverse, IUseBI=4.
 Internal  Forces:  Max     0.005110129 RMS     0.002256243
 Search for a local minimum.
 Step number   1 out of a maximum of   25
 All quantities printed in internal units (Hartrees-Bohrs-Radians)
 Mixed Optimization -- RFO/linear search
 Second derivative matrix not updated -- first step.
 The second derivative matrix:
                          R1        R2        R3        R4        R5
           R1           0.24773
           R2           0.00000   0.35850
           R3           0.00000   0.00000   0.35785
           R4           0.00000   0.00000   0.00000   0.35850
           R5           0.00000   0.00000   0.00000   0.00000   0.27458
           A1           0.00000   0.00000   0.00000   0.00000   0.00000
           A2           0.00000   0.00000   0.00000   0.00000   0.00000
           A3           0.00000   0.00000   0.00000   0.00000   0.00000
           A4           0.00000   0.00000   0.00000   0.00000   0.00000
           A5           0.00000   0.00000   0.00000   0.00000   0.00000
           A6           0.00000   0.00000   0.00000   0.00000   0.00000
           A7           0.00000   0.00000   0.00000   0.00000   0.00000
           D1           0.00000   0.00000   0.00000   0.00000   0.00000
           D2           0.00000   0.00000   0.00000   0.00000   0.00000
           D3           0.00000   0.00000   0.00000   0.00000   0.00000
                          A1        A2        A3        A4        A5
           A1           0.16000
           A2           0.00000   0.16000
           A3           0.00000   0.00000   0.16000
           A4           0.00000   0.00000   0.00000   0.16000
           A5           0.00000   0.00000   0.00000   0.00000   0.16000
           A6           0.00000   0.00000   0.00000   0.00000   0.00000
           A7           0.00000   0.00000   0.00000   0.00000   0.00000
           D1           0.00000   0.00000   0.00000   0.00000   0.00000
           D2           0.00000   0.00000   0.00000   0.00000   0.00000
           D3           0.00000   0.00000   0.00000   0.00000   0.00000
                          A6        A7        D1        D2        D3
           A6           0.16000
           A7           0.00000   0.16000
           D1           0.00000   0.00000   0.00230
           D2           0.00000   0.00000   0.00000   0.00230
           D3           0.00000   0.00000   0.00000   0.00000   0.00230
 ITU=  0
     Eigenvalues ---    0.00230   0.09563   0.10182   0.16000   0.16000
     Eigenvalues ---    0.16000   0.16000   0.24773   0.27458   0.35785
     Eigenvalues ---    0.35850   0.35850
 RFO step:  Lambda=-3.42306157D-04 EMin= 2.30000000D-03
 Linear search not attempted -- first point.
 Iteration  1 RMS(Cart)=  0.01640458 RMS(Int)=  0.00015640
 Iteration  2 RMS(Cart)=  0.00021016 RMS(Int)=  0.00000861
 Iteration  3 RMS(Cart)=  0.00000002 RMS(Int)=  0.00000861
 Variable       Old X    -DE/DX   Delta X   Delta X   Delta X     New X
                                 (Linear)    (Quad)   (Total)
    R1        3.43490  -0.00168   0.00000  -0.00677  -0.00677   3.42812
    R2        2.04317   0.00281   0.00000   0.00783   0.00783   2.05100
    R3        2.04420   0.00286   0.00000   0.00799   0.00799   2.05219
    R4        2.04317   0.00281   0.00000   0.00783   0.00783   2.05100
    R5        2.50839   0.00437   0.00000   0.01590   0.01590   2.52429
    A1        1.94097   0.00027   0.00000   0.00239   0.00238   1.94335
    A2        1.86047  -0.00180   0.00000  -0.01254  -0.01255   1.84791
    A3        1.94096   0.00027   0.00000   0.00241   0.00239   1.94336
    A4        1.89897   0.00038   0.00000   0.00104   0.00103   1.89999
    A5        1.92166   0.00044   0.00000   0.00506   0.00504   1.92670
    A6        1.89896   0.00038   0.00000   0.00105   0.00104   1.89999
    A7        1.71070  -0.00511   0.00000  -0.03187  -0.03187   1.67883
    D1        1.07407   0.00048   0.00000   0.00515   0.00516   1.07923
    D2        3.14145  -0.00000   0.00000   0.00016   0.00016  -3.14158
    D3       -1.07437  -0.00048   0.00000  -0.00482  -0.00482  -1.07920
         Item               Value     Threshold  Converged?
 Maximum Force            0.005110     0.000450     NO 
 RMS     Force            0.002256     0.000300     NO 
 Maximum Displacement     0.048771     0.001800     NO 
 RMS     Displacement     0.016562     0.001200     NO 
 Predicted change in Energy=-1.714607D-04
 GradGradGradGradGradGradGradGradGradGradGradGradGradGradGradGradGradGrad

                          Input orientation:                          
 ---------------------------------------------------------------------
 Center     Atomic      Atomic             Coordinates (Angstroms)
 Number     Number       Type             X           Y           Z
 ---------------------------------------------------------------------
      1          6           0       -1.148914    0.024577   -0.000009
      2         16           0        0.660841   -0.100697   -0.000074
      3          1           0        0.896235    1.214197    0.000094
      4          1           0       -1.510105    0.527986   -0.891124
      5          1           0       -1.517441   -0.996950   -0.000122
      6          1           0       -1.510061    0.527776    0.891242
 ---------------------------------------------------------------------
                    Distance matrix (angstroms):
                    1          2          3          4          5
     1  C    0.000000
     2  S    1.814085   0.000000
     3  H    2.365973   1.335799   0.000000
     4  H    1.085341   2.429448   2.656243   0.000000
     5  H    1.085970   2.355458   3.273378   1.766173   0.000000
     6  H    1.085341   2.429452   2.656234   1.782366   1.766175
                    6
     6  H    0.000000
 Stoichiometry    CH4S
 Framework group  C1[X(CH4S)]
 Deg. of freedom    12
 Full point group                 C1      NOp   1
 Largest Abelian subgroup         C1      NOp   1
 Largest concise Abelian subgroup C1      NOp   1
                         Standard orientation:                         
 ---------------------------------------------------------------------
 Center     Atomic      Atomic             Coordinates (Angstroms)
 Number     Number       Type             X           Y           Z
 ---------------------------------------------------------------------
      1          6           0       -1.150693    0.018432    0.000035
      2         16           0        0.660405   -0.085633   -0.000030
      3          1           0        0.880379    1.231929    0.000138
      4          1           0       -1.517757    0.517575   -0.891080
      5          1           0       -1.507228   -1.007342   -0.000077
      6          1           0       -1.517710    0.517366    0.891287
 ---------------------------------------------------------------------
 Rotational constants (GHZ):    103.6982661     12.9914450     12.4561122
 Standard basis: CC-pVTZ (5D, 7F)
 There are   134 symmetry adapted cartesian basis functions of A   symmetry.
 There are   120 symmetry adapted basis functions of A   symmetry.
   120 basis functions,   214 primitive gaussians,   134 cartesian basis functions
    13 alpha electrons       13 beta electrons
       nuclear repulsion energy        56.4795175368 Hartrees.
 NAtoms=    6 NActive=    6 NUniq=    6 SFac= 1.00D+00 NAtFMM=   60 NAOKFM=F Big=F
 Integral buffers will be    131072 words long.
 Raffenetti 1 integral format.
 Two-electron integral symmetry is turned on.
 One-electron integrals computed using PRISM.
 NBasis=   120 RedAO= T EigKep=  1.80D-03  NBF=   120
 NBsUse=   120 1.00D-06 EigRej= -1.00D+00 NBFU=   120
 Initial guess from the checkpoint file:  "/mnt/lustre/scratch/slurm/1397326/uviqopsc.UHhWC0u0oy/Gau-7313.chk"
 B after Tr=    -0.000000   -0.000000    0.000000
         Rot=    0.999996   -0.000010   -0.000014   -0.002655 Ang=  -0.30 deg.
 ExpMin= 1.03D-01 ExpMax= 3.74D+05 ExpMxC= 1.18D+03 IAcc=2 IRadAn=         4 AccDes= 0.00D+00
 Harris functional with IExCor=  205 and IRadAn=       4 diagonalized for initial guess.
 HarFok:  IExCor=  205 AccDes= 0.00D+00 IRadAn=         4 IDoV= 1 UseB2=F ITyADJ=14
 ICtDFT=  3500011 ScaDFX=  1.000000  1.000000  1.000000  1.000000
 FoFCou: FMM=F IPFlag=           0 FMFlag=      100000 FMFlg1=           0
         NFxFlg=           0 DoJE=T BraDBF=F KetDBF=T FulRan=T
         wScrn=  0.000000 ICntrl=     500 IOpCl=  0 I1Cent=   200000004 NGrid=           0
         NMat0=    1 NMatS0=      1 NMatT0=    0 NMatD0=    1 NMtDS0=    0 NMtDT0=    0
 Petite list used in FoFCou.
 Keep R1 ints in memory in canonical form, NReq=28467468.
 Requested convergence on RMS density matrix=1.00D-08 within 128 cycles.
 Requested convergence on MAX density matrix=1.00D-06.
 Requested convergence on             energy=1.00D-06.
 No special actions if energy rises.
 SCF Done:  E(RHF) =  -437.756511396     A.U. after    9 cycles
            NFock=  9  Conv=0.55D-08     -V/T= 2.0001
 ExpMin= 1.03D-01 ExpMax= 3.74D+05 ExpMxC= 1.18D+03 IAcc=3 IRadAn=         5 AccDes= 0.00D+00
 HarFok:  IExCor=  205 AccDes= 0.00D+00 IRadAn=         5 IDoV=-2 UseB2=F ITyADJ=14
 ICtDFT= 12500011 ScaDFX=  1.000000  1.000000  1.000000  1.000000
 Range of M.O.s used for correlation:     7   120
 NBasis=   120 NAE=    13 NBE=    13 NFC=     6 NFV=     0
 NROrb=    114 NOA=     7 NOB=     7 NVA=   107 NVB=   107

 **** Warning!!: The largest alpha MO coefficient is  0.11822167D+02

 Fully direct method using O(ONN) memory.
 JobTyp=1 Pass  1:  I=   7 to  13 NPSUse= 24 ParTrn=T ParDer=T DoDerP=T.
 Spin components of T(2) and E(2):
     alpha-alpha T2 =       0.1528544039D-01 E2=     -0.3887133889D-01
     alpha-beta  T2 =       0.9989216946D-01 E2=     -0.2856215689D+00
     beta-beta   T2 =       0.1528544039D-01 E2=     -0.3887133889D-01
 ANorm=    0.1063232359D+01
 E2 =    -0.3633642467D+00 EUMP2 =    -0.43811987564276D+03
          IDoAtm=111111
          Differentiating once with respect to electric field.
                with respect to dipole field.
          Differentiating once with respect to nuclear coordinates.
 Keep R1 ints in memory in canonical form, NReq=28429703.
          There are     1 degrees of freedom in the 1st order CPHF.  IDoFFX=0 NUNeed=     1.
 LinEq1:  Iter=  0 NonCon=     1 RMS=2.88D-03 Max=2.48D-02 NDo=     1
 AX will form     1 AO Fock derivatives at one time.
 LinEq1:  Iter=  1 NonCon=     1 RMS=9.47D-04 Max=1.09D-02 NDo=     1
 LinEq1:  Iter=  2 NonCon=     1 RMS=2.31D-04 Max=2.51D-03 NDo=     1
 LinEq1:  Iter=  3 NonCon=     1 RMS=6.32D-05 Max=8.71D-04 NDo=     1
 LinEq1:  Iter=  4 NonCon=     1 RMS=1.16D-05 Max=1.47D-04 NDo=     1
 LinEq1:  Iter=  5 NonCon=     1 RMS=2.76D-06 Max=2.77D-05 NDo=     1
 LinEq1:  Iter=  6 NonCon=     1 RMS=6.80D-07 Max=6.15D-06 NDo=     1
 LinEq1:  Iter=  7 NonCon=     1 RMS=1.06D-07 Max=1.25D-06 NDo=     1
 LinEq1:  Iter=  8 NonCon=     1 RMS=2.84D-08 Max=2.92D-07 NDo=     1
 LinEq1:  Iter=  9 NonCon=     1 RMS=5.56D-09 Max=8.27D-08 NDo=     1
 LinEq1:  Iter= 10 NonCon=     1 RMS=9.46D-10 Max=1.60D-08 NDo=     1
 LinEq1:  Iter= 11 NonCon=     1 RMS=1.62D-10 Max=1.46D-09 NDo=     1
 LinEq1:  Iter= 12 NonCon=     0 RMS=2.24D-11 Max=2.35D-10 NDo=     1
 Linear equations converged to 1.000D-10 1.000D-09 after    12 iterations.
 End of Minotr F.D. properties file   721 does not exist.
 End of Minotr F.D. properties file   722 does not exist.
 End of Minotr F.D. properties file   788 does not exist.
 Calling FoFJK, ICntrl=  10002127 FMM=F ISym2X=0 I1Cent= 0 IOpClX= 0 NMat=1 NMatS=1 NMatT=0.
 ***** Axes restored to original set *****
 -------------------------------------------------------------------
 Center     Atomic                   Forces (Hartrees/Bohr)
 Number     Number              X              Y              Z
 -------------------------------------------------------------------
      1        6          -0.000134358   -0.000540727   -0.000000225
      2       16           0.000188087    0.001091975    0.000000399
      3        1           0.000673795   -0.000269912   -0.000000120
      4        1           0.000001310   -0.000142363    0.000092861
      5        1          -0.000730543    0.000003743    0.000000156
      6        1           0.000001708   -0.000142716   -0.000093070
 -------------------------------------------------------------------
 Cartesian Forces:  Max     0.001091975 RMS     0.000384181

 GradGradGradGradGradGradGradGradGradGradGradGradGradGradGradGradGradGrad
 Berny optimization.
 Using GEDIIS/GDIIS optimizer.
 FormGI is forming the generalized inverse of G from B-inverse, IUseBI=4.
 Internal  Forces:  Max     0.001794303 RMS     0.000600128
 Search for a local minimum.
 Step number   2 out of a maximum of   25
 All quantities printed in internal units (Hartrees-Bohrs-Radians)
 Mixed Optimization -- En-DIIS/RFO-DIIS
 Update second derivatives using D2CorX and points    1    2
 DE= -1.31D-04 DEPred=-1.71D-04 R= 7.62D-01
 TightC=F SS=  1.41D+00  RLast= 4.18D-02 DXNew= 5.0454D-01 1.2540D-01
 Trust test= 7.62D-01 RLast= 4.18D-02 DXMaxT set to 3.00D-01
 The second derivative matrix:
                          R1        R2        R3        R4        R5
           R1           0.25406
           R2          -0.00354   0.35603
           R3          -0.00131  -0.00523   0.35011
           R4          -0.00354  -0.00247  -0.00523   0.35604
           R5          -0.00507  -0.00436  -0.00860  -0.00435   0.26702
           A1          -0.00036  -0.00048  -0.00084  -0.00048  -0.00081
           A2           0.00680  -0.00331  -0.00076  -0.00332  -0.00466
           A3          -0.00036  -0.00048  -0.00084  -0.00048  -0.00081
           A4          -0.00361   0.00390   0.00328   0.00390   0.00593
           A5           0.00107  -0.00319  -0.00371  -0.00319  -0.00505
           A6          -0.00360   0.00389   0.00327   0.00389   0.00592
           A7           0.01546  -0.00626  -0.00002  -0.00627  -0.00854
           D1          -0.00342   0.00404   0.00357   0.00404   0.00619
           D2           0.00000  -0.00001  -0.00001  -0.00001  -0.00001
           D3           0.00342  -0.00404  -0.00357  -0.00404  -0.00618
                          A1        A2        A3        A4        A5
           A1           0.15992
           A2          -0.00031   0.16725
           A3          -0.00008  -0.00032   0.15992
           A4           0.00049  -0.00408   0.00050   0.16126
           A5          -0.00046   0.00144  -0.00046   0.00049   0.15867
           A6           0.00049  -0.00408   0.00049   0.00126   0.00048
           A7          -0.00052   0.01636  -0.00052  -0.00982   0.00400
           D1           0.00052  -0.00391   0.00052   0.00105   0.00066
           D2          -0.00000   0.00000  -0.00000  -0.00000  -0.00000
           D3          -0.00052   0.00391  -0.00052  -0.00105  -0.00066
                          A6        A7        D1        D2        D3
           A6           0.16126
           A7          -0.00981   0.19651
           D1           0.00105  -0.00951   0.00313
           D2          -0.00000   0.00001  -0.00000   0.00230
           D3          -0.00105   0.00949  -0.00083   0.00000   0.00313
 ITU=  1  0
 Use linear search instead of GDIIS.
     Eigenvalues ---    0.00230   0.09567   0.10256   0.15874   0.16000
     Eigenvalues ---    0.16000   0.20085   0.25357   0.27339   0.34628
     Eigenvalues ---    0.35850   0.36010
 RFO step:  Lambda=-8.48509234D-06 EMin= 2.30000031D-03
 Quartic linear search produced a step of -0.19120.
 Iteration  1 RMS(Cart)=  0.00504773 RMS(Int)=  0.00001093
 Iteration  2 RMS(Cart)=  0.00000923 RMS(Int)=  0.00000107
 Iteration  3 RMS(Cart)=  0.00000000 RMS(Int)=  0.00000107
 Variable       Old X    -DE/DX   Delta X   Delta X   Delta X     New X
                                 (Linear)    (Quad)   (Total)
    R1        3.42812   0.00080   0.00130   0.00116   0.00245   3.43057
    R2        2.05100  -0.00014  -0.00150   0.00137  -0.00012   2.05087
    R3        2.05219   0.00024  -0.00153   0.00228   0.00075   2.05294
    R4        2.05100  -0.00014  -0.00150   0.00137  -0.00013   2.05087
    R5        2.52429  -0.00015  -0.00304   0.00301  -0.00003   2.52426
    A1        1.94335  -0.00011  -0.00046  -0.00016  -0.00061   1.94274
    A2        1.84791   0.00104   0.00240   0.00279   0.00519   1.85311
    A3        1.94336  -0.00011  -0.00046  -0.00016  -0.00062   1.94274
    A4        1.89999  -0.00037  -0.00020  -0.00142  -0.00161   1.89838
    A5        1.92670  -0.00006  -0.00096   0.00036  -0.00060   1.92610
    A6        1.89999  -0.00037  -0.00020  -0.00141  -0.00161   1.89838
    A7        1.67883   0.00179   0.00609   0.00216   0.00826   1.68709
    D1        1.07923  -0.00011  -0.00099   0.00014  -0.00085   1.07838
    D2       -3.14158   0.00000  -0.00003   0.00002  -0.00001  -3.14159
    D3       -1.07920   0.00011   0.00092  -0.00009   0.00083  -1.07837
         Item               Value     Threshold  Converged?
 Maximum Force            0.001794     0.000450     NO 
 RMS     Force            0.000600     0.000300     NO 
 Maximum Displacement     0.014896     0.001800     NO 
 RMS     Displacement     0.005043     0.001200     NO 
 Predicted change in Energy=-1.199631D-05
 GradGradGradGradGradGradGradGradGradGradGradGradGradGradGradGradGradGrad

                          Input orientation:                          
 ---------------------------------------------------------------------
 Center     Atomic      Atomic             Coordinates (Angstroms)
 Number     Number       Type             X           Y           Z
 ---------------------------------------------------------------------
      1          6           0       -1.150015    0.023196   -0.000009
      2         16           0        0.661359   -0.097367   -0.000070
      3          1           0        0.904117    1.216171    0.000091
      4          1           0       -1.511838    0.526434   -0.890883
      5          1           0       -1.521276   -0.997766   -0.000123
      6          1           0       -1.511794    0.526221    0.891003
 ---------------------------------------------------------------------
                    Distance matrix (angstroms):
                    1          2          3          4          5
     1  C    0.000000
     2  S    1.815382   0.000000
     3  H    2.375426   1.335782   0.000000
     4  H    1.085275   2.430116   2.665785   0.000000
     5  H    1.086369   2.361062   3.283907   1.765426   0.000000
     6  H    1.085275   2.430116   2.665779   1.781886   1.765426
                    6
     6  H    0.000000
 Stoichiometry    CH4S
 Framework group  C1[X(CH4S)]
 Deg. of freedom    12
 Full point group                 C1      NOp   1
 Largest Abelian subgroup         C1      NOp   1
 Largest concise Abelian subgroup C1      NOp   1
                         Standard orientation:                         
 ---------------------------------------------------------------------
 Center     Atomic      Atomic             Coordinates (Angstroms)
 Number     Number       Type             X           Y           Z
 ---------------------------------------------------------------------
      1          6           0       -1.151789    0.019159    0.000032
      2         16           0        0.660537   -0.086120   -0.000028
      3          1           0        0.892206    1.229419    0.000132
      4          1           0       -1.517844    0.519327   -0.890842
      5          1           0       -1.514425   -1.004898   -0.000081
      6          1           0       -1.517798    0.519115    0.891044
 ---------------------------------------------------------------------
 Rotational constants (GHZ):    103.8273505     12.9648595     12.4329959
 Standard basis: CC-pVTZ (5D, 7F)
 There are   134 symmetry adapted cartesian basis functions of A   symmetry.
 There are   120 symmetry adapted basis functions of A   symmetry.
   120 basis functions,   214 primitive gaussians,   134 cartesian basis functions
    13 alpha electrons       13 beta electrons
       nuclear repulsion energy        56.4414852125 Hartrees.
 NAtoms=    6 NActive=    6 NUniq=    6 SFac= 1.00D+00 NAtFMM=   60 NAOKFM=F Big=F
 Integral buffers will be    131072 words long.
 Raffenetti 1 integral format.
 Two-electron integral symmetry is turned on.
 One-electron integrals computed using PRISM.
 NBasis=   120 RedAO= T EigKep=  1.80D-03  NBF=   120
 NBsUse=   120 1.00D-06 EigRej= -1.00D+00 NBFU=   120
 Initial guess from the checkpoint file:  "/mnt/lustre/scratch/slurm/1397326/uviqopsc.UHhWC0u0oy/Gau-7313.chk"
 B after Tr=    -0.000000    0.000000   -0.000000
         Rot=    1.000000    0.000000    0.000001    0.000830 Ang=   0.10 deg.
 Keep R1 ints in memory in canonical form, NReq=28467468.
 Requested convergence on RMS density matrix=1.00D-08 within 128 cycles.
 Requested convergence on MAX density matrix=1.00D-06.
 Requested convergence on             energy=1.00D-06.
 No special actions if energy rises.
 SCF Done:  E(RHF) =  -437.756586135     A.U. after    8 cycles
            NFock=  8  Conv=0.40D-08     -V/T= 2.0001
 ExpMin= 1.03D-01 ExpMax= 3.74D+05 ExpMxC= 1.18D+03 IAcc=3 IRadAn=         5 AccDes= 0.00D+00
 HarFok:  IExCor=  205 AccDes= 0.00D+00 IRadAn=         5 IDoV=-2 UseB2=F ITyADJ=14
 ICtDFT= 12500011 ScaDFX=  1.000000  1.000000  1.000000  1.000000
 Range of M.O.s used for correlation:     7   120
 NBasis=   120 NAE=    13 NBE=    13 NFC=     6 NFV=     0
 NROrb=    114 NOA=     7 NOB=     7 NVA=   107 NVB=   107

 **** Warning!!: The largest alpha MO coefficient is  0.11815574D+02

 Fully direct method using O(ONN) memory.
 JobTyp=1 Pass  1:  I=   7 to  13 NPSUse= 24 ParTrn=T ParDer=T DoDerP=T.
 Spin components of T(2) and E(2):
     alpha-alpha T2 =       0.1528239865D-01 E2=     -0.3885635800D-01
     alpha-beta  T2 =       0.9989740217D-01 E2=     -0.2855881277D+00
     beta-beta   T2 =       0.1528239865D-01 E2=     -0.3885635800D-01
 ANorm=    0.1063231959D+01
 E2 =    -0.3633008437D+00 EUMP2 =    -0.43811988697880D+03
          IDoAtm=111111
          Differentiating once with respect to electric field.
                with respect to dipole field.
          Differentiating once with respect to nuclear coordinates.
 Keep R1 ints in memory in canonical form, NReq=28429684.
          There are     1 degrees of freedom in the 1st order CPHF.  IDoFFX=0 NUNeed=     1.
 LinEq1:  Iter=  0 NonCon=     1 RMS=2.88D-03 Max=2.47D-02 NDo=     1
 AX will form     1 AO Fock derivatives at one time.
 LinEq1:  Iter=  1 NonCon=     1 RMS=9.47D-04 Max=1.09D-02 NDo=     1
 LinEq1:  Iter=  2 NonCon=     1 RMS=2.31D-04 Max=2.49D-03 NDo=     1
 LinEq1:  Iter=  3 NonCon=     1 RMS=6.30D-05 Max=8.61D-04 NDo=     1
 LinEq1:  Iter=  4 NonCon=     1 RMS=1.15D-05 Max=1.47D-04 NDo=     1
 LinEq1:  Iter=  5 NonCon=     1 RMS=2.75D-06 Max=2.82D-05 NDo=     1
 LinEq1:  Iter=  6 NonCon=     1 RMS=6.78D-07 Max=6.17D-06 NDo=     1
 LinEq1:  Iter=  7 NonCon=     1 RMS=1.06D-07 Max=1.25D-06 NDo=     1
 LinEq1:  Iter=  8 NonCon=     1 RMS=2.82D-08 Max=2.90D-07 NDo=     1
 LinEq1:  Iter=  9 NonCon=     1 RMS=5.51D-09 Max=8.25D-08 NDo=     1
 LinEq1:  Iter= 10 NonCon=     1 RMS=9.39D-10 Max=1.59D-08 NDo=     1
 LinEq1:  Iter= 11 NonCon=     1 RMS=1.61D-10 Max=1.48D-09 NDo=     1
 LinEq1:  Iter= 12 NonCon=     0 RMS=2.23D-11 Max=2.40D-10 NDo=     1
 Linear equations converged to 1.000D-10 1.000D-09 after    12 iterations.
 End of Minotr F.D. properties file   721 does not exist.
 End of Minotr F.D. properties file   722 does not exist.
 End of Minotr F.D. properties file   788 does not exist.
 Calling FoFJK, ICntrl=  10002127 FMM=F ISym2X=0 I1Cent= 0 IOpClX= 0 NMat=1 NMatS=1 NMatT=0.
 ***** Axes restored to original set *****
 -------------------------------------------------------------------
 Center     Atomic                   Forces (Hartrees/Bohr)
 Number     Number              X              Y              Z
 -------------------------------------------------------------------
      1        6           0.000089841    0.000069740   -0.000000122
      2       16          -0.000032068    0.000116773    0.000000098
      3        1          -0.000076461   -0.000157357   -0.000000046
      4        1           0.000001473   -0.000050045    0.000047353
      5        1           0.000015673    0.000071000    0.000000051
      6        1           0.000001542   -0.000050113   -0.000047334
 -------------------------------------------------------------------
 Cartesian Forces:  Max     0.000157357 RMS     0.000063682

 GradGradGradGradGradGradGradGradGradGradGradGradGradGradGradGradGradGrad
 Berny optimization.
 Using GEDIIS/GDIIS optimizer.
 FormGI is forming the generalized inverse of G from B-inverse, IUseBI=4.
 Internal  Forces:  Max     0.000168632 RMS     0.000068384
 Search for a local minimum.
 Step number   3 out of a maximum of   25
 All quantities printed in internal units (Hartrees-Bohrs-Radians)
 Mixed Optimization -- En-DIIS/RFO-DIIS
 Swapping is turned off.
 Update second derivatives using D2CorX and points    1    2    3
 DE= -1.13D-05 DEPred=-1.20D-05 R= 9.45D-01
 TightC=F SS=  1.41D+00  RLast= 1.05D-02 DXNew= 5.0454D-01 3.1388D-02
 Trust test= 9.45D-01 RLast= 1.05D-02 DXMaxT set to 3.00D-01
 The second derivative matrix:
                          R1        R2        R3        R4        R5
           R1           0.25996
           R2          -0.00104   0.35662
           R3           0.00268  -0.00349   0.35290
           R4          -0.00104  -0.00188  -0.00348   0.35662
           R5           0.00166  -0.00283  -0.00396  -0.00282   0.27107
           A1          -0.00162  -0.00088  -0.00169  -0.00088  -0.00189
           A2           0.00972  -0.00074   0.00125  -0.00074   0.00227
           A3          -0.00162  -0.00088  -0.00169  -0.00088  -0.00189
           A4          -0.00367   0.00307   0.00321   0.00307   0.00372
           A5           0.00104  -0.00325  -0.00372  -0.00325  -0.00520
           A6          -0.00366   0.00307   0.00320   0.00306   0.00371
           A7           0.02402  -0.00167   0.00575  -0.00168   0.00387
           D1          -0.00442   0.00371   0.00290   0.00371   0.00529
           D2           0.00000  -0.00001  -0.00001  -0.00001  -0.00001
           D3           0.00442  -0.00371  -0.00290  -0.00371  -0.00528
                          A1        A2        A3        A4        A5
           A1           0.16015
           A2          -0.00128   0.16528
           A3           0.00015  -0.00128   0.16015
           A4           0.00071  -0.00208   0.00071   0.16005
           A5          -0.00044   0.00154  -0.00044   0.00042   0.15866
           A6           0.00071  -0.00207   0.00071   0.00005   0.00041
           A7          -0.00261   0.01799  -0.00261  -0.00836   0.00405
           D1           0.00071  -0.00463   0.00071   0.00119   0.00068
           D2          -0.00000   0.00000  -0.00000  -0.00000  -0.00000
           D3          -0.00071   0.00462  -0.00071  -0.00119  -0.00068
                          A6        A7        D1        D2        D3
           A6           0.16005
           A7          -0.00835   0.20695
           D1           0.00119  -0.01112   0.00329
           D2          -0.00000   0.00001  -0.00000   0.00230
           D3          -0.00119   0.01111  -0.00098   0.00000   0.00328
 ITU=  1  1  0
     Eigenvalues ---    0.00230   0.09590   0.10228   0.15684   0.15998
     Eigenvalues ---    0.16000   0.20456   0.26865   0.27485   0.34935
     Eigenvalues ---    0.35850   0.35928
 En-DIIS/RFO-DIIS IScMMF=        0 using points:     3    2
 RFO step:  Lambda=-1.35308763D-07.
 DidBck=F Rises=F RFO-DIIS coefs:    0.94935    0.05065
 Iteration  1 RMS(Cart)=  0.00037762 RMS(Int)=  0.00000007
 Iteration  2 RMS(Cart)=  0.00000005 RMS(Int)=  0.00000003
 Variable       Old X    -DE/DX   Delta X   Delta X   Delta X     New X
                                 (Linear)    (Quad)   (Total)
    R1        3.43057  -0.00011  -0.00012  -0.00023  -0.00035   3.43022
    R2        2.05087  -0.00006   0.00001  -0.00019  -0.00018   2.05069
    R3        2.05294  -0.00007  -0.00004  -0.00016  -0.00020   2.05274
    R4        2.05087  -0.00006   0.00001  -0.00019  -0.00019   2.05069
    R5        2.52426  -0.00017   0.00000  -0.00062  -0.00062   2.52365
    A1        1.94274   0.00003   0.00003   0.00015   0.00018   1.94291
    A2        1.85311  -0.00001  -0.00026   0.00027   0.00000   1.85311
    A3        1.94274   0.00003   0.00003   0.00014   0.00018   1.94291
    A4        1.89838  -0.00003   0.00008  -0.00031  -0.00022   1.89816
    A5        1.92610  -0.00000   0.00003   0.00004   0.00007   1.92617
    A6        1.89838  -0.00003   0.00008  -0.00031  -0.00023   1.89816
    A7        1.68709  -0.00012  -0.00042  -0.00009  -0.00051   1.68658
    D1        1.07838   0.00002   0.00004   0.00012   0.00016   1.07854
    D2       -3.14159   0.00000   0.00000  -0.00001  -0.00001   3.14159
    D3       -1.07837  -0.00002  -0.00004  -0.00014  -0.00018  -1.07855
         Item               Value     Threshold  Converged?
 Maximum Force            0.000169     0.000450     YES
 RMS     Force            0.000068     0.000300     YES
 Maximum Displacement     0.001087     0.001800     YES
 RMS     Displacement     0.000378     0.001200     YES
 Predicted change in Energy=-1.335148D-07
 Optimization completed.
    -- Stationary point found.
                           ----------------------------
                           !   Optimized Parameters   !
                           ! (Angstroms and Degrees)  !
 --------------------------                            --------------------------
 ! Name  Definition              Value          Derivative Info.                !
 --------------------------------------------------------------------------------
 ! R1    R(1,2)                  1.8154         -DE/DX =   -0.0001              !
 ! R2    R(1,4)                  1.0853         -DE/DX =   -0.0001              !
 ! R3    R(1,5)                  1.0864         -DE/DX =   -0.0001              !
 ! R4    R(1,6)                  1.0853         -DE/DX =   -0.0001              !
 ! R5    R(2,3)                  1.3358         -DE/DX =   -0.0002              !
 ! A1    A(2,1,4)              111.3107         -DE/DX =    0.0                 !
 ! A2    A(2,1,5)              106.1753         -DE/DX =    0.0                 !
 ! A3    A(2,1,6)              111.3107         -DE/DX =    0.0                 !
 ! A4    A(4,1,5)              108.7693         -DE/DX =    0.0                 !
 ! A5    A(4,1,6)              110.3576         -DE/DX =    0.0                 !
 ! A6    A(5,1,6)              108.7693         -DE/DX =    0.0                 !
 ! A7    A(1,2,3)               96.6629         -DE/DX =   -0.0001              !
 ! D1    D(4,1,2,3)             61.7867         -DE/DX =    0.0                 !
 ! D2    D(5,1,2,3)            180.0004         -DE/DX =    0.0                 !
 ! D3    D(6,1,2,3)            -61.7859         -DE/DX =    0.0                 !
 --------------------------------------------------------------------------------
 GradGradGradGradGradGradGradGradGradGradGradGradGradGradGradGradGradGrad

                          Input orientation:                          
 ---------------------------------------------------------------------
 Center     Atomic      Atomic             Coordinates (Angstroms)
 Number     Number       Type             X           Y           Z
 ---------------------------------------------------------------------
      1          6           0       -1.150015    0.023196   -0.000009
      2         16           0        0.661359   -0.097367   -0.000070
      3          1           0        0.904117    1.216171    0.000091
      4          1           0       -1.511838    0.526434   -0.890883
      5          1           0       -1.521276   -0.997766   -0.000123
      6          1           0       -1.511794    0.526221    0.891003
 ---------------------------------------------------------------------
                    Distance matrix (angstroms):
                    1          2          3          4          5
     1  C    0.000000
     2  S    1.815382   0.000000
     3  H    2.375426   1.335782   0.000000
     4  H    1.085275   2.430116   2.665785   0.000000
     5  H    1.086369   2.361062   3.283907   1.765426   0.000000
     6  H    1.085275   2.430116   2.665779   1.781886   1.765426
                    6
     6  H    0.000000
 Stoichiometry    CH4S
 Framework group  C1[X(CH4S)]
 Deg. of freedom    12
 Full point group                 C1      NOp   1
 Largest Abelian subgroup         C1      NOp   1
 Largest concise Abelian subgroup C1      NOp   1
                         Standard orientation:                         
 ---------------------------------------------------------------------
 Center     Atomic      Atomic             Coordinates (Angstroms)
 Number     Number       Type             X           Y           Z
 ---------------------------------------------------------------------
      1          6           0       -1.151789    0.019159    0.000032
      2         16           0        0.660537   -0.086120   -0.000028
      3          1           0        0.892206    1.229419    0.000132
      4          1           0       -1.517844    0.519327   -0.890842
      5          1           0       -1.514425   -1.004898   -0.000081
      6          1           0       -1.517798    0.519115    0.891044
 ---------------------------------------------------------------------
 Rotational constants (GHZ):    103.8273505     12.9648595     12.4329959

 **********************************************************************

            Population analysis using the SCF density.

 **********************************************************************

 Orbital symmetries:
       Occupied  (A) (A) (A) (A) (A) (A) (A) (A) (A) (A) (A) (A)
                 (A)
       Virtual   (A) (A) (A) (A) (A) (A) (A) (A) (A) (A) (A) (A)
                 (A) (A) (A) (A) (A) (A) (A) (A) (A) (A) (A) (A)
                 (A) (A) (A) (A) (A) (A) (A) (A) (A) (A) (A) (A)
                 (A) (A) (A) (A) (A) (A) (A) (A) (A) (A) (A) (A)
                 (A) (A) (A) (A) (A) (A) (A) (A) (A) (A) (A) (A)
                 (A) (A) (A) (A) (A) (A) (A) (A) (A) (A) (A) (A)
                 (A) (A) (A) (A) (A) (A) (A) (A) (A) (A) (A) (A)
                 (A) (A) (A) (A) (A) (A) (A) (A) (A) (A) (A) (A)
                 (A) (A) (A) (A) (A) (A) (A) (A) (A) (A) (A)
 The electronic state is 1-A.
 Alpha  occ. eigenvalues --  -91.94923 -11.25641  -8.95151  -6.63288  -6.63186
 Alpha  occ. eigenvalues --   -6.63080  -1.03742  -0.86658  -0.60816  -0.59261
 Alpha  occ. eigenvalues --   -0.52716  -0.45870  -0.35618
 Alpha virt. eigenvalues --    0.12473   0.16357   0.20610   0.20678   0.21292
 Alpha virt. eigenvalues --    0.35035   0.36547   0.38494   0.38752   0.43688
 Alpha virt. eigenvalues --    0.45749   0.51122   0.52754   0.55448   0.57122
 Alpha virt. eigenvalues --    0.62866   0.63371   0.64809   0.65578   0.78693
 Alpha virt. eigenvalues --    0.88168   0.90677   0.92114   1.00814   1.03725
 Alpha virt. eigenvalues --    1.09142   1.11159   1.16529   1.17465   1.23341
 Alpha virt. eigenvalues --    1.26928   1.28047   1.35006   1.44829   1.47519
 Alpha virt. eigenvalues --    1.51938   1.52192   1.54526   1.78178   1.84161
 Alpha virt. eigenvalues --    1.89993   1.91605   1.93661   1.95810   2.00741
 Alpha virt. eigenvalues --    2.08208   2.14319   2.16267   2.21294   2.25840
 Alpha virt. eigenvalues --    2.28712   2.36745   2.55017   2.55422   2.58037
 Alpha virt. eigenvalues --    2.62324   2.75705   2.86730   3.00112   3.05301
 Alpha virt. eigenvalues --    3.07324   3.11149   3.23964   3.27332   3.35871
 Alpha virt. eigenvalues --    3.36369   3.37106   3.40154   3.59351   3.60538
 Alpha virt. eigenvalues --    3.61050   3.67198   3.71609   3.75009   3.78564
 Alpha virt. eigenvalues --    3.85092   3.88815   3.89338   3.98048   4.06760
 Alpha virt. eigenvalues --    4.08412   4.09391   4.17708   4.28657   4.30674
 Alpha virt. eigenvalues --    4.30943   4.37220   4.37911   4.42220   4.43835
 Alpha virt. eigenvalues --    4.45999   4.58074   4.70066   4.97645   5.06536
 Alpha virt. eigenvalues --    5.07064   5.30242   5.38001   5.41007   5.48275
 Alpha virt. eigenvalues --    5.56856   5.57901   5.59936   6.01665   6.18698
 Alpha virt. eigenvalues --    6.20848  13.28588
          Condensed to atoms (all electrons):
               1          2          3          4          5          6
     1  C    4.737672   0.276575  -0.024297   0.417900   0.409709   0.417900
     2  S    0.276575  15.634631   0.370031  -0.037991  -0.030589  -0.037990
     3  H   -0.024297   0.370031   0.570812  -0.004733   0.004071  -0.004733
     4  H    0.417900  -0.037991  -0.004733   0.577945  -0.029622  -0.032148
     5  H    0.409709  -0.030589   0.004071  -0.029622   0.572075  -0.029622
     6  H    0.417900  -0.037990  -0.004733  -0.032148  -0.029622   0.577944
 Mulliken charges:
               1
     1  C   -0.235458
     2  S   -0.174666
     3  H    0.088848
     4  H    0.108649
     5  H    0.103978
     6  H    0.108649
 Sum of Mulliken charges =  -0.00000
 Mulliken charges with hydrogens summed into heavy atoms:
               1
     1  C    0.085818
     2  S   -0.085818
 Electronic spatial extent (au):  <R**2>=            144.2719
 Charge=             -0.0000 electrons
 Dipole moment (field-independent basis, Debye):
    X=             -1.4169    Y=              0.8629    Z=              0.0001  Tot=              1.6590
 Quadrupole moment (field-independent basis, Debye-Ang):
   XX=            -20.3527   YY=            -19.4182   ZZ=            -22.6400
   XY=              1.3652   XZ=              0.0001   YZ=              0.0004
 Traceless Quadrupole moment (field-independent basis, Debye-Ang):
   XX=              0.4510   YY=              1.3854   ZZ=             -1.8364
   XY=              1.3652   XZ=              0.0001   YZ=              0.0004
 Octapole moment (field-independent basis, Debye-Ang**2):
  XXX=              0.3427  YYY=              0.9127  ZZZ=              0.0006  XYY=             -0.0472
  XXY=              1.4213  XXZ=              0.0000  XZZ=             -2.5936  YZZ=              1.0540
  YYZ=             -0.0001  XYZ=              0.0003
 Hexadecapole moment (field-independent basis, Debye-Ang**3):
 XXXX=           -133.8263 YYYY=            -34.7031 ZZZZ=            -35.9010 XXXY=              2.4955
 XXXZ=              0.0015 YYYX=              3.5550 YYYZ=              0.0002 ZZZX=              0.0011
 ZZZY=             -0.0001 XXYY=            -27.2993 XXZZ=            -28.8537 YYZZ=            -12.3504
 XXYZ=              0.0001 YYXZ=              0.0010 ZZXY=             -0.5833
 N-N= 5.644148521249D+01 E-N=-1.153105921315D+03  KE= 4.377087615668D+02
 1\1\GINC-C7040\FOpt\RMP2-FC\CC-pVTZ\C1H4S1\ROOT\15-Jul-2018\0\\# opt m
 p2/cc-pVTZ\\methanethiol-g\\0,1\C,-1.1500147865,0.0231956609,-0.000009
 4482\S,0.6613590986,-0.0973670328,-0.0000698002\H,0.9041169582,1.21617
 09518,0.0000907041\H,-1.5118378196,0.5264340113,-0.8908833719\H,-1.521
 2757582,-0.9977656335,-0.0001227582\H,-1.5117936926,0.5262210422,0.891
 0026745\\Version=ES64L-G09RevE.01\State=1-A\HF=-437.7565861\MP2=-438.1
 19887\RMSD=4.031e-09\RMSF=6.368e-05\Dipole=-0.5106415,0.3289867,0.0000
 544\PG=C01 [X(C1H4S1)]\\@


    WHAT WE HAVE LEARNED
 IS LIKE A HANDFUL OF EARTH;
  WHAT WE HAVE YET TO LEARN
   IS LIKE THE WHOLE WORLD.

         -- AVVAYIAR
 Job cpu time:       0 days  0 hours 15 minutes 13.1 seconds.
 File lengths (MBytes):  RWF=     10 Int=      0 D2E=      0 Chk=      2 Scr=      1
 Normal termination of Gaussian 09 at Sun Jul 15 21:18:18 2018.
