c7021 1397324 SLURM_STEP_IDnodef 0 0 1 24 SLURM_MEM_PER_CPUnodef 122880
/mnt/lustre/scratch/slurm/1397324/uviqopsc.fwYAOtsjwH
OMP_STACKSIZE=128m
-P- 24
-M- 114688MB
 Entering Gaussian System, Link 0=/opt/cesga/g09/e1/g09.exe
 Initial command:
 /opt/cesga/g09/e1/l1.exe "/mnt/lustre/scratch/slurm/1397324/uviqopsc.fwYAOtsjwH/Gau-1742.inp" -scrdir="/mnt/lustre/scratch/slurm/1397324/uviqopsc.fwYAOtsjwH/"
 Default is to use a total of  24 processors:
                               24 via shared-memory
                                1 via Linda
 Entering Link 1 = /opt/cesga/g09/e1/l1.exe PID=      1768.
  
 Copyright (c) 1988,1990,1992,1993,1995,1998,2003,2009,2015,
            Gaussian, Inc.  All Rights Reserved.
  
 This is part of the Gaussian(R) 09 program.  It is based on
 the Gaussian(R) 03 system (copyright 2003, Gaussian, Inc.),
 the Gaussian(R) 98 system (copyright 1998, Gaussian, Inc.),
 the Gaussian(R) 94 system (copyright 1995, Gaussian, Inc.),
 the Gaussian 92(TM) system (copyright 1992, Gaussian, Inc.),
 the Gaussian 90(TM) system (copyright 1990, Gaussian, Inc.),
 the Gaussian 88(TM) system (copyright 1988, Gaussian, Inc.),
 the Gaussian 86(TM) system (copyright 1986, Carnegie Mellon
 University), and the Gaussian 82(TM) system (copyright 1983,
 Carnegie Mellon University). Gaussian is a federally registered
 trademark of Gaussian, Inc.
  
 This software contains proprietary and confidential information,
 including trade secrets, belonging to Gaussian, Inc.
  
 This software is provided under written license and may be
 used, copied, transmitted, or stored only in accord with that
 written license.
  
 The following legend is applicable only to US Government
 contracts under FAR:
  
                    RESTRICTED RIGHTS LEGEND
  
 Use, reproduction and disclosure by the US Government is
 subject to restrictions as set forth in subparagraphs (a)
 and (c) of the Commercial Computer Software - Restricted
 Rights clause in FAR 52.227-19.
  
 Gaussian, Inc.
 340 Quinnipiac St., Bldg. 40, Wallingford CT 06492
  
  
 ---------------------------------------------------------------
 Warning -- This program may not be used in any manner that
 competes with the business of Gaussian, Inc. or will provide
 assistance to any competitor of Gaussian, Inc.  The licensee
 of this program is prohibited from giving any competitor of
 Gaussian, Inc. access to this program.  By using this program,
 the user acknowledges that Gaussian, Inc. is engaged in the
 business of creating and licensing software in the field of
 computational chemistry and represents and warrants to the
 licensee that it is not a competitor of Gaussian, Inc. and that
 it will not use this program in any manner prohibited above.
 ---------------------------------------------------------------
  

 Cite this work as:
 Gaussian 09, Revision E.01,
 M. J. Frisch, G. W. Trucks, H. B. Schlegel, G. E. Scuseria, 
 M. A. Robb, J. R. Cheeseman, G. Scalmani, V. Barone, B. Mennucci, 
 G. A. Petersson, H. Nakatsuji, M. Caricato, X. Li, H. P. Hratchian, 
 A. F. Izmaylov, J. Bloino, G. Zheng, J. L. Sonnenberg, M. Hada, 
 M. Ehara, K. Toyota, R. Fukuda, J. Hasegawa, M. Ishida, T. Nakajima, 
 Y. Honda, O. Kitao, H. Nakai, T. Vreven, J. A. Montgomery, Jr., 
 J. E. Peralta, F. Ogliaro, M. Bearpark, J. J. Heyd, E. Brothers, 
 K. N. Kudin, V. N. Staroverov, T. Keith, R. Kobayashi, J. Normand, 
 K. Raghavachari, A. Rendell, J. C. Burant, S. S. Iyengar, J. Tomasi, 
 M. Cossi, N. Rega, J. M. Millam, M. Klene, J. E. Knox, J. B. Cross, 
 V. Bakken, C. Adamo, J. Jaramillo, R. Gomperts, R. E. Stratmann, 
 O. Yazyev, A. J. Austin, R. Cammi, C. Pomelli, J. W. Ochterski, 
 R. L. Martin, K. Morokuma, V. G. Zakrzewski, G. A. Voth, 
 P. Salvador, J. J. Dannenberg, S. Dapprich, A. D. Daniels, 
 O. Farkas, J. B. Foresman, J. V. Ortiz, J. Cioslowski, 
 and D. J. Fox, Gaussian, Inc., Wallingford CT, 2013.
 
 ******************************************
 Gaussian 09:  ES64L-G09RevE.01 30-Nov-2015
                15-Jul-2018 
 ******************************************
 %Mem=105Gb
 %NProcShared=24
 Will use up to   24 processors via shared memory.
 Default route:  SCF=Direct
 ------------------------------
 # opt=modredundant mp2/cc-pVTZ
 ------------------------------
 1/18=120,19=15,38=1/1,3;
 2/9=110,12=2,17=6,18=5,40=1/2;
 3/5=16,6=1,11=9,16=1,25=1,30=1,71=1/1,2,3;
 4//1;
 5/5=2,38=5/2;
 8/6=4,10=1/1;
 9/15=2,16=-3/6;
 10/5=1/2;
 6/7=2,8=2,9=2,10=2/1;
 7/12=2/1,2,3,16;
 1/18=20,19=15/3(2);
 2/9=110/2;
 99//99;
 2/9=110/2;
 3/5=16,6=1,11=9,16=1,25=1,30=1,71=1/1,2,3;
 4/5=5,16=3,69=1/1;
 5/5=2,38=5/2;
 8/6=4,10=1/1;
 9/15=2,16=-3/6;
 10/5=1/2;
 7/12=2/1,2,3,16;
 1/18=20,19=15/3(-8);
 2/9=110/2;
 6/7=2,8=2,9=2,10=2/1;
 99//99;
 ----------------
 methanethiol-ecl
 ----------------
 Symbolic Z-matrix:
 Charge =  0 Multiplicity = 1
 C                    -0.10777  -1.21646   0.00104 
 S                    -0.00877   0.66954   0.00004 
 H                     1.16623   1.32254  -0.01096 
 H                     0.92423  -1.63446  -0.00796 
 H                    -0.64377  -1.55046   0.91704 
 H                    -0.65977  -1.55146  -0.90496 
 
 The following ModRedundant input section has been read:
 D       4       1       2       3 F                                           
 

 GradGradGradGradGradGradGradGradGradGradGradGradGradGradGradGradGradGrad
 Berny optimization.
 Initialization pass.
                           ----------------------------
                           !    Initial Parameters    !
                           ! (Angstroms and Degrees)  !
 --------------------------                            --------------------------
 ! Name  Definition              Value          Derivative Info.                !
 --------------------------------------------------------------------------------
 ! R1    R(1,2)                  1.8886         estimate D2E/DX2                !
 ! R2    R(1,4)                  1.1135         estimate D2E/DX2                !
 ! R3    R(1,5)                  1.1126         estimate D2E/DX2                !
 ! R4    R(1,6)                  1.1125         estimate D2E/DX2                !
 ! R5    R(2,3)                  1.3443         estimate D2E/DX2                !
 ! A1    A(2,1,4)              109.0441         estimate D2E/DX2                !
 ! A2    A(2,1,5)              108.9941         estimate D2E/DX2                !
 ! A3    A(2,1,6)              109.0428         estimate D2E/DX2                !
 ! A4    A(4,1,5)              109.9049         estimate D2E/DX2                !
 ! A5    A(4,1,6)              109.8911         estimate D2E/DX2                !
 ! A6    A(5,1,6)              109.9394         estimate D2E/DX2                !
 ! A7    A(1,2,3)              122.0668         estimate D2E/DX2                !
 ! D1    D(4,1,2,3)              0.0338         Frozen                          !
 ! D2    D(5,1,2,3)            120.016          estimate D2E/DX2                !
 ! D3    D(6,1,2,3)           -119.9607         estimate D2E/DX2                !
 --------------------------------------------------------------------------------
 Trust Radius=3.00D-01 FncErr=1.00D-07 GrdErr=1.00D-07
 Number of steps in this run=     25 maximum allowed number of steps=    100.
 GradGradGradGradGradGradGradGradGradGradGradGradGradGradGradGradGradGrad

                          Input orientation:                          
 ---------------------------------------------------------------------
 Center     Atomic      Atomic             Coordinates (Angstroms)
 Number     Number       Type             X           Y           Z
 ---------------------------------------------------------------------
      1          6           0       -0.107769   -1.216462    0.001038
      2         16           0       -0.008769    0.669538    0.000038
      3          1           0        1.166231    1.322538   -0.010962
      4          1           0        0.924231   -1.634462   -0.007962
      5          1           0       -0.643769   -1.550462    0.917038
      6          1           0       -0.659769   -1.551462   -0.904962
 ---------------------------------------------------------------------
                    Distance matrix (angstroms):
                    1          2          3          4          5
     1  C    0.000000
     2  S    1.888597   0.000000
     3  H    2.840729   1.344305   0.000000
     4  H    1.113476   2.485753   2.966888   0.000000
     5  H    1.112613   2.484454   3.520144   1.822445   0.000000
     6  H    1.112549   2.485089   3.520424   1.822239   1.822071
                    6
     6  H    0.000000
 Stoichiometry    CH4S
 Framework group  C1[X(CH4S)]
 Deg. of freedom    12
 Full point group                 C1      NOp   1
 Largest Abelian subgroup         C1      NOp   1
 Largest concise Abelian subgroup C1      NOp   1
                         Standard orientation:                         
 ---------------------------------------------------------------------
 Center     Atomic      Atomic             Coordinates (Angstroms)
 Number     Number       Type             X           Y           Z
 ---------------------------------------------------------------------
      1          6           0       -1.220554    0.040514    0.000003
      2         16           0        0.663536   -0.089884    0.000038
      3          1           0        1.454190    0.997323   -0.000189
      4          1           0       -1.510338    1.115620   -0.000847
      5          1           0       -1.618146   -0.459692   -0.910833
      6          1           0       -1.618950   -0.458184    0.911237
 ---------------------------------------------------------------------
 Rotational constants (GHZ):    110.6283573     11.7115482     11.3889419
 Standard basis: CC-pVTZ (5D, 7F)
 There are   134 symmetry adapted cartesian basis functions of A   symmetry.
 There are   120 symmetry adapted basis functions of A   symmetry.
   120 basis functions,   214 primitive gaussians,   134 cartesian basis functions
    13 alpha electrons       13 beta electrons
       nuclear repulsion energy        54.4451809789 Hartrees.
 NAtoms=    6 NActive=    6 NUniq=    6 SFac= 1.00D+00 NAtFMM=   60 NAOKFM=F Big=F
 Integral buffers will be    131072 words long.
 Raffenetti 1 integral format.
 Two-electron integral symmetry is turned on.
 One-electron integrals computed using PRISM.
 NBasis=   120 RedAO= T EigKep=  1.96D-03  NBF=   120
 NBsUse=   120 1.00D-06 EigRej= -1.00D+00 NBFU=   120
 ExpMin= 1.03D-01 ExpMax= 3.74D+05 ExpMxC= 1.18D+03 IAcc=2 IRadAn=         4 AccDes= 0.00D+00
 Harris functional with IExCor=  205 and IRadAn=       4 diagonalized for initial guess.
 HarFok:  IExCor=  205 AccDes= 0.00D+00 IRadAn=         4 IDoV= 1 UseB2=F ITyADJ=14
 ICtDFT=  3500011 ScaDFX=  1.000000  1.000000  1.000000  1.000000
 FoFCou: FMM=F IPFlag=           0 FMFlag=      100000 FMFlg1=           0
         NFxFlg=           0 DoJE=T BraDBF=F KetDBF=T FulRan=T
         wScrn=  0.000000 ICntrl=     500 IOpCl=  0 I1Cent=   200000004 NGrid=           0
         NMat0=    1 NMatS0=      1 NMatT0=    0 NMatD0=    1 NMtDS0=    0 NMtDT0=    0
 Petite list used in FoFCou.
 Keep R1 ints in memory in canonical form, NReq=28466502.
 Requested convergence on RMS density matrix=1.00D-08 within 128 cycles.
 Requested convergence on MAX density matrix=1.00D-06.
 Requested convergence on             energy=1.00D-06.
 No special actions if energy rises.
 SCF Done:  E(RHF) =  -437.732663762     A.U. after   11 cycles
            NFock= 11  Conv=0.48D-08     -V/T= 2.0006
 ExpMin= 1.03D-01 ExpMax= 3.74D+05 ExpMxC= 1.18D+03 IAcc=3 IRadAn=         5 AccDes= 0.00D+00
 HarFok:  IExCor=  205 AccDes= 0.00D+00 IRadAn=         5 IDoV=-2 UseB2=F ITyADJ=14
 ICtDFT= 12500011 ScaDFX=  1.000000  1.000000  1.000000  1.000000
 Range of M.O.s used for correlation:     7   120
 NBasis=   120 NAE=    13 NBE=    13 NFC=     6 NFV=     0
 NROrb=    114 NOA=     7 NOB=     7 NVA=   107 NVB=   107

 **** Warning!!: The largest alpha MO coefficient is  0.11105923D+02

 Fully direct method using O(ONN) memory.
 JobTyp=1 Pass  1:  I=   7 to  13 NPSUse= 24 ParTrn=T ParDer=T DoDerP=T.
 Spin components of T(2) and E(2):
     alpha-alpha T2 =       0.1562935068D-01 E2=     -0.3872143060D-01
     alpha-beta  T2 =       0.1032616256D+00 E2=     -0.2867240776D+00
     beta-beta   T2 =       0.1562935068D-01 E2=     -0.3872143060D-01
 ANorm=    0.1065138642D+01
 E2 =    -0.3641669388D+00 EUMP2 =    -0.43809683070115D+03
          IDoAtm=111111
          Differentiating once with respect to electric field.
                with respect to dipole field.
          Differentiating once with respect to nuclear coordinates.
 Keep R1 ints in memory in canonical form, NReq=28428829.
          There are     1 degrees of freedom in the 1st order CPHF.  IDoFFX=0 NUNeed=     1.
 LinEq1:  Iter=  0 NonCon=     1 RMS=2.96D-03 Max=2.89D-02 NDo=     1
 AX will form     1 AO Fock derivatives at one time.
 LinEq1:  Iter=  1 NonCon=     1 RMS=1.03D-03 Max=1.24D-02 NDo=     1
 LinEq1:  Iter=  2 NonCon=     1 RMS=2.45D-04 Max=2.50D-03 NDo=     1
 LinEq1:  Iter=  3 NonCon=     1 RMS=6.91D-05 Max=1.24D-03 NDo=     1
 LinEq1:  Iter=  4 NonCon=     1 RMS=1.27D-05 Max=1.82D-04 NDo=     1
 LinEq1:  Iter=  5 NonCon=     1 RMS=3.31D-06 Max=5.32D-05 NDo=     1
 LinEq1:  Iter=  6 NonCon=     1 RMS=8.34D-07 Max=9.39D-06 NDo=     1
 LinEq1:  Iter=  7 NonCon=     1 RMS=1.47D-07 Max=1.58D-06 NDo=     1
 LinEq1:  Iter=  8 NonCon=     1 RMS=3.76D-08 Max=5.16D-07 NDo=     1
 LinEq1:  Iter=  9 NonCon=     1 RMS=7.63D-09 Max=1.17D-07 NDo=     1
 LinEq1:  Iter= 10 NonCon=     1 RMS=1.40D-09 Max=1.94D-08 NDo=     1
 LinEq1:  Iter= 11 NonCon=     1 RMS=2.30D-10 Max=2.75D-09 NDo=     1
 LinEq1:  Iter= 12 NonCon=     0 RMS=3.37D-11 Max=4.16D-10 NDo=     1
 Linear equations converged to 1.000D-10 1.000D-09 after    12 iterations.
 End of Minotr F.D. properties file   721 does not exist.
 End of Minotr F.D. properties file   722 does not exist.
 End of Minotr F.D. properties file   788 does not exist.

 **********************************************************************

            Population analysis using the SCF density.

 **********************************************************************

 Orbital symmetries:
       Occupied  (A) (A) (A) (A) (A) (A) (A) (A) (A) (A) (A) (A)
                 (A)
       Virtual   (A) (A) (A) (A) (A) (A) (A) (A) (A) (A) (A) (A)
                 (A) (A) (A) (A) (A) (A) (A) (A) (A) (A) (A) (A)
                 (A) (A) (A) (A) (A) (A) (A) (A) (A) (A) (A) (A)
                 (A) (A) (A) (A) (A) (A) (A) (A) (A) (A) (A) (A)
                 (A) (A) (A) (A) (A) (A) (A) (A) (A) (A) (A) (A)
                 (A) (A) (A) (A) (A) (A) (A) (A) (A) (A) (A) (A)
                 (A) (A) (A) (A) (A) (A) (A) (A) (A) (A) (A) (A)
                 (A) (A) (A) (A) (A) (A) (A) (A) (A) (A) (A) (A)
                 (A) (A) (A) (A) (A) (A) (A) (A) (A) (A) (A)
 The electronic state is 1-A.
 Alpha  occ. eigenvalues --  -91.94601 -11.28256  -8.94762  -6.62911  -6.62817
 Alpha  occ. eigenvalues --   -6.62731  -1.01555  -0.87092  -0.59566  -0.58785
 Alpha  occ. eigenvalues --   -0.55421  -0.41448  -0.35413
 Alpha virt. eigenvalues --    0.12383   0.13662   0.20159   0.20579   0.23331
 Alpha virt. eigenvalues --    0.30697   0.36548   0.37933   0.42612   0.45271
 Alpha virt. eigenvalues --    0.46011   0.49791   0.50830   0.56608   0.58588
 Alpha virt. eigenvalues --    0.60759   0.61677   0.63109   0.64544   0.77378
 Alpha virt. eigenvalues --    0.83241   0.89379   0.90911   0.98699   1.03633
 Alpha virt. eigenvalues --    1.05919   1.11889   1.16494   1.18042   1.21407
 Alpha virt. eigenvalues --    1.25210   1.28031   1.32258   1.45655   1.48395
 Alpha virt. eigenvalues --    1.50583   1.51465   1.53492   1.73882   1.85987
 Alpha virt. eigenvalues --    1.88525   1.89343   1.92435   1.97786   1.99066
 Alpha virt. eigenvalues --    2.04109   2.12372   2.16384   2.23276   2.23282
 Alpha virt. eigenvalues --    2.27259   2.33764   2.45776   2.53950   2.55146
 Alpha virt. eigenvalues --    2.59486   2.71391   2.85620   2.96822   3.01572
 Alpha virt. eigenvalues --    3.02189   3.08587   3.20947   3.21382   3.30839
 Alpha virt. eigenvalues --    3.32675   3.37268   3.38879   3.56115   3.56530
 Alpha virt. eigenvalues --    3.57508   3.63398   3.68036   3.69459   3.73106
 Alpha virt. eigenvalues --    3.78733   3.83481   3.87428   3.97397   4.06750
 Alpha virt. eigenvalues --    4.06980   4.09067   4.10159   4.22204   4.22293
 Alpha virt. eigenvalues --    4.27441   4.30319   4.30972   4.31863   4.36042
 Alpha virt. eigenvalues --    4.46528   4.47928   4.70334   4.85342   4.97893
 Alpha virt. eigenvalues --    5.00282   5.16891   5.29273   5.29307   5.44005
 Alpha virt. eigenvalues --    5.46952   5.47147   5.48152   5.90960   6.14047
 Alpha virt. eigenvalues --    6.14382  12.60182
          Condensed to atoms (all electrons):
               1          2          3          4          5          6
     1  C    4.740207   0.253906  -0.011012   0.404851   0.411952   0.411934
     2  S    0.253906  15.734417   0.345582  -0.026215  -0.033645  -0.033582
     3  H   -0.011012   0.345582   0.558996  -0.002846   0.000537   0.000534
     4  H    0.404851  -0.026215  -0.002846   0.562345  -0.023357  -0.023395
     5  H    0.411952  -0.033645   0.000537  -0.023357   0.563068  -0.036293
     6  H    0.411934  -0.033582   0.000534  -0.023395  -0.036293   0.563066
 Mulliken charges:
               1
     1  C   -0.211839
     2  S   -0.240463
     3  H    0.108209
     4  H    0.108618
     5  H    0.117738
     6  H    0.117736
 Sum of Mulliken charges =  -0.00000
 Mulliken charges with hydrogens summed into heavy atoms:
               1
     1  C    0.132254
     2  S   -0.132254
 Electronic spatial extent (au):  <R**2>=            153.4478
 Charge=             -0.0000 electrons
 Dipole moment (field-independent basis, Debye):
    X=             -1.4844    Y=              1.1277    Z=             -0.0004  Tot=              1.8641
 Quadrupole moment (field-independent basis, Debye-Ang):
   XX=            -18.7461   YY=            -20.4271   ZZ=            -22.7497
   XY=              2.1076   XZ=             -0.0012   YZ=              0.0000
 Traceless Quadrupole moment (field-independent basis, Debye-Ang):
   XX=              1.8948   YY=              0.2139   ZZ=             -2.1087
   XY=              2.1076   XZ=             -0.0012   YZ=              0.0000
 Octapole moment (field-independent basis, Debye-Ang**2):
  XXX=              1.9359  YYY=              2.3175  ZZZ=              0.0005  XYY=             -0.4493
  XXY=              2.5864  XXZ=              0.0012  XZZ=             -2.9249  YZZ=             -0.3660
  YYZ=             -0.0023  XYZ=             -0.0008
 Hexadecapole moment (field-independent basis, Debye-Ang**3):
 XXXX=           -141.8009 YYYY=            -36.3202 ZZZZ=            -36.4946 XXXY=              6.2217
 XXXZ=             -0.0087 YYYX=              1.6728 YYYZ=             -0.0007 ZZZX=             -0.0039
 ZZZY=              0.0010 XXYY=            -28.5930 XXZZ=            -30.5976 YYZZ=            -12.5721
 XXYZ=             -0.0005 YYXZ=              0.0025 ZZXY=              2.0170
 N-N= 5.444518097894D+01 E-N=-1.148915758359D+03  KE= 4.374672317553D+02
 Calling FoFJK, ICntrl=  10002127 FMM=F ISym2X=0 I1Cent= 0 IOpClX= 0 NMat=1 NMatS=1 NMatT=0.
 ***** Axes restored to original set *****
 -------------------------------------------------------------------
 Center     Atomic                   Forces (Hartrees/Bohr)
 Number     Number              X              Y              Z
 -------------------------------------------------------------------
      1        6           0.025052666    0.001710822   -0.000175666
      2       16          -0.038510335    0.003035744    0.000345925
      3        1           0.011409304   -0.027478342   -0.000114041
      4        1          -0.017411103    0.002652081    0.000169383
      5        1           0.009631545    0.010013053   -0.013224861
      6        1           0.009827923    0.010066643    0.012999260
 -------------------------------------------------------------------
 Cartesian Forces:  Max     0.038510335 RMS     0.015006035

 GradGradGradGradGradGradGradGradGradGradGradGradGradGradGradGradGradGrad
 Berny optimization.
 FormGI is forming the generalized inverse of G from B-inverse, IUseBI=4.
 Internal  Forces:  Max     0.075096045 RMS     0.022380053
 Search for a local minimum.
 Step number   1 out of a maximum of   25
 All quantities printed in internal units (Hartrees-Bohrs-Radians)
 Mixed Optimization -- RFO/linear search
 Second derivative matrix not updated -- first step.
 The second derivative matrix:
                          R1        R2        R3        R4        R5
           R1           0.20218
           R2           0.00000   0.32235
           R3           0.00000   0.00000   0.32325
           R4           0.00000   0.00000   0.00000   0.32332
           R5           0.00000   0.00000   0.00000   0.00000   0.26081
           A1           0.00000   0.00000   0.00000   0.00000   0.00000
           A2           0.00000   0.00000   0.00000   0.00000   0.00000
           A3           0.00000   0.00000   0.00000   0.00000   0.00000
           A4           0.00000   0.00000   0.00000   0.00000   0.00000
           A5           0.00000   0.00000   0.00000   0.00000   0.00000
           A6           0.00000   0.00000   0.00000   0.00000   0.00000
           A7           0.00000   0.00000   0.00000   0.00000   0.00000
           D1           0.00000   0.00000   0.00000   0.00000   0.00000
           D2           0.00000   0.00000   0.00000   0.00000   0.00000
           D3           0.00000   0.00000   0.00000   0.00000   0.00000
                          A1        A2        A3        A4        A5
           A1           0.16000
           A2           0.00000   0.16000
           A3           0.00000   0.00000   0.16000
           A4           0.00000   0.00000   0.00000   0.16000
           A5           0.00000   0.00000   0.00000   0.00000   0.16000
           A6           0.00000   0.00000   0.00000   0.00000   0.00000
           A7           0.00000   0.00000   0.00000   0.00000   0.00000
           D1           0.00000   0.00000   0.00000   0.00000   0.00000
           D2           0.00000   0.00000   0.00000   0.00000   0.00000
           D3           0.00000   0.00000   0.00000   0.00000   0.00000
                          A6        A7        D1        D2        D3
           A6           0.16000
           A7           0.00000   0.16000
           D1           0.00000   0.00000   0.00230
           D2           0.00000   0.00000   0.00000   0.00230
           D3           0.00000   0.00000   0.00000   0.00000   0.00230
 ITU=  0
     Eigenvalues ---    0.05797   0.10021   0.16000   0.16000   0.16000
     Eigenvalues ---    0.16000   0.20218   0.26081   0.32235   0.32325
     Eigenvalues ---    0.323321000.000001000.000001000.000001000.00000
 RFO step:  Lambda=-3.55387193D-02 EMin= 5.79709400D-02
 Linear search not attempted -- first point.
 Maximum step size (   0.300) exceeded in Quadratic search.
    -- Step size scaled by   0.722
 Iteration  1 RMS(Cart)=  0.10828498 RMS(Int)=  0.02117430
 Iteration  2 RMS(Cart)=  0.04227961 RMS(Int)=  0.00134215
 Iteration  3 RMS(Cart)=  0.00103657 RMS(Int)=  0.00019233
 Iteration  4 RMS(Cart)=  0.00000026 RMS(Int)=  0.00019233
 Iteration  1 RMS(Cart)=  0.00000032 RMS(Int)=  0.00000035
 Variable       Old X    -DE/DX   Delta X   Delta X   Delta X     New X
                                 (Linear)    (Quad)   (Total)
    R1        3.56893  -0.02583   0.00000  -0.07843  -0.07843   3.49050
    R2        2.10416  -0.01713   0.00000  -0.03456  -0.03456   2.06961
    R3        2.10253  -0.01853   0.00000  -0.03728  -0.03728   2.06525
    R4        2.10241  -0.01849   0.00000  -0.03720  -0.03720   2.06522
    R5        2.54037  -0.00337   0.00000  -0.00822  -0.00822   2.53215
    A1        1.90318   0.00885   0.00000   0.03399   0.03411   1.93728
    A2        1.90231  -0.00729   0.00000  -0.02755  -0.02765   1.87465
    A3        1.90316  -0.00738   0.00000  -0.02791  -0.02802   1.87514
    A4        1.91820   0.00026   0.00000   0.00230   0.00243   1.92063
    A5        1.91796   0.00029   0.00000   0.00240   0.00252   1.92048
    A6        1.91880   0.00517   0.00000   0.01643   0.01606   1.93486
    A7        2.13047  -0.07510   0.00000  -0.27720  -0.27720   1.85327
    D1        0.00059   0.00000   0.00000   0.00000  -0.00000   0.00059
    D2        2.09467   0.00125   0.00000   0.00662   0.00621   2.10088
    D3       -2.09371  -0.00123   0.00000  -0.00654  -0.00612  -2.09983
         Item               Value     Threshold  Converged?
 Maximum Force            0.075096     0.000450     NO 
 RMS     Force            0.023166     0.000300     NO 
 Maximum Displacement     0.465327     0.001800     NO 
 RMS     Displacement     0.149354     0.001200     NO 
 Predicted change in Energy=-1.799370D-02
 GradGradGradGradGradGradGradGradGradGradGradGradGradGradGradGradGradGrad

                          Input orientation:                          
 ---------------------------------------------------------------------
 Center     Atomic      Atomic             Coordinates (Angstroms)
 Number     Number       Type             X           Y           Z
 ---------------------------------------------------------------------
      1          6           0       -0.088381   -1.167307    0.000924
      2         16           0       -0.121952    0.679484    0.001064
      3          1           0        1.157843    1.076298   -0.010941
      4          1           0        0.941004   -1.541108   -0.008063
      5          1           0       -0.601172   -1.503742    0.905495
      6          1           0       -0.616957   -1.504394   -0.894248
 ---------------------------------------------------------------------
                    Distance matrix (angstroms):
                    1          2          3          4          5
     1  C    0.000000
     2  S    1.847095   0.000000
     3  H    2.566510   1.339956   0.000000
     4  H    1.095190   2.461907   2.626374   0.000000
     5  H    1.092883   2.411249   3.254320   1.792845   0.000000
     6  H    1.092865   2.411625   3.254246   1.792740   1.799813
                    6
     6  H    0.000000
 Stoichiometry    CH4S
 Framework group  C1[X(CH4S)]
 Deg. of freedom    12
 Full point group                 C1      NOp   1
 Largest Abelian subgroup         C1      NOp   1
 Largest concise Abelian subgroup C1      NOp   1
                         Standard orientation:                         
 ---------------------------------------------------------------------
 Center     Atomic      Atomic             Coordinates (Angstroms)
 Number     Number       Type             X           Y           Z
 ---------------------------------------------------------------------
      1          6           0       -1.182477    0.027698    0.000000
      2         16           0        0.660806   -0.090928    0.000018
      3          1           0        1.116167    1.169282   -0.000081
      4          1           0       -1.508451    1.073251   -0.000688
      5          1           0       -1.542651   -0.477543   -0.899666
      6          1           0       -1.543092   -0.476334    0.900146
 ---------------------------------------------------------------------
 Rotational constants (GHZ):    104.4608373     12.4768811     12.0103750
 Standard basis: CC-pVTZ (5D, 7F)
 There are   134 symmetry adapted cartesian basis functions of A   symmetry.
 There are   120 symmetry adapted basis functions of A   symmetry.
   120 basis functions,   214 primitive gaussians,   134 cartesian basis functions
    13 alpha electrons       13 beta electrons
       nuclear repulsion energy        55.6410552271 Hartrees.
 NAtoms=    6 NActive=    6 NUniq=    6 SFac= 1.00D+00 NAtFMM=   60 NAOKFM=F Big=F
 Integral buffers will be    131072 words long.
 Raffenetti 1 integral format.
 Two-electron integral symmetry is turned on.
 One-electron integrals computed using PRISM.
 NBasis=   120 RedAO= T EigKep=  1.78D-03  NBF=   120
 NBsUse=   120 1.00D-06 EigRej= -1.00D+00 NBFU=   120
 Initial guess from the checkpoint file:  "/mnt/lustre/scratch/slurm/1397324/uviqopsc.fwYAOtsjwH/Gau-1768.chk"
 B after Tr=    -0.000000    0.000000    0.000000
         Rot=    0.999882   -0.000059   -0.000016   -0.015378 Ang=  -1.76 deg.
 ExpMin= 1.03D-01 ExpMax= 3.74D+05 ExpMxC= 1.18D+03 IAcc=2 IRadAn=         4 AccDes= 0.00D+00
 Harris functional with IExCor=  205 and IRadAn=       4 diagonalized for initial guess.
 HarFok:  IExCor=  205 AccDes= 0.00D+00 IRadAn=         4 IDoV= 1 UseB2=F ITyADJ=14
 ICtDFT=  3500011 ScaDFX=  1.000000  1.000000  1.000000  1.000000
 FoFCou: FMM=F IPFlag=           0 FMFlag=      100000 FMFlg1=           0
         NFxFlg=           0 DoJE=T BraDBF=F KetDBF=T FulRan=T
         wScrn=  0.000000 ICntrl=     500 IOpCl=  0 I1Cent=   200000004 NGrid=           0
         NMat0=    1 NMatS0=      1 NMatT0=    0 NMatD0=    1 NMtDS0=    0 NMtDT0=    0
 Petite list used in FoFCou.
 Keep R1 ints in memory in canonical form, NReq=28467104.
 Requested convergence on RMS density matrix=1.00D-08 within 128 cycles.
 Requested convergence on MAX density matrix=1.00D-06.
 Requested convergence on             energy=1.00D-06.
 No special actions if energy rises.
 SCF Done:  E(RHF) =  -437.751786210     A.U. after   10 cycles
            NFock= 10  Conv=0.97D-08     -V/T= 2.0003
 ExpMin= 1.03D-01 ExpMax= 3.74D+05 ExpMxC= 1.18D+03 IAcc=3 IRadAn=         5 AccDes= 0.00D+00
 HarFok:  IExCor=  205 AccDes= 0.00D+00 IRadAn=         5 IDoV=-2 UseB2=F ITyADJ=14
 ICtDFT= 12500011 ScaDFX=  1.000000  1.000000  1.000000  1.000000
 Range of M.O.s used for correlation:     7   120
 NBasis=   120 NAE=    13 NBE=    13 NFC=     6 NFV=     0
 NROrb=    114 NOA=     7 NOB=     7 NVA=   107 NVB=   107

 **** Warning!!: The largest alpha MO coefficient is  0.11571855D+02

 Fully direct method using O(ONN) memory.
 JobTyp=1 Pass  1:  I=   7 to  13 NPSUse= 24 ParTrn=T ParDer=T DoDerP=T.
 Spin components of T(2) and E(2):
     alpha-alpha T2 =       0.1535244792D-01 E2=     -0.3870949567D-01
     alpha-beta  T2 =       0.1008280873D+00 E2=     -0.2856185307D+00
     beta-beta   T2 =       0.1535244792D-01 E2=     -0.3870949567D-01
 ANorm=    0.1063735391D+01
 E2 =    -0.3630375220D+00 EUMP2 =    -0.43811482373227D+03
          IDoAtm=111111
          Differentiating once with respect to electric field.
                with respect to dipole field.
          Differentiating once with respect to nuclear coordinates.
 Keep R1 ints in memory in canonical form, NReq=28429361.
          There are     1 degrees of freedom in the 1st order CPHF.  IDoFFX=0 NUNeed=     1.
 LinEq1:  Iter=  0 NonCon=     1 RMS=2.89D-03 Max=2.65D-02 NDo=     1
 AX will form     1 AO Fock derivatives at one time.
 LinEq1:  Iter=  1 NonCon=     1 RMS=9.67D-04 Max=1.22D-02 NDo=     1
 LinEq1:  Iter=  2 NonCon=     1 RMS=2.31D-04 Max=2.07D-03 NDo=     1
 LinEq1:  Iter=  3 NonCon=     1 RMS=6.25D-05 Max=1.05D-03 NDo=     1
 LinEq1:  Iter=  4 NonCon=     1 RMS=1.13D-05 Max=1.70D-04 NDo=     1
 LinEq1:  Iter=  5 NonCon=     1 RMS=2.82D-06 Max=3.96D-05 NDo=     1
 LinEq1:  Iter=  6 NonCon=     1 RMS=7.00D-07 Max=7.46D-06 NDo=     1
 LinEq1:  Iter=  7 NonCon=     1 RMS=1.12D-07 Max=1.05D-06 NDo=     1
 LinEq1:  Iter=  8 NonCon=     1 RMS=2.84D-08 Max=3.07D-07 NDo=     1
 LinEq1:  Iter=  9 NonCon=     1 RMS=5.20D-09 Max=8.83D-08 NDo=     1
 LinEq1:  Iter= 10 NonCon=     1 RMS=8.70D-10 Max=1.18D-08 NDo=     1
 LinEq1:  Iter= 11 NonCon=     1 RMS=1.49D-10 Max=2.01D-09 NDo=     1
 LinEq1:  Iter= 12 NonCon=     0 RMS=2.24D-11 Max=2.16D-10 NDo=     1
 Linear equations converged to 1.000D-10 1.000D-09 after    12 iterations.
 End of Minotr F.D. properties file   721 does not exist.
 End of Minotr F.D. properties file   722 does not exist.
 End of Minotr F.D. properties file   788 does not exist.
 Calling FoFJK, ICntrl=  10002127 FMM=F ISym2X=0 I1Cent= 0 IOpClX= 0 NMat=1 NMatS=1 NMatT=0.
 ***** Axes restored to original set *****
 -------------------------------------------------------------------
 Center     Atomic                   Forces (Hartrees/Bohr)
 Number     Number              X              Y              Z
 -------------------------------------------------------------------
      1        6           0.007923204    0.007896690   -0.000056536
      2       16          -0.008296239    0.001463862    0.000069054
      3        1           0.000701238   -0.012055306   -0.000009628
      4        1          -0.006875276    0.001995514    0.000070958
      5        1           0.003235064    0.000334192   -0.005316161
      6        1           0.003312008    0.000365048    0.005242312
 -------------------------------------------------------------------
 Cartesian Forces:  Max     0.012055306 RMS     0.005113248

 GradGradGradGradGradGradGradGradGradGradGradGradGradGradGradGradGradGrad
 Berny optimization.
 Using GEDIIS/GDIIS optimizer.
 FormGI is forming the generalized inverse of G from B-inverse, IUseBI=4.
 Internal  Forces:  Max     0.029682475 RMS     0.008700812
 Search for a local minimum.
 Step number   2 out of a maximum of   25
 All quantities printed in internal units (Hartrees-Bohrs-Radians)
 Mixed Optimization -- RFO/linear search
 Update second derivatives using D2CorX and points    1    2
 DE= -1.80D-02 DEPred=-1.80D-02 R= 1.00D+00
 TightC=F SS=  1.41D+00  RLast= 3.00D-01 DXNew= 5.0454D-01 9.0042D-01
 Trust test= 1.00D+00 RLast= 3.00D-01 DXMaxT set to 5.05D-01
 The second derivative matrix:
                          R1        R2        R3        R4        R5
           R1           0.20051
           R2          -0.00195   0.32047
           R3          -0.00048  -0.00097   0.32353
           R4          -0.00048  -0.00097   0.00028   0.32359
           R5          -0.00176  -0.00126  -0.00132  -0.00131   0.26052
           A1          -0.00306  -0.00169  -0.00279  -0.00278   0.00050
           A2           0.00441   0.00262   0.00383   0.00382  -0.00034
           A3           0.00438   0.00260   0.00382   0.00381  -0.00035
           A4          -0.00105  -0.00066  -0.00088  -0.00088   0.00001
           A5          -0.00105  -0.00066  -0.00088  -0.00087   0.00001
           A6          -0.00350  -0.00214  -0.00299  -0.00299   0.00017
           A7          -0.00238  -0.00397   0.00053   0.00052  -0.00487
           D1          -0.00000  -0.00000  -0.00000  -0.00000  -0.00000
           D2          -0.00153  -0.00099  -0.00124  -0.00124  -0.00005
           D3           0.00152   0.00099   0.00124   0.00124   0.00005
                          A1        A2        A3        A4        A5
           A1           0.16319
           A2          -0.00373   0.16420
           A3          -0.00373   0.00421   0.16421
           A4           0.00072  -0.00077  -0.00078   0.16013
           A5           0.00072  -0.00078  -0.00078   0.00013   0.16014
           A6           0.00272  -0.00301  -0.00302   0.00054   0.00055
           A7          -0.00990   0.01373   0.01367  -0.00317  -0.00316
           D1           0.00000  -0.00000  -0.00000   0.00000   0.00000
           D2           0.00090  -0.00093  -0.00094   0.00015   0.00015
           D3          -0.00090   0.00093   0.00094  -0.00015  -0.00015
                          A6        A7        D1        D2        D3
           A6           0.16215
           A7          -0.01076   0.16015
           D1           0.00000  -0.00001   0.00230
           D2           0.00064  -0.00451   0.00000   0.00246
           D3          -0.00064   0.00449  -0.00000  -0.00016   0.00246
 ITU=  1  0
 Use linear search instead of GDIIS.
     Eigenvalues ---    0.05690   0.10268   0.14040   0.16000   0.16000
     Eigenvalues ---    0.19013   0.20330   0.26076   0.32046   0.32328
     Eigenvalues ---    0.324861000.000001000.000001000.000001000.00000
 RFO step:  Lambda=-1.13377924D-03 EMin= 5.68983490D-02
 Quartic linear search produced a step of  0.49500.
 Iteration  1 RMS(Cart)=  0.09776382 RMS(Int)=  0.00631386
 Iteration  2 RMS(Cart)=  0.00545447 RMS(Int)=  0.00032773
 Iteration  3 RMS(Cart)=  0.00000995 RMS(Int)=  0.00032767
 Iteration  4 RMS(Cart)=  0.00000000 RMS(Int)=  0.00032767
 Iteration  1 RMS(Cart)=  0.00000025 RMS(Int)=  0.00000026
 Variable       Old X    -DE/DX   Delta X   Delta X   Delta X     New X
                                 (Linear)    (Quad)   (Total)
    R1        3.49050  -0.01045  -0.03882  -0.01049  -0.04931   3.44119
    R2        2.06961  -0.00714  -0.01711  -0.00644  -0.02355   2.04606
    R3        2.06525  -0.00602  -0.01846   0.00091  -0.01755   2.04770
    R4        2.06522  -0.00601  -0.01841   0.00090  -0.01751   2.04771
    R5        2.53215  -0.00290  -0.00407  -0.00998  -0.01405   2.51810
    A1        1.93728  -0.00023   0.01688  -0.03438  -0.01741   1.91988
    A2        1.87465   0.00209  -0.01369   0.04500   0.03101   1.90566
    A3        1.87514   0.00203  -0.01387   0.04479   0.03061   1.90575
    A4        1.92063  -0.00126   0.00120  -0.01550  -0.01420   1.90643
    A5        1.92048  -0.00124   0.00125  -0.01543  -0.01409   1.90640
    A6        1.93486  -0.00125   0.00795  -0.02236  -0.01512   1.91974
    A7        1.85327  -0.02968  -0.13721  -0.02578  -0.16299   1.69028
    D1        0.00059   0.00000  -0.00000   0.00000   0.00000   0.00059
    D2        2.10088  -0.00036   0.00307  -0.01088  -0.00847   2.09241
    D3       -2.09983   0.00037  -0.00303   0.01094   0.00858  -2.09125
         Item               Value     Threshold  Converged?
 Maximum Force            0.029682     0.000450     NO 
 RMS     Force            0.009006     0.000300     NO 
 Maximum Displacement     0.311258     0.001800     NO 
 RMS     Displacement     0.099505     0.001200     NO 
 Predicted change in Energy=-3.441020D-03
 GradGradGradGradGradGradGradGradGradGradGradGradGradGradGradGradGradGrad

                          Input orientation:                          
 ---------------------------------------------------------------------
 Center     Atomic      Atomic             Coordinates (Angstroms)
 Number     Number       Type             X           Y           Z
 ---------------------------------------------------------------------
      1          6           0       -0.089330   -1.122000    0.000983
      2         16           0       -0.165710    0.697396    0.001429
      3          1           0        1.149427    0.911587   -0.010911
      4          1           0        0.942695   -1.449329   -0.008027
      5          1           0       -0.575566   -1.499056    0.892938
      6          1           0       -0.591132   -1.499368   -0.882180
 ---------------------------------------------------------------------
                    Distance matrix (angstroms):
                    1          2          3          4          5
     1  C    0.000000
     2  S    1.820999   0.000000
     3  H    2.381205   1.332522   0.000000
     4  H    1.082729   2.416005   2.369952   0.000000
     5  H    1.083597   2.405655   3.098991   1.766163   0.000000
     6  H    1.083599   2.405727   3.098606   1.766146   1.775187
                    6
     6  H    0.000000
 Stoichiometry    CH4S
 Framework group  C1[X(CH4S)]
 Deg. of freedom    12
 Full point group                 C1      NOp   1
 Largest Abelian subgroup         C1      NOp   1
 Largest concise Abelian subgroup C1      NOp   1
                         Standard orientation:                         
 ---------------------------------------------------------------------
 Center     Atomic      Atomic             Coordinates (Angstroms)
 Number     Number       Type             X           Y           Z
 ---------------------------------------------------------------------
      1          6           0       -1.156166    0.013065    0.000000
      2         16           0        0.662052   -0.087541    0.000004
      3          1           0        0.893741    1.224684   -0.000022
      4          1           0       -1.469720    1.049398   -0.000621
      5          1           0       -1.539906   -0.476447   -0.887301
      6          1           0       -1.539943   -0.475364    0.887885
 ---------------------------------------------------------------------
 Rotational constants (GHZ):    104.1348259     12.9064493     12.3763460
 Standard basis: CC-pVTZ (5D, 7F)
 There are   134 symmetry adapted cartesian basis functions of A   symmetry.
 There are   120 symmetry adapted basis functions of A   symmetry.
   120 basis functions,   214 primitive gaussians,   134 cartesian basis functions
    13 alpha electrons       13 beta electrons
       nuclear repulsion energy        56.3830367494 Hartrees.
 NAtoms=    6 NActive=    6 NUniq=    6 SFac= 1.00D+00 NAtFMM=   60 NAOKFM=F Big=F
 Integral buffers will be    131072 words long.
 Raffenetti 1 integral format.
 Two-electron integral symmetry is turned on.
 One-electron integrals computed using PRISM.
 NBasis=   120 RedAO= T EigKep=  1.69D-03  NBF=   120
 NBsUse=   120 1.00D-06 EigRej= -1.00D+00 NBFU=   120
 Initial guess from the checkpoint file:  "/mnt/lustre/scratch/slurm/1397324/uviqopsc.fwYAOtsjwH/Gau-1768.chk"
 B after Tr=     0.000000   -0.000000    0.000000
         Rot=    0.999963   -0.000021   -0.000014   -0.008608 Ang=  -0.99 deg.
 ExpMin= 1.03D-01 ExpMax= 3.74D+05 ExpMxC= 1.18D+03 IAcc=2 IRadAn=         4 AccDes= 0.00D+00
 Harris functional with IExCor=  205 and IRadAn=       4 diagonalized for initial guess.
 HarFok:  IExCor=  205 AccDes= 0.00D+00 IRadAn=         4 IDoV= 1 UseB2=F ITyADJ=14
 ICtDFT=  3500011 ScaDFX=  1.000000  1.000000  1.000000  1.000000
 FoFCou: FMM=F IPFlag=           0 FMFlag=      100000 FMFlg1=           0
         NFxFlg=           0 DoJE=T BraDBF=F KetDBF=T FulRan=T
         wScrn=  0.000000 ICntrl=     500 IOpCl=  0 I1Cent=   200000004 NGrid=           0
         NMat0=    1 NMatS0=      1 NMatT0=    0 NMatD0=    1 NMtDS0=    0 NMtDT0=    0
 Petite list used in FoFCou.
 Keep R1 ints in memory in canonical form, NReq=28467454.
 Requested convergence on RMS density matrix=1.00D-08 within 128 cycles.
 Requested convergence on MAX density matrix=1.00D-06.
 Requested convergence on             energy=1.00D-06.
 No special actions if energy rises.
 SCF Done:  E(RHF) =  -437.754499604     A.U. after   10 cycles
            NFock= 10  Conv=0.36D-08     -V/T= 2.0001
 ExpMin= 1.03D-01 ExpMax= 3.74D+05 ExpMxC= 1.18D+03 IAcc=3 IRadAn=         5 AccDes= 0.00D+00
 HarFok:  IExCor=  205 AccDes= 0.00D+00 IRadAn=         5 IDoV=-2 UseB2=F ITyADJ=14
 ICtDFT= 12500011 ScaDFX=  1.000000  1.000000  1.000000  1.000000
 DSYEVD-2 returned Info=          61 IAlg= 4 N=    30 NDim=    30 NE2=   414494567 trying  DSYEV.
 Range of M.O.s used for correlation:     7   120
 NBasis=   120 NAE=    13 NBE=    13 NFC=     6 NFV=     0
 NROrb=    114 NOA=     7 NOB=     7 NVA=   107 NVB=   107

 **** Warning!!: The largest alpha MO coefficient is  0.11803888D+02

 Fully direct method using O(ONN) memory.
 JobTyp=1 Pass  1:  I=   7 to  13 NPSUse= 24 ParTrn=T ParDer=T DoDerP=T.
 Spin components of T(2) and E(2):
     alpha-alpha T2 =       0.1528100712D-01 E2=     -0.3886010796D-01
     alpha-beta  T2 =       0.9989609842D-01 E2=     -0.2856127398D+00
     beta-beta   T2 =       0.1528100712D-01 E2=     -0.3886010796D-01
 ANorm=    0.1063230038D+01
 E2 =    -0.3633329558D+00 EUMP2 =    -0.43811783255983D+03
          IDoAtm=111111
          Differentiating once with respect to electric field.
                with respect to dipole field.
          Differentiating once with respect to nuclear coordinates.
 Keep R1 ints in memory in canonical form, NReq=28429665.
          There are     1 degrees of freedom in the 1st order CPHF.  IDoFFX=0 NUNeed=     1.
 LinEq1:  Iter=  0 NonCon=     1 RMS=2.88D-03 Max=2.26D-02 NDo=     1
 AX will form     1 AO Fock derivatives at one time.
 LinEq1:  Iter=  1 NonCon=     1 RMS=9.47D-04 Max=1.10D-02 NDo=     1
 LinEq1:  Iter=  2 NonCon=     1 RMS=2.32D-04 Max=2.12D-03 NDo=     1
 LinEq1:  Iter=  3 NonCon=     1 RMS=6.20D-05 Max=9.33D-04 NDo=     1
 LinEq1:  Iter=  4 NonCon=     1 RMS=1.15D-05 Max=1.73D-04 NDo=     1
 LinEq1:  Iter=  5 NonCon=     1 RMS=2.78D-06 Max=2.79D-05 NDo=     1
 LinEq1:  Iter=  6 NonCon=     1 RMS=6.80D-07 Max=6.61D-06 NDo=     1
 LinEq1:  Iter=  7 NonCon=     1 RMS=1.02D-07 Max=1.07D-06 NDo=     1
 LinEq1:  Iter=  8 NonCon=     1 RMS=2.75D-08 Max=3.11D-07 NDo=     1
 LinEq1:  Iter=  9 NonCon=     1 RMS=5.20D-09 Max=8.54D-08 NDo=     1
 LinEq1:  Iter= 10 NonCon=     1 RMS=8.74D-10 Max=1.45D-08 NDo=     1
 LinEq1:  Iter= 11 NonCon=     1 RMS=1.59D-10 Max=1.94D-09 NDo=     1
 LinEq1:  Iter= 12 NonCon=     0 RMS=2.27D-11 Max=2.21D-10 NDo=     1
 Linear equations converged to 1.000D-10 1.000D-09 after    12 iterations.
 End of Minotr F.D. properties file   721 does not exist.
 End of Minotr F.D. properties file   722 does not exist.
 End of Minotr F.D. properties file   788 does not exist.
 Calling FoFJK, ICntrl=  10002127 FMM=F ISym2X=0 I1Cent= 0 IOpClX= 0 NMat=1 NMatS=1 NMatT=0.
 ***** Axes restored to original set *****
 -------------------------------------------------------------------
 Center     Atomic                   Forces (Hartrees/Bohr)
 Number     Number              X              Y              Z
 -------------------------------------------------------------------
      1        6          -0.000521475    0.001204826   -0.000001156
      2       16           0.000098988    0.001432779    0.000001351
      3        1           0.000366074    0.000343338   -0.000005627
      4        1           0.000772195   -0.000554843   -0.000002227
      5        1          -0.000353956   -0.001214132    0.000371892
      6        1          -0.000361826   -0.001211968   -0.000364233
 -------------------------------------------------------------------
 Cartesian Forces:  Max     0.001432779 RMS     0.000683635

 GradGradGradGradGradGradGradGradGradGradGradGradGradGradGradGradGradGrad
 Berny optimization.
 Using GEDIIS/GDIIS optimizer.
 FormGI is forming the generalized inverse of G from B-inverse, IUseBI=4.
 Internal  Forces:  Max     0.001755046 RMS     0.000838992
 Search for a local minimum.
 Step number   3 out of a maximum of   25
 All quantities printed in internal units (Hartrees-Bohrs-Radians)
 Mixed Optimization -- En-DIIS/RFO-DIIS
 Update second derivatives using D2CorX and points    1    2    3
 DE= -3.01D-03 DEPred=-3.44D-03 R= 8.74D-01
 TightC=F SS=  1.41D+00  RLast= 1.83D-01 DXNew= 8.4853D-01 5.4777D-01
 Trust test= 8.74D-01 RLast= 1.83D-01 DXMaxT set to 5.48D-01
 The second derivative matrix:
                          R1        R2        R3        R4        R5
           R1           0.20896
           R2           0.00254   0.32269
           R3           0.00396   0.00127   0.32575
           R4           0.00395   0.00127   0.00250   0.32581
           R5          -0.00013  -0.00044  -0.00047  -0.00047   0.26080
           A1          -0.00521  -0.00304  -0.00401  -0.00400  -0.00003
           A2           0.00784   0.00492   0.00590   0.00589   0.00051
           A3           0.00783   0.00491   0.00589   0.00588   0.00050
           A4          -0.00301  -0.00205  -0.00213  -0.00213  -0.00047
           A5          -0.00302  -0.00205  -0.00213  -0.00213  -0.00047
           A6          -0.00448  -0.00272  -0.00351  -0.00351  -0.00007
           A7           0.01487   0.00450   0.00905   0.00903  -0.00168
           D1           0.00000   0.00000   0.00000   0.00000   0.00000
           D2           0.00051   0.00041   0.00006   0.00006   0.00042
           D3          -0.00053  -0.00042  -0.00007  -0.00007  -0.00042
                          A1        A2        A3        A4        A5
           A1           0.16334
           A2          -0.00385   0.16408
           A3          -0.00386   0.00410   0.16413
           A4           0.00075  -0.00056  -0.00058   0.15988
           A5           0.00076  -0.00057  -0.00058  -0.00012   0.15989
           A6           0.00279  -0.00311  -0.00312   0.00061   0.00061
           A7          -0.01509   0.02264   0.02260  -0.00861  -0.00861
           D1           0.00000  -0.00000  -0.00000   0.00000   0.00000
           D2           0.00076  -0.00098  -0.00097   0.00032   0.00032
           D3          -0.00076   0.00097   0.00097  -0.00032  -0.00032
                          A6        A7        D1        D2        D3
           A6           0.16216
           A7          -0.01297   0.19225
           D1           0.00000   0.00001   0.00230
           D2           0.00051   0.00103   0.00000   0.00234
           D3          -0.00051  -0.00106  -0.00000  -0.00004   0.00234
 ITU=  1  1  0
 Use linear search instead of GDIIS.
     Eigenvalues ---    0.05690   0.09974   0.14309   0.16000   0.16035
     Eigenvalues ---    0.19435   0.23260   0.26083   0.32226   0.32328
     Eigenvalues ---    0.333611000.000001000.000001000.000001000.00000
 RFO step:  Lambda=-4.12200763D-05 EMin= 5.68964015D-02
 Quartic linear search produced a step of -0.02315.
 Iteration  1 RMS(Cart)=  0.00493342 RMS(Int)=  0.00001087
 Iteration  2 RMS(Cart)=  0.00000927 RMS(Int)=  0.00000389
 Iteration  3 RMS(Cart)=  0.00000000 RMS(Int)=  0.00000389
 Iteration  1 RMS(Cart)=  0.00000011 RMS(Int)=  0.00000011
 Variable       Old X    -DE/DX   Delta X   Delta X   Delta X     New X
                                 (Linear)    (Quad)   (Total)
    R1        3.44119   0.00176   0.00114   0.00635   0.00749   3.44868
    R2        2.04606   0.00090   0.00055   0.00187   0.00242   2.04848
    R3        2.04770   0.00089   0.00041   0.00185   0.00225   2.04995
    R4        2.04771   0.00089   0.00041   0.00185   0.00225   2.04996
    R5        2.51810   0.00042   0.00033   0.00123   0.00155   2.51966
    A1        1.91988   0.00000   0.00040   0.00032   0.00072   1.92060
    A2        1.90566   0.00113  -0.00072   0.00682   0.00610   1.91176
    A3        1.90575   0.00113  -0.00071   0.00679   0.00608   1.91183
    A4        1.90643  -0.00061   0.00033  -0.00394  -0.00362   1.90281
    A5        1.90640  -0.00060   0.00033  -0.00391  -0.00359   1.90280
    A6        1.91974  -0.00106   0.00035  -0.00611  -0.00576   1.91398
    A7        1.69028   0.00071   0.00377  -0.00339   0.00038   1.69066
    D1        0.00059   0.00000  -0.00000   0.00000   0.00000   0.00059
    D2        2.09241  -0.00004   0.00020  -0.00041  -0.00021   2.09220
    D3       -2.09125   0.00004  -0.00020   0.00039   0.00019  -2.09106
         Item               Value     Threshold  Converged?
 Maximum Force            0.001755     0.000450     NO 
 RMS     Force            0.000868     0.000300     NO 
 Maximum Displacement     0.010054     0.001800     NO 
 RMS     Displacement     0.004935     0.001200     NO 
 Predicted change in Energy=-2.226513D-05
 GradGradGradGradGradGradGradGradGradGradGradGradGradGradGradGradGradGrad

                          Input orientation:                          
 ---------------------------------------------------------------------
 Center     Atomic      Atomic             Coordinates (Angstroms)
 Number     Number       Type             X           Y           Z
 ---------------------------------------------------------------------
      1          6           0       -0.090555   -1.120749    0.000993
      2         16           0       -0.164462    0.702717    0.001411
      3          1           0        1.151714    0.915636   -0.010932
      4          1           0        0.941975   -1.450704   -0.008014
      5          1           0       -0.576364   -1.503685    0.892126
      6          1           0       -0.591924   -1.503984   -0.881351
 ---------------------------------------------------------------------
                    Distance matrix (angstroms):
                    1          2          3          4          5
     1  C    0.000000
     2  S    1.824963   0.000000
     3  H    2.385423   1.333344   0.000000
     4  H    1.084007   2.421056   2.375619   0.000000
     5  H    1.084789   2.414797   3.107231   1.765903   0.000000
     6  H    1.084791   2.414854   3.106842   1.765900   1.773545
                    6
     6  H    0.000000
 Stoichiometry    CH4S
 Framework group  C1[X(CH4S)]
 Deg. of freedom    12
 Full point group                 C1      NOp   1
 Largest Abelian subgroup         C1      NOp   1
 Largest concise Abelian subgroup C1      NOp   1
                         Standard orientation:                         
 ---------------------------------------------------------------------
 Center     Atomic      Atomic             Coordinates (Angstroms)
 Number     Number       Type             X           Y           Z
 ---------------------------------------------------------------------
      1          6           0       -1.158231    0.012972    0.000002
      2         16           0        0.663952   -0.087716    0.000002
      3          1           0        0.896185    1.225249   -0.000010
      4          1           0       -1.472981    1.050278   -0.000609
      5          1           0       -1.548518   -0.475478   -0.886486
      6          1           0       -1.548535   -0.474432    0.887059
 ---------------------------------------------------------------------
 Rotational constants (GHZ):    104.1512474     12.8408809     12.3145086
 Standard basis: CC-pVTZ (5D, 7F)
 There are   134 symmetry adapted cartesian basis functions of A   symmetry.
 There are   120 symmetry adapted basis functions of A   symmetry.
   120 basis functions,   214 primitive gaussians,   134 cartesian basis functions
    13 alpha electrons       13 beta electrons
       nuclear repulsion energy        56.2712614926 Hartrees.
 NAtoms=    6 NActive=    6 NUniq=    6 SFac= 1.00D+00 NAtFMM=   60 NAOKFM=F Big=F
 Integral buffers will be    131072 words long.
 Raffenetti 1 integral format.
 Two-electron integral symmetry is turned on.
 One-electron integrals computed using PRISM.
 NBasis=   120 RedAO= T EigKep=  1.70D-03  NBF=   120
 NBsUse=   120 1.00D-06 EigRej= -1.00D+00 NBFU=   120
 Initial guess from the checkpoint file:  "/mnt/lustre/scratch/slurm/1397324/uviqopsc.fwYAOtsjwH/Gau-1768.chk"
 B after Tr=    -0.000000    0.000000   -0.000000
         Rot=    1.000000   -0.000007   -0.000001    0.000190 Ang=  -0.02 deg.
 Keep R1 ints in memory in canonical form, NReq=28467398.
 Requested convergence on RMS density matrix=1.00D-08 within 128 cycles.
 Requested convergence on MAX density matrix=1.00D-06.
 Requested convergence on             energy=1.00D-06.
 No special actions if energy rises.
 SCF Done:  E(RHF) =  -437.754503110     A.U. after    8 cycles
            NFock=  8  Conv=0.31D-08     -V/T= 2.0001
 ExpMin= 1.03D-01 ExpMax= 3.74D+05 ExpMxC= 1.18D+03 IAcc=3 IRadAn=         5 AccDes= 0.00D+00
 HarFok:  IExCor=  205 AccDes= 0.00D+00 IRadAn=         5 IDoV=-2 UseB2=F ITyADJ=14
 ICtDFT= 12500011 ScaDFX=  1.000000  1.000000  1.000000  1.000000
 Range of M.O.s used for correlation:     7   120
 NBasis=   120 NAE=    13 NBE=    13 NFC=     6 NFV=     0
 NROrb=    114 NOA=     7 NOB=     7 NVA=   107 NVB=   107

 **** Warning!!: The largest alpha MO coefficient is  0.11767570D+02

 Fully direct method using O(ONN) memory.
 JobTyp=1 Pass  1:  I=   7 to  13 NPSUse= 24 ParTrn=T ParDer=T DoDerP=T.
 Spin components of T(2) and E(2):
     alpha-alpha T2 =       0.1529179109D-01 E2=     -0.3884578971D-01
     alpha-beta  T2 =       0.1000334175D+00 E2=     -0.2856600003D+00
     beta-beta   T2 =       0.1529179109D-01 E2=     -0.3884578971D-01
 ANorm=    0.1063304754D+01
 E2 =    -0.3633515798D+00 EUMP2 =    -0.43811785468943D+03
          IDoAtm=111111
          Differentiating once with respect to electric field.
                with respect to dipole field.
          Differentiating once with respect to nuclear coordinates.
 Keep R1 ints in memory in canonical form, NReq=28429665.
          There are     1 degrees of freedom in the 1st order CPHF.  IDoFFX=0 NUNeed=     1.
 LinEq1:  Iter=  0 NonCon=     1 RMS=2.88D-03 Max=2.28D-02 NDo=     1
 AX will form     1 AO Fock derivatives at one time.
 LinEq1:  Iter=  1 NonCon=     1 RMS=9.51D-04 Max=1.11D-02 NDo=     1
 LinEq1:  Iter=  2 NonCon=     1 RMS=2.33D-04 Max=2.12D-03 NDo=     1
 LinEq1:  Iter=  3 NonCon=     1 RMS=6.24D-05 Max=9.35D-04 NDo=     1
 LinEq1:  Iter=  4 NonCon=     1 RMS=1.16D-05 Max=1.75D-04 NDo=     1
 LinEq1:  Iter=  5 NonCon=     1 RMS=2.79D-06 Max=2.83D-05 NDo=     1
 LinEq1:  Iter=  6 NonCon=     1 RMS=6.84D-07 Max=6.70D-06 NDo=     1
 LinEq1:  Iter=  7 NonCon=     1 RMS=1.03D-07 Max=1.09D-06 NDo=     1
 LinEq1:  Iter=  8 NonCon=     1 RMS=2.77D-08 Max=3.10D-07 NDo=     1
 LinEq1:  Iter=  9 NonCon=     1 RMS=5.22D-09 Max=8.62D-08 NDo=     1
 LinEq1:  Iter= 10 NonCon=     1 RMS=8.78D-10 Max=1.46D-08 NDo=     1
 LinEq1:  Iter= 11 NonCon=     1 RMS=1.60D-10 Max=1.95D-09 NDo=     1
 LinEq1:  Iter= 12 NonCon=     0 RMS=2.29D-11 Max=2.22D-10 NDo=     1
 Linear equations converged to 1.000D-10 1.000D-09 after    12 iterations.
 End of Minotr F.D. properties file   721 does not exist.
 End of Minotr F.D. properties file   722 does not exist.
 End of Minotr F.D. properties file   788 does not exist.
 Calling FoFJK, ICntrl=  10002127 FMM=F ISym2X=0 I1Cent= 0 IOpClX= 0 NMat=1 NMatS=1 NMatT=0.
 ***** Axes restored to original set *****
 -------------------------------------------------------------------
 Center     Atomic                   Forces (Hartrees/Bohr)
 Number     Number              X              Y              Z
 -------------------------------------------------------------------
      1        6          -0.000129081    0.000769647   -0.000003455
      2       16           0.000185185   -0.000538069    0.000001240
      3        1          -0.000033520    0.000056762   -0.000001724
      4        1           0.000151259    0.000021970    0.000001814
      5        1          -0.000086039   -0.000155252    0.000086150
      6        1          -0.000087803   -0.000155057   -0.000084026
 -------------------------------------------------------------------
 Cartesian Forces:  Max     0.000769647 RMS     0.000240173

 GradGradGradGradGradGradGradGradGradGradGradGradGradGradGradGradGradGrad
 Berny optimization.
 Using GEDIIS/GDIIS optimizer.
 FormGI is forming the generalized inverse of G from B-inverse, IUseBI=4.
 Internal  Forces:  Max     0.000487057 RMS     0.000165936
 Search for a local minimum.
 Step number   4 out of a maximum of   25
 All quantities printed in internal units (Hartrees-Bohrs-Radians)
 Mixed Optimization -- En-DIIS/RFO-DIIS
 Swapping is turned off.
 Update second derivatives using D2CorX and points    1    2    3    4
 DE= -2.21D-05 DEPred=-2.23D-05 R= 9.94D-01
 TightC=F SS=  1.41D+00  RLast= 1.44D-02 DXNew= 9.2123D-01 4.3332D-02
 Trust test= 9.94D-01 RLast= 1.44D-02 DXMaxT set to 5.48D-01
 The second derivative matrix:
                          R1        R2        R3        R4        R5
           R1           0.25297
           R2           0.00571   0.31788
           R3           0.00563  -0.00388   0.32027
           R4           0.00564  -0.00387  -0.00298   0.32035
           R5           0.00576  -0.00129  -0.00156  -0.00156   0.26127
           A1           0.00276  -0.00060  -0.00156  -0.00156   0.00138
           A2           0.01334  -0.00092  -0.00068  -0.00068  -0.00013
           A3           0.01329  -0.00093  -0.00068  -0.00068  -0.00014
           A4          -0.00890   0.00025   0.00066   0.00066  -0.00072
           A5          -0.00892   0.00022   0.00063   0.00063  -0.00073
           A6          -0.01128   0.00213   0.00183   0.00183   0.00037
           A7           0.01547   0.00204   0.00640   0.00638  -0.00222
           D1           0.00003   0.00001   0.00001   0.00001   0.00001
           D2          -0.00002   0.00043  -0.00010  -0.00010   0.00054
           D3           0.00000  -0.00044   0.00009   0.00009  -0.00054
                          A1        A2        A3        A4        A5
           A1           0.16334
           A2           0.00050   0.15568
           A3           0.00048  -0.00429   0.15574
           A4          -0.00189   0.00277   0.00276   0.15890
           A5          -0.00187   0.00273   0.00271  -0.00108   0.15894
           A6          -0.00065   0.00296   0.00295  -0.00161  -0.00157
           A7          -0.01378   0.01907   0.01904  -0.00700  -0.00701
           D1           0.00000   0.00001   0.00001  -0.00001  -0.00001
           D2           0.00114  -0.00159  -0.00158   0.00055   0.00055
           D3          -0.00114   0.00159   0.00158  -0.00055  -0.00055
                          A6        A7        D1        D2        D3
           A6           0.15763
           A7          -0.01025   0.19131
           D1          -0.00001   0.00001   0.00230
           D2           0.00089   0.00077  -0.00000   0.00238
           D3          -0.00089  -0.00081   0.00000  -0.00008   0.00238
 ITU=  1  1  1  0
     Eigenvalues ---    0.05659   0.09889   0.12898   0.16000   0.16120
     Eigenvalues ---    0.19966   0.25719   0.26749   0.31466   0.32328
     Eigenvalues ---    0.323411000.000001000.000001000.000001000.00000
 En-DIIS/RFO-DIIS IScMMF=        0 using points:     4    3
 RFO step:  Lambda=-8.91513684D-07.
 DidBck=F Rises=F RFO-DIIS coefs:    0.99713    0.00287
 Iteration  1 RMS(Cart)=  0.00078434 RMS(Int)=  0.00000043
 Iteration  2 RMS(Cart)=  0.00000039 RMS(Int)=  0.00000024
 Iteration  1 RMS(Cart)=  0.00000004 RMS(Int)=  0.00000004
 Variable       Old X    -DE/DX   Delta X   Delta X   Delta X     New X
                                 (Linear)    (Quad)   (Total)
    R1        3.44868  -0.00049  -0.00002  -0.00214  -0.00216   3.44652
    R2        2.04848   0.00014  -0.00001   0.00050   0.00049   2.04897
    R3        2.04995   0.00016  -0.00001   0.00056   0.00056   2.05051
    R4        2.04996   0.00016  -0.00001   0.00056   0.00055   2.05051
    R5        2.51966  -0.00002  -0.00000  -0.00002  -0.00002   2.51963
    A1        1.92060  -0.00015  -0.00000  -0.00084  -0.00085   1.91975
    A2        1.91176   0.00014  -0.00002   0.00113   0.00111   1.91287
    A3        1.91183   0.00014  -0.00002   0.00113   0.00112   1.91294
    A4        1.90281  -0.00001   0.00001  -0.00027  -0.00026   1.90255
    A5        1.90280  -0.00001   0.00001  -0.00026  -0.00025   1.90255
    A6        1.91398  -0.00012   0.00002  -0.00092  -0.00090   1.91308
    A7        1.69066   0.00015  -0.00000   0.00059   0.00059   1.69125
    D1        0.00059   0.00000  -0.00000   0.00000   0.00000   0.00059
    D2        2.09220  -0.00001   0.00000  -0.00014  -0.00014   2.09206
    D3       -2.09106   0.00002  -0.00000   0.00013   0.00013  -2.09093
         Item               Value     Threshold  Converged?
 Maximum Force            0.000487     0.000450     NO 
 RMS     Force            0.000172     0.000300     YES
 Maximum Displacement     0.001970     0.001800     NO 
 RMS     Displacement     0.000784     0.001200     YES
 Predicted change in Energy=-9.800105D-07
 GradGradGradGradGradGradGradGradGradGradGradGradGradGradGradGradGradGrad

                          Input orientation:                          
 ---------------------------------------------------------------------
 Center     Atomic      Atomic             Coordinates (Angstroms)
 Number     Number       Type             X           Y           Z
 ---------------------------------------------------------------------
      1          6           0       -0.090870   -1.120151    0.000994
      2         16           0       -0.164113    0.702196    0.001406
      3          1           0        1.151997    0.915447   -0.010933
      4          1           0        0.942076   -1.449662   -0.008014
      5          1           0       -0.576571   -1.504150    0.892087
      6          1           0       -0.592134   -1.504449   -0.881309
 ---------------------------------------------------------------------
                    Distance matrix (angstroms):
                    1          2          3          4          5
     1  C    0.000000
     2  S    1.823818   0.000000
     3  H    2.385062   1.333332   0.000000
     4  H    1.084268   2.419552   2.374408   0.000000
     5  H    1.085084   2.414828   3.107706   1.766193   0.000000
     6  H    1.085084   2.414885   3.107321   1.766195   1.773464
                    6
     6  H    0.000000
 Stoichiometry    CH4S
 Framework group  C1[X(CH4S)]
 Deg. of freedom    12
 Full point group                 C1      NOp   1
 Largest Abelian subgroup         C1      NOp   1
 Largest concise Abelian subgroup C1      NOp   1
                         Standard orientation:                         
 ---------------------------------------------------------------------
 Center     Atomic      Atomic             Coordinates (Angstroms)
 Number     Number       Type             X           Y           Z
 ---------------------------------------------------------------------
      1          6           0       -1.157449    0.013027    0.000002
      2         16           0        0.663580   -0.087802    0.000002
      3          1           0        0.896736    1.224986   -0.000006
      4          1           0       -1.471280    1.050883   -0.000605
      5          1           0       -1.549016   -0.475117   -0.886450
      6          1           0       -1.549034   -0.474086    0.887014
 ---------------------------------------------------------------------
 Rotational constants (GHZ):    104.1470938     12.8534077     12.3258832
 Standard basis: CC-pVTZ (5D, 7F)
 There are   134 symmetry adapted cartesian basis functions of A   symmetry.
 There are   120 symmetry adapted basis functions of A   symmetry.
   120 basis functions,   214 primitive gaussians,   134 cartesian basis functions
    13 alpha electrons       13 beta electrons
       nuclear repulsion energy        56.2887630637 Hartrees.
 NAtoms=    6 NActive=    6 NUniq=    6 SFac= 1.00D+00 NAtFMM=   60 NAOKFM=F Big=F
 Integral buffers will be    131072 words long.
 Raffenetti 1 integral format.
 Two-electron integral symmetry is turned on.
 One-electron integrals computed using PRISM.
 NBasis=   120 RedAO= T EigKep=  1.70D-03  NBF=   120
 NBsUse=   120 1.00D-06 EigRej= -1.00D+00 NBFU=   120
 Initial guess from the checkpoint file:  "/mnt/lustre/scratch/slurm/1397324/uviqopsc.fwYAOtsjwH/Gau-1768.chk"
 B after Tr=    -0.000000   -0.000000   -0.000000
         Rot=    1.000000   -0.000003    0.000000    0.000135 Ang=  -0.02 deg.
 Keep R1 ints in memory in canonical form, NReq=28467398.
 Requested convergence on RMS density matrix=1.00D-08 within 128 cycles.
 Requested convergence on MAX density matrix=1.00D-06.
 Requested convergence on             energy=1.00D-06.
 No special actions if energy rises.
 SCF Done:  E(RHF) =  -437.754500473     A.U. after    7 cycles
            NFock=  7  Conv=0.35D-08     -V/T= 2.0001
 ExpMin= 1.03D-01 ExpMax= 3.74D+05 ExpMxC= 1.18D+03 IAcc=3 IRadAn=         5 AccDes= 0.00D+00
 HarFok:  IExCor=  205 AccDes= 0.00D+00 IRadAn=         5 IDoV=-2 UseB2=F ITyADJ=14
 ICtDFT= 12500011 ScaDFX=  1.000000  1.000000  1.000000  1.000000
 Range of M.O.s used for correlation:     7   120
 NBasis=   120 NAE=    13 NBE=    13 NFC=     6 NFV=     0
 NROrb=    114 NOA=     7 NOB=     7 NVA=   107 NVB=   107

 **** Warning!!: The largest alpha MO coefficient is  0.11761020D+02

 Fully direct method using O(ONN) memory.
 JobTyp=1 Pass  1:  I=   7 to  13 NPSUse= 24 ParTrn=T ParDer=T DoDerP=T.
 Spin components of T(2) and E(2):
     alpha-alpha T2 =       0.1529082854D-01 E2=     -0.3884831665D-01
     alpha-beta  T2 =       0.1000228876D+00 E2=     -0.2856587233D+00
     beta-beta   T2 =       0.1529082854D-01 E2=     -0.3884831665D-01
 ANorm=    0.1063298897D+01
 E2 =    -0.3633553566D+00 EUMP2 =    -0.43811785582916D+03
          IDoAtm=111111
          Differentiating once with respect to electric field.
                with respect to dipole field.
          Differentiating once with respect to nuclear coordinates.
 Keep R1 ints in memory in canonical form, NReq=28429665.
          There are     1 degrees of freedom in the 1st order CPHF.  IDoFFX=0 NUNeed=     1.
 LinEq1:  Iter=  0 NonCon=     1 RMS=2.88D-03 Max=2.27D-02 NDo=     1
 AX will form     1 AO Fock derivatives at one time.
 LinEq1:  Iter=  1 NonCon=     1 RMS=9.51D-04 Max=1.11D-02 NDo=     1
 LinEq1:  Iter=  2 NonCon=     1 RMS=2.33D-04 Max=2.12D-03 NDo=     1
 LinEq1:  Iter=  3 NonCon=     1 RMS=6.23D-05 Max=9.34D-04 NDo=     1
 LinEq1:  Iter=  4 NonCon=     1 RMS=1.16D-05 Max=1.74D-04 NDo=     1
 LinEq1:  Iter=  5 NonCon=     1 RMS=2.79D-06 Max=2.83D-05 NDo=     1
 LinEq1:  Iter=  6 NonCon=     1 RMS=6.83D-07 Max=6.67D-06 NDo=     1
 LinEq1:  Iter=  7 NonCon=     1 RMS=1.03D-07 Max=1.09D-06 NDo=     1
 LinEq1:  Iter=  8 NonCon=     1 RMS=2.77D-08 Max=3.13D-07 NDo=     1
 LinEq1:  Iter=  9 NonCon=     1 RMS=5.23D-09 Max=8.63D-08 NDo=     1
 LinEq1:  Iter= 10 NonCon=     1 RMS=8.82D-10 Max=1.47D-08 NDo=     1
 LinEq1:  Iter= 11 NonCon=     1 RMS=1.60D-10 Max=1.95D-09 NDo=     1
 LinEq1:  Iter= 12 NonCon=     0 RMS=2.29D-11 Max=2.22D-10 NDo=     1
 Linear equations converged to 1.000D-10 1.000D-09 after    12 iterations.
 End of Minotr F.D. properties file   721 does not exist.
 End of Minotr F.D. properties file   722 does not exist.
 End of Minotr F.D. properties file   788 does not exist.
 Calling FoFJK, ICntrl=  10002127 FMM=F ISym2X=0 I1Cent= 0 IOpClX= 0 NMat=1 NMatS=1 NMatT=0.
 ***** Axes restored to original set *****
 -------------------------------------------------------------------
 Center     Atomic                   Forces (Hartrees/Bohr)
 Number     Number              X              Y              Z
 -------------------------------------------------------------------
      1        6          -0.000013450    0.000167648   -0.000003434
      2       16           0.000052424   -0.000116219    0.000002321
      3        1          -0.000028865    0.000019089   -0.000001773
      4        1          -0.000033503   -0.000018474    0.000002983
      5        1           0.000011480   -0.000026017   -0.000023905
      6        1           0.000011914   -0.000026026    0.000023807
 -------------------------------------------------------------------
 Cartesian Forces:  Max     0.000167648 RMS     0.000052704

 GradGradGradGradGradGradGradGradGradGradGradGradGradGradGradGradGradGrad
 Berny optimization.
 Using GEDIIS/GDIIS optimizer.
 FormGI is forming the generalized inverse of G from B-inverse, IUseBI=4.
 Internal  Forces:  Max     0.000097998 RMS     0.000037674
 Search for a local minimum.
 Step number   5 out of a maximum of   25
 All quantities printed in internal units (Hartrees-Bohrs-Radians)
 Mixed Optimization -- En-DIIS/RFO-DIIS
 Swapping is turned off.
 Update second derivatives using D2CorX and points    1    2    3    4    5
 DE= -1.14D-06 DEPred=-9.80D-07 R= 1.16D+00
 TightC=F SS=  1.41D+00  RLast= 3.17D-03 DXNew= 9.2123D-01 9.5173D-03
 Trust test= 1.16D+00 RLast= 3.17D-03 DXMaxT set to 5.48D-01
 The second derivative matrix:
                          R1        R2        R3        R4        R5
           R1           0.22623
           R2           0.00376   0.32593
           R3           0.00616   0.00383   0.32742
           R4           0.00614   0.00383   0.00418   0.32749
           R5           0.00079   0.00124   0.00125   0.00125   0.26137
           A1           0.00435  -0.00832  -0.00878  -0.00877  -0.00116
           A2           0.02376   0.00091  -0.00001   0.00000   0.00230
           A3           0.02377   0.00087  -0.00004  -0.00003   0.00229
           A4          -0.01623   0.00292   0.00388   0.00387  -0.00104
           A5          -0.01613   0.00288   0.00382   0.00381  -0.00103
           A6          -0.01947   0.00091   0.00137   0.00136  -0.00137
           A7           0.02886   0.00043   0.00354   0.00354  -0.00049
           D1          -0.00003   0.00005   0.00005   0.00005   0.00001
           D2           0.00179  -0.00062  -0.00137  -0.00137   0.00058
           D3          -0.00175   0.00058   0.00133   0.00133  -0.00058
                          A1        A2        A3        A4        A5
           A1           0.16950
           A2          -0.00056   0.15158
           A3          -0.00056  -0.00842   0.15158
           A4          -0.00463   0.00602   0.00601   0.15825
           A5          -0.00461   0.00593   0.00592  -0.00171   0.15833
           A6           0.00073   0.00589   0.00591  -0.00412  -0.00405
           A7          -0.01237   0.01264   0.01258  -0.00382  -0.00389
           D1          -0.00003   0.00004   0.00004  -0.00001  -0.00001
           D2           0.00270  -0.00262  -0.00260   0.00045   0.00044
           D3          -0.00267   0.00259   0.00258  -0.00045  -0.00044
                          A6        A7        D1        D2        D3
           A6           0.15525
           A7          -0.00504   0.18389
           D1          -0.00003   0.00003   0.00230
           D2           0.00157   0.00032  -0.00000   0.00255
           D3          -0.00155  -0.00037   0.00000  -0.00025   0.00254
 ITU=  1  1  1  1  0
     Eigenvalues ---    0.05659   0.09887   0.11404   0.15764   0.16000
     Eigenvalues ---    0.18403   0.25763   0.26203   0.32273   0.32328
     Eigenvalues ---    0.337881000.000001000.000001000.000001000.00000
 En-DIIS/RFO-DIIS IScMMF=        0 using points:     5    4    3
 RFO step:  Lambda=-5.53066340D-08.
 DidBck=F Rises=F RFO-DIIS coefs:    1.19636   -0.19459   -0.00177
 Iteration  1 RMS(Cart)=  0.00022589 RMS(Int)=  0.00000010
 Iteration  2 RMS(Cart)=  0.00000006 RMS(Int)=  0.00000008
 Iteration  1 RMS(Cart)=  0.00000001 RMS(Int)=  0.00000001
 Variable       Old X    -DE/DX   Delta X   Delta X   Delta X     New X
                                 (Linear)    (Quad)   (Total)
    R1        3.44652  -0.00010  -0.00041  -0.00021  -0.00062   3.44589
    R2        2.04897  -0.00003   0.00010  -0.00017  -0.00006   2.04891
    R3        2.05051  -0.00002   0.00011  -0.00014  -0.00003   2.05049
    R4        2.05051  -0.00002   0.00011  -0.00014  -0.00003   2.05049
    R5        2.51963  -0.00003  -0.00000  -0.00010  -0.00010   2.51953
    A1        1.91975   0.00003  -0.00016   0.00035   0.00019   1.91994
    A2        1.91287   0.00003   0.00023   0.00012   0.00035   1.91322
    A3        1.91294   0.00004   0.00023   0.00012   0.00035   1.91330
    A4        1.90255  -0.00003  -0.00006  -0.00021  -0.00027   1.90228
    A5        1.90255  -0.00003  -0.00006  -0.00021  -0.00027   1.90229
    A6        1.91308  -0.00004  -0.00019  -0.00017  -0.00036   1.91272
    A7        1.69125   0.00006   0.00012   0.00025   0.00036   1.69162
    D1        0.00059   0.00000   0.00000   0.00000   0.00000   0.00059
    D2        2.09206   0.00000  -0.00003   0.00003   0.00000   2.09206
    D3       -2.09093   0.00000   0.00003  -0.00003  -0.00000  -2.09093
         Item               Value     Threshold  Converged?
 Maximum Force            0.000098     0.000450     YES
 RMS     Force            0.000039     0.000300     YES
 Maximum Displacement     0.000435     0.001800     YES
 RMS     Displacement     0.000226     0.001200     YES
 Predicted change in Energy=-7.358976D-08
 Optimization completed.
    -- Stationary point found.
                           ----------------------------
                           !   Optimized Parameters   !
                           ! (Angstroms and Degrees)  !
 --------------------------                            --------------------------
 ! Name  Definition              Value          Derivative Info.                !
 --------------------------------------------------------------------------------
 ! R1    R(1,2)                  1.8238         -DE/DX =   -0.0001              !
 ! R2    R(1,4)                  1.0843         -DE/DX =    0.0                 !
 ! R3    R(1,5)                  1.0851         -DE/DX =    0.0                 !
 ! R4    R(1,6)                  1.0851         -DE/DX =    0.0                 !
 ! R5    R(2,3)                  1.3333         -DE/DX =    0.0                 !
 ! A1    A(2,1,4)              109.9937         -DE/DX =    0.0                 !
 ! A2    A(2,1,5)              109.5994         -DE/DX =    0.0                 !
 ! A3    A(2,1,6)              109.6036         -DE/DX =    0.0                 !
 ! A4    A(4,1,5)              109.0083         -DE/DX =    0.0                 !
 ! A5    A(4,1,6)              109.0084         -DE/DX =    0.0                 !
 ! A6    A(5,1,6)              109.6112         -DE/DX =    0.0                 !
 ! A7    A(1,2,3)               96.9017         -DE/DX =    0.0001              !
 ! D1    D(4,1,2,3)              0.0338         -DE/DX =    0.0                 !
 ! D2    D(5,1,2,3)            119.8662         -DE/DX =    0.0                 !
 ! D3    D(6,1,2,3)           -119.8013         -DE/DX =    0.0                 !
 --------------------------------------------------------------------------------
 GradGradGradGradGradGradGradGradGradGradGradGradGradGradGradGradGradGrad

                          Input orientation:                          
 ---------------------------------------------------------------------
 Center     Atomic      Atomic             Coordinates (Angstroms)
 Number     Number       Type             X           Y           Z
 ---------------------------------------------------------------------
      1          6           0       -0.090870   -1.120151    0.000994
      2         16           0       -0.164113    0.702196    0.001406
      3          1           0        1.151997    0.915447   -0.010933
      4          1           0        0.942076   -1.449662   -0.008014
      5          1           0       -0.576571   -1.504150    0.892087
      6          1           0       -0.592134   -1.504449   -0.881309
 ---------------------------------------------------------------------
                    Distance matrix (angstroms):
                    1          2          3          4          5
     1  C    0.000000
     2  S    1.823818   0.000000
     3  H    2.385062   1.333332   0.000000
     4  H    1.084268   2.419552   2.374408   0.000000
     5  H    1.085084   2.414828   3.107706   1.766193   0.000000
     6  H    1.085084   2.414885   3.107321   1.766195   1.773464
                    6
     6  H    0.000000
 Stoichiometry    CH4S
 Framework group  C1[X(CH4S)]
 Deg. of freedom    12
 Full point group                 C1      NOp   1
 Largest Abelian subgroup         C1      NOp   1
 Largest concise Abelian subgroup C1      NOp   1
                         Standard orientation:                         
 ---------------------------------------------------------------------
 Center     Atomic      Atomic             Coordinates (Angstroms)
 Number     Number       Type             X           Y           Z
 ---------------------------------------------------------------------
      1          6           0       -1.157449    0.013027    0.000002
      2         16           0        0.663580   -0.087802    0.000002
      3          1           0        0.896736    1.224986   -0.000006
      4          1           0       -1.471280    1.050883   -0.000605
      5          1           0       -1.549016   -0.475117   -0.886450
      6          1           0       -1.549034   -0.474086    0.887014
 ---------------------------------------------------------------------
 Rotational constants (GHZ):    104.1470938     12.8534077     12.3258832

 **********************************************************************

            Population analysis using the SCF density.

 **********************************************************************

 Orbital symmetries:
       Occupied  (A) (A) (A) (A) (A) (A) (A) (A) (A) (A) (A) (A)
                 (A)
       Virtual   (A) (A) (A) (A) (A) (A) (A) (A) (A) (A) (A) (A)
                 (A) (A) (A) (A) (A) (A) (A) (A) (A) (A) (A) (A)
                 (A) (A) (A) (A) (A) (A) (A) (A) (A) (A) (A) (A)
                 (A) (A) (A) (A) (A) (A) (A) (A) (A) (A) (A) (A)
                 (A) (A) (A) (A) (A) (A) (A) (A) (A) (A) (A) (A)
                 (A) (A) (A) (A) (A) (A) (A) (A) (A) (A) (A) (A)
                 (A) (A) (A) (A) (A) (A) (A) (A) (A) (A) (A) (A)
                 (A) (A) (A) (A) (A) (A) (A) (A) (A) (A) (A) (A)
                 (A) (A) (A) (A) (A) (A) (A) (A) (A) (A) (A)
 The electronic state is 1-A.
 Alpha  occ. eigenvalues --  -91.94862 -11.25618  -8.95091  -6.63228  -6.63127
 Alpha  occ. eigenvalues --   -6.63026  -1.03555  -0.86742  -0.60807  -0.59073
 Alpha  occ. eigenvalues --   -0.53077  -0.45500  -0.35569
 Alpha virt. eigenvalues --    0.12354   0.15762   0.20130   0.20978   0.23205
 Alpha virt. eigenvalues --    0.34058   0.36578   0.38016   0.40651   0.44977
 Alpha virt. eigenvalues --    0.45754   0.49408   0.50202   0.54898   0.57859
 Alpha virt. eigenvalues --    0.62942   0.63377   0.64532   0.66049   0.77787
 Alpha virt. eigenvalues --    0.87792   0.93491   0.96745   1.00880   1.03248
 Alpha virt. eigenvalues --    1.06368   1.07954   1.17580   1.19621   1.22753
 Alpha virt. eigenvalues --    1.26745   1.30644   1.35193   1.42535   1.47319
 Alpha virt. eigenvalues --    1.50361   1.52038   1.52097   1.78483   1.84680
 Alpha virt. eigenvalues --    1.89312   1.92529   1.93925   1.96601   1.99837
 Alpha virt. eigenvalues --    2.09648   2.11278   2.17062   2.22961   2.23540
 Alpha virt. eigenvalues --    2.26494   2.36577   2.55085   2.55579   2.57573
 Alpha virt. eigenvalues --    2.60078   2.79212   2.85059   2.99876   3.05360
 Alpha virt. eigenvalues --    3.06393   3.11217   3.23310   3.24440   3.36058
 Alpha virt. eigenvalues --    3.36883   3.37563   3.38631   3.59860   3.61106
 Alpha virt. eigenvalues --    3.62035   3.71084   3.72098   3.72109   3.80433
 Alpha virt. eigenvalues --    3.81786   3.87545   3.88462   3.98366   4.04904
 Alpha virt. eigenvalues --    4.08048   4.13494   4.16533   4.25703   4.27872
 Alpha virt. eigenvalues --    4.33292   4.36592   4.37963   4.41510   4.42677
 Alpha virt. eigenvalues --    4.47132   4.56255   4.76414   4.93727   5.06301
 Alpha virt. eigenvalues --    5.07103   5.30867   5.38219   5.39544   5.47685
 Alpha virt. eigenvalues --    5.57058   5.58289   5.59893   5.98784   6.19178
 Alpha virt. eigenvalues --    6.19592  13.22121
          Condensed to atoms (all electrons):
               1          2          3          4          5          6
     1  C    4.748680   0.267364  -0.027893   0.416350   0.416079   0.416082
     2  S    0.267364  15.648012   0.373393  -0.025693  -0.040429  -0.040441
     3  H   -0.027893   0.373393   0.565378  -0.008003   0.001716   0.001710
     4  H    0.416350  -0.025693  -0.008003   0.566849  -0.027025  -0.027031
     5  H    0.416079  -0.040429   0.001716  -0.027025   0.577354  -0.038002
     6  H    0.416082  -0.040441   0.001710  -0.027031  -0.038002   0.577375
 Mulliken charges:
               1
     1  C   -0.236662
     2  S   -0.182206
     3  H    0.093699
     4  H    0.104554
     5  H    0.110307
     6  H    0.110308
 Sum of Mulliken charges =  -0.00000
 Mulliken charges with hydrogens summed into heavy atoms:
               1
     1  C    0.088507
     2  S   -0.088507
 Electronic spatial extent (au):  <R**2>=            144.9689
 Charge=             -0.0000 electrons
 Dipole moment (field-independent basis, Debye):
    X=             -1.4402    Y=              0.9251    Z=             -0.0000  Tot=              1.7117
 Quadrupole moment (field-independent basis, Debye-Ang):
   XX=            -20.3807   YY=            -19.3761   ZZ=            -22.6452
   XY=              1.2805   XZ=              0.0001   YZ=              0.0000
 Traceless Quadrupole moment (field-independent basis, Debye-Ang):
   XX=              0.4200   YY=              1.4245   ZZ=             -1.8445
   XY=              1.2805   XZ=              0.0001   YZ=              0.0000
 Octapole moment (field-independent basis, Debye-Ang**2):
  XXX=              0.2781  YYY=              2.4513  ZZZ=              0.0011  XYY=             -0.0665
  XXY=              1.6347  XXZ=             -0.0002  XZZ=             -2.6321  YZZ=             -0.3342
  YYZ=             -0.0013  XYZ=             -0.0001
 Hexadecapole moment (field-independent basis, Debye-Ang**3):
 XXXX=           -134.9088 YYYY=            -34.3566 ZZZZ=            -35.8226 XXXY=              2.3696
 XXXZ=              0.0002 YYYX=              1.1554 YYYZ=             -0.0002 ZZZX=             -0.0018
 ZZZY=              0.0002 XXYY=            -27.5513 XXZZ=            -28.9326 YYZZ=            -12.3783
 XXYZ=              0.0002 YYXZ=              0.0020 ZZXY=              1.5782
 N-N= 5.628876306374D+01 E-N=-1.152809356418D+03  KE= 4.377083528908D+02
 1\1\GINC-C7021\FOpt\RMP2-FC\CC-pVTZ\C1H4S1\ROOT\15-Jul-2018\0\\# opt=m
 odredundant mp2/cc-pVTZ\\methanethiol-ecl\\0,1\C,-0.0908702322,-1.1201
 511901,0.0009937982\S,-0.1641131554,0.7021956142,0.0014060354\H,1.1519
 966908,0.915446716,-0.0109328611\H,0.9420761294,-1.4496618117,-0.00801
 4341\H,-0.5765707182,-1.5041496406,0.8920868222\H,-0.5921340945,-1.504
 4489277,-0.8813086983\\Version=ES64L-G09RevE.01\State=1-A\HF=-437.7545
 005\MP2=-438.1178558\RMSD=3.472e-09\RMSF=5.270e-05\Dipole=0.3421559,-0
 .5242975,-0.0031037\PG=C01 [X(C1H4S1)]\\@


 THE REAL VOYAGE OF DISCOVERY CONSISTS NOT IN SEEKING NEW LANDSCAPES 
 BUT IN HAVING NEW EYES.
                                                    -- MARCEL PROUST
 Job cpu time:       0 days  0 hours 23 minutes 33.0 seconds.
 File lengths (MBytes):  RWF=     10 Int=      0 D2E=      0 Chk=      2 Scr=      1
 Normal termination of Gaussian 09 at Sun Jul 15 21:18:41 2018.
