 Entering Gaussian System, Link 0=g09
 Input=22.gjf
 Output=22.out
 Initial command:
 /usr/local/g09/l1.exe /home/scratch/stylianakis/Gau-22095.inp -scrdir=/home/scratch/stylianakis/
 Entering Link 1 = /usr/local/g09/l1.exe PID=     22096.
  
 Copyright (c) 1988,1990,1992,1993,1995,1998,2003,2009, Gaussian, Inc.
                  All Rights Reserved.
  
 This is part of the Gaussian(R) 09 program.  It is based on
 the Gaussian(R) 03 system (copyright 2003, Gaussian, Inc.),
 the Gaussian(R) 98 system (copyright 1998, Gaussian, Inc.),
 the Gaussian(R) 94 system (copyright 1995, Gaussian, Inc.),
 the Gaussian 92(TM) system (copyright 1992, Gaussian, Inc.),
 the Gaussian 90(TM) system (copyright 1990, Gaussian, Inc.),
 the Gaussian 88(TM) system (copyright 1988, Gaussian, Inc.),
 the Gaussian 86(TM) system (copyright 1986, Carnegie Mellon
 University), and the Gaussian 82(TM) system (copyright 1983,
 Carnegie Mellon University). Gaussian is a federally registered
 trademark of Gaussian, Inc.
  
 This software contains proprietary and confidential information,
 including trade secrets, belonging to Gaussian, Inc.
  
 This software is provided under written license and may be
 used, copied, transmitted, or stored only in accord with that
 written license.
  
 The following legend is applicable only to US Government
 contracts under FAR:
  
                    RESTRICTED RIGHTS LEGEND
  
 Use, reproduction and disclosure by the US Government is
 subject to restrictions as set forth in subparagraphs (a)
 and (c) of the Commercial Computer Software - Restricted
 Rights clause in FAR 52.227-19.
  
 Gaussian, Inc.
 340 Quinnipiac St., Bldg. 40, Wallingford CT 06492
  
  
 ---------------------------------------------------------------
 Warning -- This program may not be used in any manner that
 competes with the business of Gaussian, Inc. or will provide
 assistance to any competitor of Gaussian, Inc.  The licensee
 of this program is prohibited from giving any competitor of
 Gaussian, Inc. access to this program.  By using this program,
 the user acknowledges that Gaussian, Inc. is engaged in the
 business of creating and licensing software in the field of
 computational chemistry and represents and warrants to the
 licensee that it is not a competitor of Gaussian, Inc. and that
 it will not use this program in any manner prohibited above.
 ---------------------------------------------------------------
  

 Cite this work as:
 Gaussian 09, Revision A.01,
 M. J. Frisch, G. W. Trucks, H. B. Schlegel, G. E. Scuseria, 
 M. A. Robb, J. R. Cheeseman, G. Scalmani, V. Barone, B. Mennucci, 
 G. A. Petersson, H. Nakatsuji, M. Caricato, X. Li, H. P. Hratchian, 
 A. F. Izmaylov, J. Bloino, G. Zheng, J. L. Sonnenberg, M. Hada, 
 M. Ehara, K. Toyota, R. Fukuda, J. Hasegawa, M. Ishida, T. Nakajima, 
 Y. Honda, O. Kitao, H. Nakai, T. Vreven, J. A. Montgomery, Jr., 
 J. E. Peralta, F. Ogliaro, M. Bearpark, J. J. Heyd, E. Brothers, 
 K. N. Kudin, V. N. Staroverov, R. Kobayashi, J. Normand, 
 K. Raghavachari, A. Rendell, J. C. Burant, S. S. Iyengar, J. Tomasi, 
 M. Cossi, N. Rega, J. M. Millam, M. Klene, J. E. Knox, J. B. Cross, 
 V. Bakken, C. Adamo, J. Jaramillo, R. Gomperts, R. E. Stratmann, 
 O. Yazyev, A. J. Austin, R. Cammi, C. Pomelli, J. W. Ochterski, 
 R. L. Martin, K. Morokuma, V. G. Zakrzewski, G. A. Voth, 
 P. Salvador, J. J. Dannenberg, S. Dapprich, A. D. Daniels, 
 O. Farkas, J. B. Foresman, J. V. Ortiz, J. Cioslowski, 
 and D. J. Fox, Gaussian, Inc., Wallingford CT, 2009.
 
 ******************************************
 Gaussian 09:  EM64L-G09RevA.01  8-May-2009
                 4-Jun-2016 
 ******************************************
 %mem=8000Mb
 %nproc=8
 Will use up to    8 processors via shared memory.
 -------------
 # mp2/cc-pVTZ
 -------------
 1/38=1/1;
 2/12=2,17=6,18=5,40=1/2;
 3/5=16,6=1,11=9,16=1,25=1,30=1/1,2,3;
 4//1;
 5/5=2,38=5/2;
 8/10=1/1;
 9/16=-3/6;
 6/7=2,8=2,9=2,10=2/1;
 99/5=1,9=1/99;
 --------------------------
 methylformate-H-Lp-ecl.hin
 --------------------------
 Symbolic Z-matrix:
 Charge =  0 Multiplicity = 1
 C                    -1.70128   0.70408  -0.03122 
 O                    -1.74919   1.7593   -0.61904 
 O                    -0.58305   0.0471    0.37838 
 C                     0.6799    0.62955   0.10592 
 H                    -2.60604   0.11723   0.25877 
 H                     1.27628  -0.08275  -0.51212 
 H                     0.60287   1.60009  -0.43581 
 H                     1.21261   0.79636   1.07204 
 Xx                   -0.61279  -0.44058   0.02958 
 Xx                   -0.65075   0.08342   0.97376 
 
                          Input orientation:                          
 ---------------------------------------------------------------------
 Center     Atomic      Atomic             Coordinates (Angstroms)
 Number     Number       Type             X           Y           Z
 ---------------------------------------------------------------------
      1          6           0       -1.701280    0.704080   -0.031220
      2          8           0       -1.749190    1.759300   -0.619040
      3          8           0       -0.583050    0.047100    0.378380
      4          6           0        0.679900    0.629550    0.105920
      5          1           0       -2.606040    0.117230    0.258770
      6          1           0        1.276280   -0.082750   -0.512120
      7          1           0        0.602870    1.600090   -0.435810
      8          1           0        1.212610    0.796360    1.072040
 ---------------------------------------------------------------------
                    Distance matrix (angstroms):
                    1          2          3          4          5
     1  C    0.000000
     2  O    1.208849   0.000000
     3  O    1.360086   2.299208   0.000000
     4  C    2.386290   2.775316   1.417224   0.000000
     5  H    1.116726   2.049667   2.027736   3.329150   0.000000
     6  H    3.117087   3.543734   2.065662   1.115802   3.963164
     7  H    2.505122   2.364552   2.116858   1.114160   3.602557
     8  H    3.117123   3.543905   2.065660   1.115793   3.962917
                    6          7          8
     6  H    0.000000
     7  H    1.814182   0.000000
     8  H    1.812857   1.814215   0.000000
 Stoichiometry    C2H4O2
 Framework group  C1[X(C2H4O2)]
 Deg. of freedom    18
 Full point group                 C1      NOp   1
 Largest Abelian subgroup         C1      NOp   1
 Largest concise Abelian subgroup C1      NOp   1
                         Standard orientation:                         
 ---------------------------------------------------------------------
 Center     Atomic      Atomic             Coordinates (Angstroms)
 Number     Number       Type             X           Y           Z
 ---------------------------------------------------------------------
      1          6           0       -0.839639    0.433105    0.000008
      2          8           0       -1.361365   -0.657362    0.000020
      3          8           0        0.493846    0.700779    0.000100
      4          6           0        1.400866   -0.388184   -0.000056
      5          1           0       -1.412561    1.391666   -0.000442
      6          1           0        2.047350   -0.315158    0.906443
      7          1           0        0.890511   -1.378583   -0.000257
      8          1           0        2.047489   -0.314789   -0.906414
 ---------------------------------------------------------------------
 Rotational constants (GHZ):     20.9073537      6.4272102      5.0796300
 Standard basis: CC-pVTZ (5D, 7F)
 There are   176 symmetry adapted basis functions of A   symmetry.
 Integral buffers will be    131072 words long.
 Raffenetti 1 integral format.
 Two-electron integral symmetry is turned on.
   176 basis functions,   276 primitive gaussians,   200 cartesian basis functions
    16 alpha electrons       16 beta electrons
       nuclear repulsion energy       120.8390911355 Hartrees.
 NAtoms=    8 NActive=    8 NUniq=    8 SFac= 7.50D-01 NAtFMM=   80 NAOKFM=F Big=F
 One-electron integrals computed using PRISM.
 NBasis=   176 RedAO= T  NBF=   176
 NBsUse=   176 1.00D-06 NBFU=   176
 Harris functional with IExCor=  205 diagonalized for initial guess.
 ExpMin= 1.03D-01 ExpMax= 1.53D+04 ExpMxC= 5.22D+02 IAcc=1 IRadAn=         1 AccDes= 0.00D+00
 HarFok:  IExCor=  205 AccDes= 0.00D+00 IRadAn=         1 IDoV= 1
 ScaDFX=  1.000000  1.000000  1.000000  1.000000
 FoFCou: FMM=F IPFlag=           0 FMFlag=      100000 FMFlg1=           0
         NFxFlg=           0 DoJE=T BraDBF=F KetDBF=T FulRan=T
         Omega=  0.000000  0.000000  1.000000  0.000000  0.000000 ICntrl=     500 IOpCl=  0
         NMat0=    1 NMatS0=    1 NMatT0=    0 NMatD0=    1 NMtDS0=    0 NMtDT0=    0
         I1Cent=           4 NGrid=           0.
 Petite list used in FoFCou.
 Initial guess orbital symmetries:
       Occupied  (A) (A) (A) (A) (A) (A) (A) (A) (A) (A) (A) (A)
                 (A) (A) (A) (A)
       Virtual   (A) (A) (A) (A) (A) (A) (A) (A) (A) (A) (A) (A)
                 (A) (A) (A) (A) (A) (A) (A) (A) (A) (A) (A) (A)
                 (A) (A) (A) (A) (A) (A) (A) (A) (A) (A) (A) (A)
                 (A) (A) (A) (A) (A) (A) (A) (A) (A) (A) (A) (A)
                 (A) (A) (A) (A) (A) (A) (A) (A) (A) (A) (A) (A)
                 (A) (A) (A) (A) (A) (A) (A) (A) (A) (A) (A) (A)
                 (A) (A) (A) (A) (A) (A) (A) (A) (A) (A) (A) (A)
                 (A) (A) (A) (A) (A) (A) (A) (A) (A) (A) (A) (A)
                 (A) (A) (A) (A) (A) (A) (A) (A) (A) (A) (A) (A)
                 (A) (A) (A) (A) (A) (A) (A) (A) (A) (A) (A) (A)
                 (A) (A) (A) (A) (A) (A) (A) (A) (A) (A) (A) (A)
                 (A) (A) (A) (A) (A) (A) (A) (A) (A) (A) (A) (A)
                 (A) (A) (A) (A) (A) (A) (A) (A) (A) (A) (A) (A)
                 (A) (A) (A) (A)
 The electronic state of the initial guess is 1-A.
 Requested convergence on RMS density matrix=1.00D-08 within 128 cycles.
 Requested convergence on MAX density matrix=1.00D-06.
 Requested convergence on             energy=1.00D-06.
 No special actions if energy rises.
 Keep R1 ints in memory in canonical form, NReq=206216466.
 SCF Done:  E(RHF) =  -227.869458003     A.U. after   13 cycles
             Convg  =    0.3811D-08             -V/T =  2.0025
 ExpMin= 1.03D-01 ExpMax= 1.53D+04 ExpMxC= 5.22D+02 IAcc=1 IRadAn=         1 AccDes= 0.00D+00
 HarFok:  IExCor=  205 AccDes= 0.00D+00 IRadAn=         1 IDoV=-2
 ScaDFX=  1.000000  1.000000  1.000000  1.000000
 Range of M.O.s used for correlation:     5   176
 NBasis=   176 NAE=    16 NBE=    16 NFC=     4 NFV=     0
 NROrb=    172 NOA=    12 NOB=    12 NVA=   160 NVB=   160

 **** Warning!!: The largest alpha MO coefficient is  0.10200006D+02

 Fully in-core method, ICMem=   428074400.
 JobTyp=1 Pass  1 fully in-core, NPsUse=  8.
 Spin components of T(2) and E(2):
     alpha-alpha T2 =       0.2770139405D-01 E2=     -0.9920342602D-01
     alpha-beta  T2 =       0.1600303456D+00 E2=     -0.6038537915D+00
     beta-beta   T2 =       0.2770139405D-01 E2=     -0.9920342602D-01
 ANorm=    0.1102466840D+01
 E2 =    -0.8022606435D+00 EUMP2 =    -0.22867171864684D+03

 **********************************************************************

            Population analysis using the SCF density.

 **********************************************************************

 Orbital symmetries:
       Occupied  (A) (A) (A) (A) (A) (A) (A) (A) (A) (A) (A) (A)
                 (A) (A) (A) (A)
       Virtual   (A) (A) (A) (A) (A) (A) (A) (A) (A) (A) (A) (A)
                 (A) (A) (A) (A) (A) (A) (A) (A) (A) (A) (A) (A)
                 (A) (A) (A) (A) (A) (A) (A) (A) (A) (A) (A) (A)
                 (A) (A) (A) (A) (A) (A) (A) (A) (A) (A) (A) (A)
                 (A) (A) (A) (A) (A) (A) (A) (A) (A) (A) (A) (A)
                 (A) (A) (A) (A) (A) (A) (A) (A) (A) (A) (A) (A)
                 (A) (A) (A) (A) (A) (A) (A) (A) (A) (A) (A) (A)
                 (A) (A) (A) (A) (A) (A) (A) (A) (A) (A) (A) (A)
                 (A) (A) (A) (A) (A) (A) (A) (A) (A) (A) (A) (A)
                 (A) (A) (A) (A) (A) (A) (A) (A) (A) (A) (A) (A)
                 (A) (A) (A) (A) (A) (A) (A) (A) (A) (A) (A) (A)
                 (A) (A) (A) (A) (A) (A) (A) (A) (A) (A) (A) (A)
                 (A) (A) (A) (A) (A) (A) (A) (A) (A) (A) (A) (A)
                 (A) (A) (A) (A)
 The electronic state is 1-A.
 Alpha  occ. eigenvalues --  -20.61460 -20.55868 -11.39214 -11.29664  -1.46093
 Alpha  occ. eigenvalues --   -1.37046  -0.98322  -0.81538  -0.73396  -0.68121
 Alpha  occ. eigenvalues --   -0.66960  -0.59513  -0.55481  -0.52436  -0.46587
 Alpha  occ. eigenvalues --   -0.46280
 Alpha virt. eigenvalues --    0.14625   0.15835   0.16922   0.21483   0.22321
 Alpha virt. eigenvalues --    0.25214   0.31960   0.36223   0.36368   0.38000
 Alpha virt. eigenvalues --    0.47327   0.52134   0.55045   0.56579   0.58778
 Alpha virt. eigenvalues --    0.60553   0.61364   0.62124   0.68646   0.70297
 Alpha virt. eigenvalues --    0.73808   0.77107   0.77837   0.80152   0.87471
 Alpha virt. eigenvalues --    0.90482   0.93138   0.93470   1.02664   1.05958
 Alpha virt. eigenvalues --    1.06401   1.13011   1.15089   1.17116   1.18612
 Alpha virt. eigenvalues --    1.21291   1.27494   1.33033   1.33944   1.34631
 Alpha virt. eigenvalues --    1.35824   1.44721   1.49480   1.50768   1.52032
 Alpha virt. eigenvalues --    1.56683   1.58748   1.68612   1.75288   1.84692
 Alpha virt. eigenvalues --    1.85380   2.01704   2.07670   2.15108   2.15768
 Alpha virt. eigenvalues --    2.25966   2.31195   2.34159   2.40047   2.42999
 Alpha virt. eigenvalues --    2.50775   2.52751   2.59403   2.63731   2.75952
 Alpha virt. eigenvalues --    2.86122   2.88807   2.93992   2.97698   3.04559
 Alpha virt. eigenvalues --    3.05628   3.08892   3.13495   3.15474   3.24017
 Alpha virt. eigenvalues --    3.25907   3.26246   3.29808   3.32488   3.34448
 Alpha virt. eigenvalues --    3.36259   3.41020   3.43750   3.47449   3.56420
 Alpha virt. eigenvalues --    3.57141   3.59035   3.60774   3.65556   3.68620
 Alpha virt. eigenvalues --    3.69437   3.73661   3.78839   3.79364   3.81069
 Alpha virt. eigenvalues --    3.85674   3.91028   3.99404   4.02523   4.04995
 Alpha virt. eigenvalues --    4.12047   4.13976   4.24386   4.25165   4.29997
 Alpha virt. eigenvalues --    4.30649   4.33915   4.37119   4.48412   4.53607
 Alpha virt. eigenvalues --    4.53814   4.63279   4.63845   4.72549   4.84251
 Alpha virt. eigenvalues --    4.89245   4.99519   5.01990   5.05129   5.11053
 Alpha virt. eigenvalues --    5.19959   5.22488   5.27770   5.32917   5.35264
 Alpha virt. eigenvalues --    5.41007   5.46939   5.53354   5.62379   5.62736
 Alpha virt. eigenvalues --    5.70245   5.79780   5.84963   5.89632   5.94825
 Alpha virt. eigenvalues --    6.12101   6.13542   6.17570   6.30669   6.50063
 Alpha virt. eigenvalues --    6.52558   6.55991   6.71245   6.74742   6.83419
 Alpha virt. eigenvalues --    6.85789   6.94900   7.12066   7.18377   7.30713
 Alpha virt. eigenvalues --    7.40792   7.44740   7.52152   7.60165   7.80711
 Alpha virt. eigenvalues --    7.90861  10.19927  11.41275  13.40025  13.77771
          Condensed to atoms (all electrons):
              1          2          3          4          5          6
     1  C    4.190093   0.708276   0.392842  -0.042239   0.412073   0.001671
     2  O    0.708276   7.811913  -0.074507  -0.015605  -0.057349   0.000160
     3  O    0.392842  -0.074507   7.871112   0.266353  -0.055010  -0.033922
     4  C   -0.042239  -0.015605   0.266353   4.582294   0.003260   0.415002
     5  H    0.412073  -0.057349  -0.055010   0.003260   0.591599  -0.000140
     6  H    0.001671   0.000160  -0.033922   0.415002  -0.000140   0.605158
     7  H   -0.013768   0.018305  -0.034827   0.414569   0.001089  -0.033665
     8  H    0.001672   0.000161  -0.033922   0.414999  -0.000139  -0.039225
              7          8
     1  C   -0.013768   0.001672
     2  O    0.018305   0.000161
     3  O   -0.034827  -0.033922
     4  C    0.414569   0.414999
     5  H    0.001089  -0.000139
     6  H   -0.033665  -0.039225
     7  H    0.577777  -0.033658
     8  H   -0.033658   0.605141
 Mulliken atomic charges:
              1
     1  C    0.349380
     2  O   -0.391355
     3  O   -0.298119
     4  C   -0.038633
     5  H    0.104617
     6  H    0.084961
     7  H    0.104178
     8  H    0.084972
 Sum of Mulliken atomic charges =   0.00000
 Mulliken charges with hydrogens summed into heavy atoms:
              1
     1  C    0.453997
     2  O   -0.391355
     3  O   -0.298119
     4  C    0.235477
 Sum of Mulliken charges with hydrogens summed into heavy atoms =   0.00000
 Electronic spatial extent (au):  <R**2>=            263.6617
 Charge=              0.0000 electrons
 Dipole moment (field-independent basis, Debye):
    X=              1.6341    Y=              1.1103    Z=             -0.0005  Tot=              1.9756
 Quadrupole moment (field-independent basis, Debye-Ang):
   XX=            -23.7286   YY=            -24.2270   ZZ=            -23.0563
   XY=             -5.3187   XZ=              0.0001   YZ=             -0.0004
 Traceless Quadrupole moment (field-independent basis, Debye-Ang):
   XX=             -0.0579   YY=             -0.5564   ZZ=              0.6143
   XY=             -5.3187   XZ=              0.0001   YZ=             -0.0004
 Octapole moment (field-independent basis, Debye-Ang**2):
  XXX=              6.0188  YYY=              1.1148  ZZZ=              0.0005  XYY=             -2.2112
  XXY=              4.5898  XXZ=             -0.0010  XZZ=              0.1188  YZZ=              0.4502
  YYZ=             -0.0011  XYZ=              0.0002
 Hexadecapole moment (field-independent basis, Debye-Ang**3):
 XXXX=           -221.1819 YYYY=            -75.6409 ZZZZ=            -27.0233 XXXY=             -5.9165
 XXXZ=             -0.0001 YYYX=             -2.5637 YYYZ=             -0.0006 ZZZX=              0.0004
 ZZZY=             -0.0003 XXYY=            -48.9869 XXZZ=            -38.2830 YYZZ=            -18.4028
 XXYZ=             -0.0018 YYXZ=              0.0012 ZZXY=              0.7125
 N-N= 1.208390911355D+02 E-N=-7.783674402520D+02  KE= 2.273098724481D+02
 1\1\GINC-ROCK\SP\RMP2-FC\CC-pVTZ\C2H4O2\STYLIANAKIS\04-Jun-2016\0\\# m
 p2/cc-pVTZ\\methylformate-H-Lp-ecl.hin\\0,1\C,0,-1.70128,0.70408,-0.03
 122\O,0,-1.74919,1.7593,-0.61904\O,0,-0.58305,0.0471,0.37838\C,0,0.679
 9,0.62955,0.10592\H,0,-2.60604,0.11723,0.25877\H,0,1.27628,-0.08275,-0
 .51212\H,0,0.60287,1.60009,-0.43581\H,0,1.21261,0.79636,1.07204\X,0,-0
 .61279,-0.44058,0.02958\X,0,-0.65075,0.08342,0.97376\\Version=EM64L-G0
 9RevA.01\State=1-A\HF=-227.869458\MP2=-228.6717186\RMSD=3.811e-09\PG=C
 01 [X(C2H4O2)]\\@


 IT'S WHAT YOU LEARN AFTER YOU KNOW IT ALL
 THAT COUNTS.
 Job cpu time:  0 days  0 hours  9 minutes  1.9 seconds.
 File lengths (MBytes):  RWF=     14 Int=      0 D2E=      0 Chk=      2 Scr=      1
 Normal termination of Gaussian 09 at Sat Jun  4 21:54:45 2016.
