 Entering Gaussian System, Link 0=g09
 Input=18.gjf
 Output=18.out
 Initial command:
 /usr/local/g09/l1.exe /home/scratch/stylianakis/Gau-29572.inp -scrdir=/home/scratch/stylianakis/
 Entering Link 1 = /usr/local/g09/l1.exe PID=     29573.
  
 Copyright (c) 1988,1990,1992,1993,1995,1998,2003,2009, Gaussian, Inc.
                  All Rights Reserved.
  
 This is part of the Gaussian(R) 09 program.  It is based on
 the Gaussian(R) 03 system (copyright 2003, Gaussian, Inc.),
 the Gaussian(R) 98 system (copyright 1998, Gaussian, Inc.),
 the Gaussian(R) 94 system (copyright 1995, Gaussian, Inc.),
 the Gaussian 92(TM) system (copyright 1992, Gaussian, Inc.),
 the Gaussian 90(TM) system (copyright 1990, Gaussian, Inc.),
 the Gaussian 88(TM) system (copyright 1988, Gaussian, Inc.),
 the Gaussian 86(TM) system (copyright 1986, Carnegie Mellon
 University), and the Gaussian 82(TM) system (copyright 1983,
 Carnegie Mellon University). Gaussian is a federally registered
 trademark of Gaussian, Inc.
  
 This software contains proprietary and confidential information,
 including trade secrets, belonging to Gaussian, Inc.
  
 This software is provided under written license and may be
 used, copied, transmitted, or stored only in accord with that
 written license.
  
 The following legend is applicable only to US Government
 contracts under FAR:
  
                    RESTRICTED RIGHTS LEGEND
  
 Use, reproduction and disclosure by the US Government is
 subject to restrictions as set forth in subparagraphs (a)
 and (c) of the Commercial Computer Software - Restricted
 Rights clause in FAR 52.227-19.
  
 Gaussian, Inc.
 340 Quinnipiac St., Bldg. 40, Wallingford CT 06492
  
  
 ---------------------------------------------------------------
 Warning -- This program may not be used in any manner that
 competes with the business of Gaussian, Inc. or will provide
 assistance to any competitor of Gaussian, Inc.  The licensee
 of this program is prohibited from giving any competitor of
 Gaussian, Inc. access to this program.  By using this program,
 the user acknowledges that Gaussian, Inc. is engaged in the
 business of creating and licensing software in the field of
 computational chemistry and represents and warrants to the
 licensee that it is not a competitor of Gaussian, Inc. and that
 it will not use this program in any manner prohibited above.
 ---------------------------------------------------------------
  

 Cite this work as:
 Gaussian 09, Revision A.01,
 M. J. Frisch, G. W. Trucks, H. B. Schlegel, G. E. Scuseria, 
 M. A. Robb, J. R. Cheeseman, G. Scalmani, V. Barone, B. Mennucci, 
 G. A. Petersson, H. Nakatsuji, M. Caricato, X. Li, H. P. Hratchian, 
 A. F. Izmaylov, J. Bloino, G. Zheng, J. L. Sonnenberg, M. Hada, 
 M. Ehara, K. Toyota, R. Fukuda, J. Hasegawa, M. Ishida, T. Nakajima, 
 Y. Honda, O. Kitao, H. Nakai, T. Vreven, J. A. Montgomery, Jr., 
 J. E. Peralta, F. Ogliaro, M. Bearpark, J. J. Heyd, E. Brothers, 
 K. N. Kudin, V. N. Staroverov, R. Kobayashi, J. Normand, 
 K. Raghavachari, A. Rendell, J. C. Burant, S. S. Iyengar, J. Tomasi, 
 M. Cossi, N. Rega, J. M. Millam, M. Klene, J. E. Knox, J. B. Cross, 
 V. Bakken, C. Adamo, J. Jaramillo, R. Gomperts, R. E. Stratmann, 
 O. Yazyev, A. J. Austin, R. Cammi, C. Pomelli, J. W. Ochterski, 
 R. L. Martin, K. Morokuma, V. G. Zakrzewski, G. A. Voth, 
 P. Salvador, J. J. Dannenberg, S. Dapprich, A. D. Daniels, 
 O. Farkas, J. B. Foresman, J. V. Ortiz, J. Cioslowski, 
 and D. J. Fox, Gaussian, Inc., Wallingford CT, 2009.
 
 ******************************************
 Gaussian 09:  EM64L-G09RevA.01  8-May-2009
                21-Jun-2016 
 ******************************************
 %mem=8000Mb
 %nproc=8
 Will use up to    8 processors via shared memory.
 %RWF=/media/S_/Gaussian_scratch/,130GB,/media/TOSHIBA\ EXT/,120GB,/home/scratch/
 stylianakis/,50GB,
 %NoSave
 -------------
 # mp2/cc-pVTZ
 -------------
 1/38=1/1;
 2/12=2,17=6,18=5,40=1/2;
 3/5=16,6=1,11=9,16=1,25=1,30=1/1,2,3;
 4//1;
 5/5=2,38=5/2;
 8/10=1/1;
 9/16=-3/6;
 6/7=2,8=2,9=2,10=2/1;
 99/5=1,9=1/99;
 --------------------------------------------
 N-Me-spiro[piperidine-2,2'-adamantane]-b.hin
 --------------------------------------------
 Symbolic Z-matrix:
 Charge =  0 Multiplicity = 1
 C                    -2.66241  -0.88708  -0.82937 
 C                    -2.59316   0.65142  -0.79731 
 C                    -1.11517   1.12432  -0.86506 
 C                    -0.27091   0.59418   0.34732 
 C                    -0.36957  -0.96157   0.20508 
 C                    -1.81695  -1.48597   0.30488 
 C                     0.20362  -1.43565  -1.14749 
 C                    -0.65345  -0.89791  -2.3053 
 C                    -0.66675   0.63671  -2.26357 
 C                    -2.10001  -1.39875  -2.16599 
 C                    -0.93827   0.97694   1.70652 
 C                    -0.67019   2.43526   2.10367 
 C                     0.83527   2.71985   2.11566 
 C                     1.60205   1.45435   1.71895 
 N                     1.18811   0.91216   0.42463 
 Xx                    1.47573   0.38847   0.36556 
 C                     1.72171   1.78074  -0.6166 
 H                    -3.72459  -1.22127  -0.72517 
 H                    -3.1382    1.05639   0.08305 
 H                    -3.17337   1.06224  -1.65748 
 H                    -1.11866   2.23976  -0.84994 
 H                     0.22799  -1.43637   1.02231 
 H                    -2.27567  -1.26648   1.29516 
 H                    -1.82321  -2.59952   0.23301 
 H                     0.21882  -2.55084  -1.18401 
 H                     1.2631   -1.11307  -1.2704 
 H                    -0.23485  -1.24827  -3.28155 
 H                    -1.35327   1.02718  -3.05177 
 H                     0.31132   1.0382   -2.58995 
 H                    -2.72379  -1.03059  -3.01485 
 H                    -2.13245  -2.51329  -2.20762 
 H                    -0.59566   0.3013    2.52439 
 H                    -2.03827   0.83942   1.73158 
 H                    -1.11448   2.64536   3.10663 
 H                    -1.18127   3.11693   1.38311 
 H                     1.1589    3.04172   3.13472 
 H                     1.08333   3.56325   1.42874 
 H                     1.50164   0.66698   2.50241 
 H                     2.69979   1.65731   1.73441 
 H                     2.73398   2.16901  -0.36109 
 H                     1.93426   1.20005  -1.53789 
 H                     1.07881   2.6668   -0.81531 
 
                          Input orientation:                          
 ---------------------------------------------------------------------
 Center     Atomic      Atomic             Coordinates (Angstroms)
 Number     Number       Type             X           Y           Z
 ---------------------------------------------------------------------
      1          6           0       -2.662410   -0.887080   -0.829370
      2          6           0       -2.593160    0.651420   -0.797310
      3          6           0       -1.115170    1.124320   -0.865060
      4          6           0       -0.270910    0.594180    0.347320
      5          6           0       -0.369570   -0.961570    0.205080
      6          6           0       -1.816950   -1.485970    0.304880
      7          6           0        0.203620   -1.435650   -1.147490
      8          6           0       -0.653450   -0.897910   -2.305300
      9          6           0       -0.666750    0.636710   -2.263570
     10          6           0       -2.100010   -1.398750   -2.165990
     11          6           0       -0.938270    0.976940    1.706520
     12          6           0       -0.670190    2.435260    2.103670
     13          6           0        0.835270    2.719850    2.115660
     14          6           0        1.602050    1.454350    1.718950
     15          7           0        1.188110    0.912160    0.424630
     16          6           0        1.721710    1.780740   -0.616600
     17          1           0       -3.724590   -1.221270   -0.725170
     18          1           0       -3.138200    1.056390    0.083050
     19          1           0       -3.173370    1.062240   -1.657480
     20          1           0       -1.118660    2.239760   -0.849940
     21          1           0        0.227990   -1.436370    1.022310
     22          1           0       -2.275670   -1.266480    1.295160
     23          1           0       -1.823210   -2.599520    0.233010
     24          1           0        0.218820   -2.550840   -1.184010
     25          1           0        1.263100   -1.113070   -1.270400
     26          1           0       -0.234850   -1.248270   -3.281550
     27          1           0       -1.353270    1.027180   -3.051770
     28          1           0        0.311320    1.038200   -2.589950
     29          1           0       -2.723790   -1.030590   -3.014850
     30          1           0       -2.132450   -2.513290   -2.207620
     31          1           0       -0.595660    0.301300    2.524390
     32          1           0       -2.038270    0.839420    1.731580
     33          1           0       -1.114480    2.645360    3.106630
     34          1           0       -1.181270    3.116930    1.383110
     35          1           0        1.158900    3.041720    3.134720
     36          1           0        1.083330    3.563250    1.428740
     37          1           0        1.501640    0.666980    2.502410
     38          1           0        2.699790    1.657310    1.734410
     39          1           0        2.733980    2.169010   -0.361090
     40          1           0        1.934260    1.200050   -1.537890
     41          1           0        1.078810    2.666800   -0.815310
 ---------------------------------------------------------------------
                    Distance matrix (angstroms):
                    1          2          3          4          5
     1  C    0.000000
     2  C    1.540391   0.000000
     3  C    2.537904   1.553280   0.000000
     4  C    3.049263   2.589652   1.569614   0.000000
     5  C    2.516496   2.924188   2.460093   1.565351   0.000000
     6  C    1.536227   2.527006   2.945313   2.592116   1.542681
     7  C    2.935346   3.507202   2.893513   2.565121   1.543614
     8  C    2.492871   2.904640   2.525251   3.067419   2.527182
     9  C    2.891630   2.420990   1.547473   2.641069   2.955850
    10  C    1.537743   2.513897   3.004698   3.692439   2.967747
    11  C    3.588588   3.018905   2.581867   1.561826   2.517054
    12  C    4.858972   3.910957   3.275657   2.575610   3.903008
    13  C    5.823823   4.951558   3.903156   2.978109   4.319121
    14  C    5.491980   4.957424   3.764215   2.475730   3.466375
    15  N    4.431285   3.982352   2.648285   1.495268   2.446515
    16  C    5.136443   4.463869   2.922415   2.511494   3.545261
    17  H    1.118377   2.189134   3.511472   4.046480   3.491270
    18  H    2.199082   1.111802   2.235213   2.916304   3.428172
    19  H    2.178691   1.115934   2.206348   3.558452   3.927624
    20  H    3.487222   2.167889   1.115548   2.204551   3.452929
    21  H    3.476327   3.953324   3.453024   2.197190   1.118203
    22  H    2.192519   2.856146   3.424797   2.894740   2.216859
    23  H    2.182970   3.496140   3.946399   3.552805   2.190144
    24  H    3.345946   4.279163   3.922762   3.532132   2.191245
    25  H    3.956666   4.267081   3.290347   2.808008   2.205812
    26  H    3.469394   3.916873   3.499081   4.069966   3.500991
    27  H    3.212056   2.600214   2.201778   3.593439   3.940795
    28  H    3.955934   3.434991   2.239986   3.027160   3.503553
    29  H    2.191047   2.786343   3.442803   4.467738   3.989369
    30  H    2.196586   3.495228   4.008682   4.432767   3.367002
    31  H    4.114779   3.891822   3.526418   2.220557   2.650501
    32  H    3.151003   2.595868   2.770527   2.258291   2.891077
    33  H    5.510564   4.626342   4.252985   3.540161   4.688691
    34  H    4.808424   3.581397   3.004851   2.875045   4.322126
    35  H    6.764014   5.937369   4.984582   3.975476   5.190890
    36  H    6.239797   5.191400   4.005409   3.437850   4.907368
    37  H    5.554743   5.258876   4.289138   2.791352   3.381025
    38  H    6.465298   5.952877   4.647068   3.446639   4.314899
    39  H    6.219325   5.556239   4.020114   3.465732   4.444446
    40  H    5.097792   4.620280   3.123693   2.963759   3.608071
    41  H    5.160134   4.188728   2.682400   2.732985   4.037830
                    6          7          8          9         10
     6  C    0.000000
     7  C    2.488898   0.000000
     8  C    2.917634   1.537614   0.000000
     9  C    3.525006   2.509553   1.535245   0.000000
    10  C    2.488560   2.519011   1.537135   2.491356   0.000000
    11  C    2.966917   3.907669   4.437441   3.993882   4.689336
    12  C    4.463939   5.130061   5.527144   4.723090   5.913883
    13  C    5.291703   5.321213   5.903335   5.076730   6.626557
    14  C    4.725954   4.303973   5.178320   4.655798   6.077679
    15  N    3.846525   2.992155   3.757687   3.277621   4.781564
    16  C    4.903329   3.596054   3.958315   3.118663   5.207236
    17  H    2.184069   3.956659   3.468901   3.894759   2.178697
    18  H    2.873761   4.346522   3.962005   3.433777   3.487654
    19  H    3.490574   4.231265   3.257584   2.613726   2.732610
    20  H    3.962611   3.917346   3.489909   2.184569   3.991715
    21  H    2.167705   2.169937   3.484231   3.986882   3.947943
    22  H    1.113218   3.484542   3.966201   4.344573   3.468128
    23  H    1.115884   2.714482   3.272130   4.247764   2.696974
    24  H    2.737718   1.115891   2.179524   3.479965   2.769218
    25  H    3.479550   1.114299   2.188716   2.787909   3.492020
    26  H    3.927088   2.186682   1.118500   2.185399   2.178518
    27  H    4.218770   3.480764   2.180123   1.115812   2.688376
    28  H    4.391014   2.865698   2.181818   1.106499   3.454415
    29  H    3.471360   3.495831   2.192572   2.752403   1.115888
    30  H    2.732688   2.782518   2.192358   3.474753   1.115789
    31  H    3.100340   4.139873   4.976681   4.800220   5.210845
    32  H    2.737132   4.300123   4.607867   4.228875   4.494916
    33  H    5.040948   6.040660   6.485083   5.751016   6.717635
    34  H    4.770048   5.389605   5.477399   4.440101   5.816490
    35  H    6.112582   6.268710   6.956947   6.185354   7.644331
    36  H    5.930372   5.692087   6.071360   5.025989   6.904866
    37  H    4.525193   4.407684   5.496123   5.236162   6.247646
    38  H    5.685482   4.909441   5.838889   5.325323   6.898602
    39  H    5.874807   4.473781   4.965947   4.187163   6.273279
    40  H    4.968106   3.177175   3.418567   2.758481   4.839794
    41  H    5.185147   4.207897   4.234141   3.043962   5.334597
                   11         12         13         14         15
    11  C    0.000000
    12  C    1.535022   0.000000
    13  C    2.520035   1.532170   0.000000
    14  C    2.584821   2.504649   1.531934   0.000000
    15  N    2.483733   2.931260   2.500364   1.463072   0.000000
    16  C    3.621943   3.680958   3.022077   2.361280   1.457162
    17  H    4.302188   5.540930   6.662962   6.442496   5.477973
    18  H    2.735262   3.474948   4.763094   5.030359   4.342170
    19  H    4.039733   4.722006   5.749213   5.861627   4.835309
    20  H    2.857051   2.993853   3.583729   3.823392   2.950972
    21  H    2.766292   4.118930   4.340319   3.275608   2.606654
    22  H    2.644010   4.115110   5.122694   4.755967   4.183547
    23  H    3.968049   5.493436   6.237594   5.511287   4.629974
    24  H    4.705237   6.038242   6.248840   5.136346   3.939494
    25  H    4.251614   5.264276   5.132223   3.955091   2.642027
    26  H    5.507014   6.538999   6.783879   5.973555   4.519739
    27  H    4.776617   5.387750   5.861499   5.628158   4.307807
    28  H    4.474917   4.994518   5.024464   4.517276   3.142028
    29  H    5.432273   6.513727   7.283875   6.877258   5.559430
    30  H    5.378500   6.724104   7.408365   6.716145   5.448722
    31  H    1.114801   2.176315   2.839719   2.609250   2.822052
    32  H    1.108846   2.134666   3.455541   3.691914   3.481801
    33  H    2.185174   1.116899   2.188400   3.274705   3.936880
    34  H    2.177889   1.115833   2.181911   3.259422   3.375449
    35  H    3.271268   2.185504   1.116611   2.172678   3.446805
    36  H    3.294393   2.191512   1.115669   2.191062   2.836811
    37  H    2.585087   2.828896   2.192692   1.115277   2.115558
    38  H    3.701238   3.478265   2.179628   1.116452   2.134467
    39  H    4.379665   4.211212   3.169040   2.473575   2.141668
    40  H    4.339056   4.644337   4.106823   3.283601   2.119223
    41  H    3.644704   3.410727   2.941549   2.857672   2.151316
                   16         17         18         19         20
    16  C    0.000000
    17  H    6.219810   0.000000
    18  H    4.963156   2.486927   0.000000
    19  H    5.055836   2.527343   1.740895   0.000000
    20  H    2.886667   4.334186   2.519797   2.502101   0.000000
    21  H    3.907304   4.326990   4.292703   4.999358   4.339668
    22  H    5.377678   2.486593   2.758422   3.866120   4.270111
    23  H    5.698682   2.536322   3.888106   4.336516   5.008773
    24  H    4.619872   4.186738   5.087940   4.978501   4.985008
    25  H    3.001985   5.018569   5.090169   4.956215   4.134131
    26  H    4.483859   4.325979   5.006139   4.075655   4.342833
    27  H    3.994172   4.011453   3.607482   2.293041   2.524569
    28  H    2.536666   4.987101   4.363995   3.607373   2.552690
    29  H    5.780800   2.506111   3.758218   2.534662   4.237743
    30  H    5.985364   2.530194   4.359050   3.764384   5.046043
    31  H    4.174298   4.761099   3.604832   4.971082   3.926482
    32  H    4.531830   3.622946   1.993633   3.581037   3.077480
    33  H    4.759620   6.037068   3.970177   5.426052   3.977308
    34  H    3.769819   5.452825   3.124989   4.175572   2.399971
    35  H    3.997403   7.544555   5.631988   6.756633   4.659177
    36  H    2.787165   7.116674   5.090829   5.822311   3.434060
    37  H    3.319204   6.426215   5.247195   6.270298   4.536283
    38  H    2.549338   7.457105   6.096739   6.808306   4.647437
    39  H    1.113880   7.303402   5.993136   6.148362   3.884175
    40  H    1.109574   6.208533   5.327094   5.110888   3.297665
    41  H    1.112613   6.180442   4.602569   4.622218   2.238847
                   21         22         23         24         25
    21  H    0.000000
    22  H    2.524207   0.000000
    23  H    2.486631   1.763485   0.000000
    24  H    2.471836   3.744108   2.486001   0.000000
    25  H    2.536236   4.373617   3.741000   1.779091   0.000000
    26  H    4.332760   5.011143   4.086673   2.510414   2.511346
    27  H    5.016731   5.000750   4.915646   4.331538   3.820908
    28  H    4.379368   5.205588   5.075266   3.855701   2.697232
    29  H    5.017601   4.339659   3.717685   3.784454   4.352608
    30  H    4.142932   3.720822   2.461654   2.564695   3.790614
    31  H    2.440111   2.606027   3.895133   4.748717   4.455992
    32  H    3.289106   2.163709   3.757429   5.008890   4.870641
    33  H    4.775682   4.464558   6.022355   6.869336   6.239958
    34  H    4.780035   4.518820   5.866227   6.377615   5.559583
    35  H    5.038071   5.808687   7.009742   7.128247   6.056255
    36  H    5.088516   5.884472   6.917910   6.704919   5.402374
    37  H    2.870011   4.411779   5.184094   5.058625   4.178466
    38  H    4.023399   5.787633   6.390018   5.690423   4.332201
    39  H    4.603536   6.296217   6.622674   5.411119   3.709768
    40  H    4.051752   5.642114   5.629512   4.139703   2.423331
    41  H    4.575669   5.583665   6.103673   5.300876   3.811625
                   26         27         28         29         30
    26  H    0.000000
    27  H    2.545847   0.000000
    28  H    2.450420   1.727501   0.000000
    29  H    2.512635   2.472672   3.697611   0.000000
    30  H    2.520811   3.722182   4.327964   1.788771   0.000000
    31  H    6.019991   5.674014   5.246152   6.081616   5.716254
    32  H    5.722084   4.835795   4.922978   5.147375   5.173667
    33  H    7.532791   6.371924   6.088259   7.319495   7.475907
    34  H    6.458307   4.905589   4.725902   6.238857   6.745181
    35  H    7.843155   6.974384   6.124078   8.335239   8.380437
    36  H    6.861134   5.695932   4.808508   7.439289   7.777448
    37  H    6.335438   6.255331   5.242785   7.153751   6.745748
    38  H    6.497258   6.303323   4.978772   7.693861   7.502270
    39  H    5.387099   5.024853   3.480780   6.860549   7.001125
    40  H    3.706705   3.623475   1.940866   5.371647   5.547573
    41  H    4.809970   3.688512   2.527989   5.741815   6.251724
                   31         32         33         34         35
    31  H    0.000000
    32  H    1.731833   0.000000
    33  H    2.470384   2.450626   0.000000
    34  H    3.094064   2.458238   1.788116   0.000000
    35  H    3.310723   4.128053   2.307845   2.924071   0.000000
    36  H    3.828808   4.153956   2.913453   2.308614   1.785517
    37  H    2.129054   3.626965   3.335139   3.801722   2.481265
    38  H    3.650044   4.808135   4.172276   4.161313   2.500360
    39  H    4.785482   5.377866   5.202176   4.389757   3.932326
    40  H    4.869329   5.157566   5.740671   4.681153   5.081950
    41  H    4.421882   4.420651   4.493617   3.184906   3.968591
                   36         37         38         39         40
    36  H    0.000000
    37  H    3.117071   0.000000
    38  H    2.517734   1.733823   0.000000
    39  H    2.805716   3.460403   2.157342   0.000000
    40  H    3.887118   4.098213   3.391618   1.721422   0.000000
    41  H    2.416486   3.896836   3.185548   1.787092   1.845338
                   41
    41  H    0.000000
 Stoichiometry    C15H25N
 Framework group  C1[X(C15H25N)]
 Deg. of freedom   117
 Full point group                 C1      NOp   1
 Largest Abelian subgroup         C1      NOp   1
 Largest concise Abelian subgroup C1      NOp   1
                         Standard orientation:                         
 ---------------------------------------------------------------------
 Center     Atomic      Atomic             Coordinates (Angstroms)
 Number     Number       Type             X           Y           Z
 ---------------------------------------------------------------------
      1          6           0        2.306038   -1.253601   -0.078278
      2          6           0        1.322727   -1.243631   -1.263945
      3          6           0        0.347553   -0.040661   -1.143204
      4          6           0       -0.507700   -0.105313    0.171349
      5          6           0        0.569411   -0.070903    1.306678
      6          6           0        1.540504   -1.268408    1.253538
      7          6           0        1.416647    1.217323    1.233124
      8          6           0        2.239570    1.238351   -0.065572
      9          6           0        1.293443    1.177165   -1.273081
     10          6           0        3.171353    0.016952   -0.117998
     11          6           0       -1.257300   -1.470597    0.287098
     12          6           0       -2.518702   -1.525232   -0.585927
     13          6           0       -3.443579   -0.346198   -0.266513
     14          6           0       -2.811373    0.523727    0.824526
     15          7           0       -1.470541    0.996496    0.479217
     16          6           0       -1.608903    2.041038   -0.527315
     17          1           0        2.968767   -2.152167   -0.142597
     18          1           0        0.798229   -2.219736   -1.354623
     19          1           0        1.899270   -1.183469   -2.217510
     20          1           0       -0.333698   -0.070947   -2.026055
     21          1           0        0.049730   -0.090035    2.296598
     22          1           0        1.016599   -2.240389    1.395065
     23          1           0        2.260890   -1.211168    2.103813
     24          1           0        2.105315    1.269954    2.109583
     25          1           0        0.773952    2.125382    1.296637
     26          1           0        2.853604    2.172159   -0.110387
     27          1           0        1.889968    1.109550   -2.213624
     28          1           0        0.770506    2.143929   -1.400529
     29          1           0        3.788168    0.036428   -1.047711
     30          1           0        3.886413    0.035006    0.738359
     31          1           0       -1.529850   -1.688531    1.345873
     32          1           0       -0.645165   -2.353920    0.014019
     33          1           0       -3.052003   -2.493397   -0.425578
     34          1           0       -2.227143   -1.500178   -1.662704
     35          1           0       -4.434721   -0.718506    0.088232
     36          1           0       -3.646636    0.256224   -1.183341
     37          1           0       -2.775569   -0.021828    1.796602
     38          1           0       -3.487213    1.379414    1.064328
     39          1           0       -2.504250    2.679299   -0.349252
     40          1           0       -0.788077    2.782002   -0.435831
     41          1           0       -1.701434    1.639387   -1.560767
 ---------------------------------------------------------------------
 Rotational constants (GHZ):      1.0357810      0.4717838      0.4242715
 Standard basis: CC-pVTZ (5D, 7F)
 There are   830 symmetry adapted basis functions of A   symmetry.
 Integral buffers will be    131072 words long.
 Raffenetti 1 integral format.
 Two-electron integral symmetry is turned on.
   830 basis functions,  1257 primitive gaussians,   935 cartesian basis functions
    61 alpha electrons       61 beta electrons
       nuclear repulsion energy      1286.2084773204 Hartrees.
 NAtoms=   41 NActive=   41 NUniq=   41 SFac= 7.50D-01 NAtFMM=   80 NAOKFM=F Big=F
 One-electron integrals computed using PRISM.
 NBasis=   830 RedAO= T  NBF=   830
 NBsUse=   830 1.00D-06 NBFU=   830
 Harris functional with IExCor=  205 diagonalized for initial guess.
 ExpMin= 1.03D-01 ExpMax= 1.14D+04 ExpMxC= 3.89D+02 IAcc=1 IRadAn=         1 AccDes= 0.00D+00
 HarFok:  IExCor=  205 AccDes= 0.00D+00 IRadAn=         1 IDoV= 1
 ScaDFX=  1.000000  1.000000  1.000000  1.000000
 FoFCou: FMM=F IPFlag=           0 FMFlag=      100000 FMFlg1=           0
         NFxFlg=           0 DoJE=T BraDBF=F KetDBF=T FulRan=T
         Omega=  0.000000  0.000000  1.000000  0.000000  0.000000 ICntrl=     500 IOpCl=  0
         NMat0=    1 NMatS0=    1 NMatT0=    0 NMatD0=    1 NMtDS0=    0 NMtDT0=    0
         I1Cent=           4 NGrid=           0.
 Petite list used in FoFCou.
 Initial guess orbital symmetries:
       Occupied  (A) (A) (A) (A) (A) (A) (A) (A) (A) (A) (A) (A)
                 (A) (A) (A) (A) (A) (A) (A) (A) (A) (A) (A) (A)
                 (A) (A) (A) (A) (A) (A) (A) (A) (A) (A) (A) (A)
                 (A) (A) (A) (A) (A) (A) (A) (A) (A) (A) (A) (A)
                 (A) (A) (A) (A) (A) (A) (A) (A) (A) (A) (A) (A)
                 (A)
       Virtual   (A) (A) (A) (A) (A) (A) (A) (A) (A) (A) (A) (A)
                 (A) (A) (A) (A) (A) (A) (A) (A) (A) (A) (A) (A)
                 (A) (A) (A) (A) (A) (A) (A) (A) (A) (A) (A) (A)
                 (A) (A) (A) (A) (A) (A) (A) (A) (A) (A) (A) (A)
                 (A) (A) (A) (A) (A) (A) (A) (A) (A) (A) (A) (A)
                 (A) (A) (A) (A) (A) (A) (A) (A) (A) (A) (A) (A)
                 (A) (A) (A) (A) (A) (A) (A) (A) (A) (A) (A) (A)
                 (A) (A) (A) (A) (A) (A) (A) (A) (A) (A) (A) (A)
                 (A) (A) (A) (A) (A) (A) (A) (A) (A) (A) (A) (A)
                 (A) (A) (A) (A) (A) (A) (A) (A) (A) (A) (A) (A)
                 (A) (A) (A) (A) (A) (A) (A) (A) (A) (A) (A) (A)
                 (A) (A) (A) (A) (A) (A) (A) (A) (A) (A) (A) (A)
                 (A) (A) (A) (A) (A) (A) (A) (A) (A) (A) (A) (A)
                 (A) (A) (A) (A) (A) (A) (A) (A) (A) (A) (A) (A)
                 (A) (A) (A) (A) (A) (A) (A) (A) (A) (A) (A) (A)
                 (A) (A) (A) (A) (A) (A) (A) (A) (A) (A) (A) (A)
                 (A) (A) (A) (A) (A) (A) (A) (A) (A) (A) (A) (A)
                 (A) (A) (A) (A) (A) (A) (A) (A) (A) (A) (A) (A)
                 (A) (A) (A) (A) (A) (A) (A) (A) (A) (A) (A) (A)
                 (A) (A) (A) (A) (A) (A) (A) (A) (A) (A) (A) (A)
                 (A) (A) (A) (A) (A) (A) (A) (A) (A) (A) (A) (A)
                 (A) (A) (A) (A) (A) (A) (A) (A) (A) (A) (A) (A)
                 (A) (A) (A) (A) (A) (A) (A) (A) (A) (A) (A) (A)
                 (A) (A) (A) (A) (A) (A) (A) (A) (A) (A) (A) (A)
                 (A) (A) (A) (A) (A) (A) (A) (A) (A) (A) (A) (A)
                 (A) (A) (A) (A) (A) (A) (A) (A) (A) (A) (A) (A)
                 (A) (A) (A) (A) (A) (A) (A) (A) (A) (A) (A) (A)
                 (A) (A) (A) (A) (A) (A) (A) (A) (A) (A) (A) (A)
                 (A) (A) (A) (A) (A) (A) (A) (A) (A) (A) (A) (A)
                 (A) (A) (A) (A) (A) (A) (A) (A) (A) (A) (A) (A)
                 (A) (A) (A) (A) (A) (A) (A) (A) (A) (A) (A) (A)
                 (A) (A) (A) (A) (A) (A) (A) (A) (A) (A) (A) (A)
                 (A) (A) (A) (A) (A) (A) (A) (A) (A) (A) (A) (A)
                 (A) (A) (A) (A) (A) (A) (A) (A) (A) (A) (A) (A)
                 (A) (A) (A) (A) (A) (A) (A) (A) (A) (A) (A) (A)
                 (A) (A) (A) (A) (A) (A) (A) (A) (A) (A) (A) (A)
                 (A) (A) (A) (A) (A) (A) (A) (A) (A) (A) (A) (A)
                 (A) (A) (A) (A) (A) (A) (A) (A) (A) (A) (A) (A)
                 (A) (A) (A) (A) (A) (A) (A) (A) (A) (A) (A) (A)
                 (A) (A) (A) (A) (A) (A) (A) (A) (A) (A) (A) (A)
                 (A) (A) (A) (A) (A) (A) (A) (A) (A) (A) (A) (A)
                 (A) (A) (A) (A) (A) (A) (A) (A) (A) (A) (A) (A)
                 (A) (A) (A) (A) (A) (A) (A) (A) (A) (A) (A) (A)
                 (A) (A) (A) (A) (A) (A) (A) (A) (A) (A) (A) (A)
                 (A) (A) (A) (A) (A) (A) (A) (A) (A) (A) (A) (A)
                 (A) (A) (A) (A) (A) (A) (A) (A) (A) (A) (A) (A)
                 (A) (A) (A) (A) (A) (A) (A) (A) (A) (A) (A) (A)
                 (A) (A) (A) (A) (A) (A) (A) (A) (A) (A) (A) (A)
                 (A) (A) (A) (A) (A) (A) (A) (A) (A) (A) (A) (A)
                 (A) (A) (A) (A) (A) (A) (A) (A) (A) (A) (A) (A)
                 (A) (A) (A) (A) (A) (A) (A) (A) (A) (A) (A) (A)
                 (A) (A) (A) (A) (A) (A) (A) (A) (A) (A) (A) (A)
                 (A) (A) (A) (A) (A) (A) (A) (A) (A) (A) (A) (A)
                 (A) (A) (A) (A) (A) (A) (A) (A) (A) (A) (A) (A)
                 (A) (A) (A) (A) (A) (A) (A) (A) (A) (A) (A) (A)
                 (A) (A) (A) (A) (A) (A) (A) (A) (A) (A) (A) (A)
                 (A) (A) (A) (A) (A) (A) (A) (A) (A) (A) (A) (A)
                 (A) (A) (A) (A) (A) (A) (A) (A) (A) (A) (A) (A)
                 (A) (A) (A) (A) (A) (A) (A) (A) (A) (A) (A) (A)
                 (A) (A) (A) (A) (A) (A) (A) (A) (A) (A) (A) (A)
                 (A) (A) (A) (A) (A) (A) (A) (A) (A) (A) (A) (A)
                 (A) (A) (A) (A) (A) (A) (A) (A) (A) (A) (A) (A)
                 (A) (A) (A) (A) (A) (A) (A) (A) (A) (A) (A) (A)
                 (A) (A) (A) (A) (A) (A) (A) (A) (A) (A) (A) (A)
                 (A)
 The electronic state of the initial guess is 1-A.
 Requested convergence on RMS density matrix=1.00D-08 within 128 cycles.
 Requested convergence on MAX density matrix=1.00D-06.
 Requested convergence on             energy=1.00D-06.
 No special actions if energy rises.
 Integral accuracy reduced to 1.0D-05 until final iterations.
 Initial convergence to 1.0D-05 achieved.  Increase integral accuracy.
 SCF Done:  E(RHF) =  -637.182254067     A.U. after   12 cycles
             Convg  =    0.5505D-08             -V/T =  2.0024
 ExpMin= 1.03D-01 ExpMax= 1.14D+04 ExpMxC= 3.89D+02 IAcc=1 IRadAn=         1 AccDes= 0.00D+00
 HarFok:  IExCor=  205 AccDes= 0.00D+00 IRadAn=         1 IDoV=-2
 ScaDFX=  1.000000  1.000000  1.000000  1.000000
 Range of M.O.s used for correlation:    17   830
 NBasis=   830 NAE=    61 NBE=    61 NFC=    16 NFV=     0
 NROrb=    814 NOA=    45 NOB=    45 NVA=   769 NVB=   769

 **** Warning!!: The largest alpha MO coefficient is  0.15558236D+02

 Disk-based method using OVN memory for 45 occupieds at a time.
 Estimated scratch disk usage= 39088785370 words.
 Actual    scratch disk usage= 38144137178 words.
 JobTyp=1 Pass  1:  I=   1 to  45 NPSUse=  8 ParTrn=T ParDer=T DoDerP=F.
 Spin components of T(2) and E(2):
     alpha-alpha T2 =       0.1136735112D+00 E2=     -0.3347196174D+00
     alpha-beta  T2 =       0.6515284840D+00 E2=     -0.2123221995D+01
     beta-beta   T2 =       0.1136735112D+00 E2=     -0.3347196174D+00
 ANorm=    0.1370720798D+01
 E2 =    -0.2792661230D+01 EUMP2 =    -0.63997491529701D+03

 **********************************************************************

            Population analysis using the SCF density.

 **********************************************************************

 Orbital symmetries:
       Occupied  (A) (A) (A) (A) (A) (A) (A) (A) (A) (A) (A) (A)
                 (A) (A) (A) (A) (A) (A) (A) (A) (A) (A) (A) (A)
                 (A) (A) (A) (A) (A) (A) (A) (A) (A) (A) (A) (A)
                 (A) (A) (A) (A) (A) (A) (A) (A) (A) (A) (A) (A)
                 (A) (A) (A) (A) (A) (A) (A) (A) (A) (A) (A) (A)
                 (A)
       Virtual   (A) (A) (A) (A) (A) (A) (A) (A) (A) (A) (A) (A)
                 (A) (A) (A) (A) (A) (A) (A) (A) (A) (A) (A) (A)
                 (A) (A) (A) (A) (A) (A) (A) (A) (A) (A) (A) (A)
                 (A) (A) (A) (A) (A) (A) (A) (A) (A) (A) (A) (A)
                 (A) (A) (A) (A) (A) (A) (A) (A) (A) (A) (A) (A)
                 (A) (A) (A) (A) (A) (A) (A) (A) (A) (A) (A) (A)
                 (A) (A) (A) (A) (A) (A) (A) (A) (A) (A) (A) (A)
                 (A) (A) (A) (A) (A) (A) (A) (A) (A) (A) (A) (A)
                 (A) (A) (A) (A) (A) (A) (A) (A) (A) (A) (A) (A)
                 (A) (A) (A) (A) (A) (A) (A) (A) (A) (A) (A) (A)
                 (A) (A) (A) (A) (A) (A) (A) (A) (A) (A) (A) (A)
                 (A) (A) (A) (A) (A) (A) (A) (A) (A) (A) (A) (A)
                 (A) (A) (A) (A) (A) (A) (A) (A) (A) (A) (A) (A)
                 (A) (A) (A) (A) (A) (A) (A) (A) (A) (A) (A) (A)
                 (A) (A) (A) (A) (A) (A) (A) (A) (A) (A) (A) (A)
                 (A) (A) (A) (A) (A) (A) (A) (A) (A) (A) (A) (A)
                 (A) (A) (A) (A) (A) (A) (A) (A) (A) (A) (A) (A)
                 (A) (A) (A) (A) (A) (A) (A) (A) (A) (A) (A) (A)
                 (A) (A) (A) (A) (A) (A) (A) (A) (A) (A) (A) (A)
                 (A) (A) (A) (A) (A) (A) (A) (A) (A) (A) (A) (A)
                 (A) (A) (A) (A) (A) (A) (A) (A) (A) (A) (A) (A)
                 (A) (A) (A) (A) (A) (A) (A) (A) (A) (A) (A) (A)
                 (A) (A) (A) (A) (A) (A) (A) (A) (A) (A) (A) (A)
                 (A) (A) (A) (A) (A) (A) (A) (A) (A) (A) (A) (A)
                 (A) (A) (A) (A) (A) (A) (A) (A) (A) (A) (A) (A)
                 (A) (A) (A) (A) (A) (A) (A) (A) (A) (A) (A) (A)
                 (A) (A) (A) (A) (A) (A) (A) (A) (A) (A) (A) (A)
                 (A) (A) (A) (A) (A) (A) (A) (A) (A) (A) (A) (A)
                 (A) (A) (A) (A) (A) (A) (A) (A) (A) (A) (A) (A)
                 (A) (A) (A) (A) (A) (A) (A) (A) (A) (A) (A) (A)
                 (A) (A) (A) (A) (A) (A) (A) (A) (A) (A) (A) (A)
                 (A) (A) (A) (A) (A) (A) (A) (A) (A) (A) (A) (A)
                 (A) (A) (A) (A) (A) (A) (A) (A) (A) (A) (A) (A)
                 (A) (A) (A) (A) (A) (A) (A) (A) (A) (A) (A) (A)
                 (A) (A) (A) (A) (A) (A) (A) (A) (A) (A) (A) (A)
                 (A) (A) (A) (A) (A) (A) (A) (A) (A) (A) (A) (A)
                 (A) (A) (A) (A) (A) (A) (A) (A) (A) (A) (A) (A)
                 (A) (A) (A) (A) (A) (A) (A) (A) (A) (A) (A) (A)
                 (A) (A) (A) (A) (A) (A) (A) (A) (A) (A) (A) (A)
                 (A) (A) (A) (A) (A) (A) (A) (A) (A) (A) (A) (A)
                 (A) (A) (A) (A) (A) (A) (A) (A) (A) (A) (A) (A)
                 (A) (A) (A) (A) (A) (A) (A) (A) (A) (A) (A) (A)
                 (A) (A) (A) (A) (A) (A) (A) (A) (A) (A) (A) (A)
                 (A) (A) (A) (A) (A) (A) (A) (A) (A) (A) (A) (A)
                 (A) (A) (A) (A) (A) (A) (A) (A) (A) (A) (A) (A)
                 (A) (A) (A) (A) (A) (A) (A) (A) (A) (A) (A) (A)
                 (A) (A) (A) (A) (A) (A) (A) (A) (A) (A) (A) (A)
                 (A) (A) (A) (A) (A) (A) (A) (A) (A) (A) (A) (A)
                 (A) (A) (A) (A) (A) (A) (A) (A) (A) (A) (A) (A)
                 (A) (A) (A) (A) (A) (A) (A) (A) (A) (A) (A) (A)
                 (A) (A) (A) (A) (A) (A) (A) (A) (A) (A) (A) (A)
                 (A) (A) (A) (A) (A) (A) (A) (A) (A) (A) (A) (A)
                 (A) (A) (A) (A) (A) (A) (A) (A) (A) (A) (A) (A)
                 (A) (A) (A) (A) (A) (A) (A) (A) (A) (A) (A) (A)
                 (A) (A) (A) (A) (A) (A) (A) (A) (A) (A) (A) (A)
                 (A) (A) (A) (A) (A) (A) (A) (A) (A) (A) (A) (A)
                 (A) (A) (A) (A) (A) (A) (A) (A) (A) (A) (A) (A)
                 (A) (A) (A) (A) (A) (A) (A) (A) (A) (A) (A) (A)
                 (A) (A) (A) (A) (A) (A) (A) (A) (A) (A) (A) (A)
                 (A) (A) (A) (A) (A) (A) (A) (A) (A) (A) (A) (A)
                 (A) (A) (A) (A) (A) (A) (A) (A) (A) (A) (A) (A)
                 (A) (A) (A) (A) (A) (A) (A) (A) (A) (A) (A) (A)
                 (A) (A) (A) (A) (A) (A) (A) (A) (A) (A) (A) (A)
                 (A) (A) (A) (A) (A) (A) (A) (A) (A) (A) (A) (A)
                 (A)
 The electronic state is 1-A.
 Alpha  occ. eigenvalues --  -15.53846 -11.26213 -11.24337 -11.23911 -11.22958
 Alpha  occ. eigenvalues --  -11.21918 -11.21907 -11.21807 -11.21654 -11.21626
 Alpha  occ. eigenvalues --  -11.21620 -11.21234 -11.21208 -11.21105 -11.21031
 Alpha  occ. eigenvalues --  -11.20701  -1.22642  -1.14884  -1.06187  -1.03494
 Alpha  occ. eigenvalues --   -1.02909  -1.02374  -0.95506  -0.92601  -0.89369
 Alpha  occ. eigenvalues --   -0.86178  -0.83549  -0.79380  -0.78526  -0.77521
 Alpha  occ. eigenvalues --   -0.72825  -0.68386  -0.65470  -0.65325  -0.62171
 Alpha  occ. eigenvalues --   -0.61030  -0.59859  -0.58694  -0.58309  -0.57563
 Alpha  occ. eigenvalues --   -0.56816  -0.54977  -0.54528  -0.53526  -0.52976
 Alpha  occ. eigenvalues --   -0.51945  -0.51797  -0.51226  -0.49506  -0.48060
 Alpha  occ. eigenvalues --   -0.47450  -0.45862  -0.45515  -0.45501  -0.44649
 Alpha  occ. eigenvalues --   -0.43884  -0.42542  -0.40340  -0.39824  -0.39021
 Alpha  occ. eigenvalues --   -0.33005
 Alpha virt. eigenvalues --    0.12728   0.14630   0.14983   0.15722   0.17088
 Alpha virt. eigenvalues --    0.17313   0.17615   0.17880   0.19382   0.20146
 Alpha virt. eigenvalues --    0.20634   0.20981   0.21273   0.22543   0.23431
 Alpha virt. eigenvalues --    0.23553   0.23911   0.25016   0.25706   0.26301
 Alpha virt. eigenvalues --    0.26675   0.28174   0.28987   0.30060   0.30424
 Alpha virt. eigenvalues --    0.31155   0.31871   0.32962   0.33028   0.34187
 Alpha virt. eigenvalues --    0.34973   0.35027   0.36044   0.36532   0.37383
 Alpha virt. eigenvalues --    0.38991   0.39106   0.40539   0.40631   0.40854
 Alpha virt. eigenvalues --    0.41165   0.42237   0.43291   0.43855   0.44630
 Alpha virt. eigenvalues --    0.44866   0.46362   0.46646   0.47056   0.47216
 Alpha virt. eigenvalues --    0.48138   0.48373   0.49185   0.50134   0.51907
 Alpha virt. eigenvalues --    0.52461   0.53707   0.54478   0.55228   0.56252
 Alpha virt. eigenvalues --    0.56417   0.57296   0.58049   0.58407   0.59338
 Alpha virt. eigenvalues --    0.59620   0.60017   0.60370   0.60887   0.61064
 Alpha virt. eigenvalues --    0.61700   0.62074   0.62161   0.62765   0.63159
 Alpha virt. eigenvalues --    0.63760   0.64189   0.64464   0.64877   0.65238
 Alpha virt. eigenvalues --    0.65735   0.66167   0.66784   0.66926   0.67111
 Alpha virt. eigenvalues --    0.67571   0.67861   0.68463   0.69067   0.69915
 Alpha virt. eigenvalues --    0.70284   0.70750   0.71227   0.71638   0.72203
 Alpha virt. eigenvalues --    0.73011   0.73308   0.73937   0.74363   0.74983
 Alpha virt. eigenvalues --    0.75069   0.75948   0.77241   0.77418   0.77851
 Alpha virt. eigenvalues --    0.79093   0.80479   0.81091   0.83086   0.83645
 Alpha virt. eigenvalues --    0.85083   0.85442   0.86294   0.86967   0.88416
 Alpha virt. eigenvalues --    0.89828   0.91645   0.92458   0.92857   0.94546
 Alpha virt. eigenvalues --    0.95608   0.98717   0.99379   1.00451   1.01726
 Alpha virt. eigenvalues --    1.02268   1.02711   1.03783   1.03978   1.04947
 Alpha virt. eigenvalues --    1.05746   1.06340   1.07755   1.08260   1.09656
 Alpha virt. eigenvalues --    1.09925   1.10744   1.11122   1.11728   1.12836
 Alpha virt. eigenvalues --    1.13417   1.13993   1.14311   1.15198   1.16225
 Alpha virt. eigenvalues --    1.16867   1.17340   1.18484   1.18963   1.19526
 Alpha virt. eigenvalues --    1.20820   1.21181   1.21957   1.22238   1.23107
 Alpha virt. eigenvalues --    1.24188   1.24791   1.25764   1.26773   1.27788
 Alpha virt. eigenvalues --    1.28279   1.28922   1.29781   1.30909   1.31249
 Alpha virt. eigenvalues --    1.32149   1.32584   1.32961   1.33519   1.33661
 Alpha virt. eigenvalues --    1.33919   1.34516   1.34699   1.35876   1.36679
 Alpha virt. eigenvalues --    1.37055   1.37885   1.38543   1.39427   1.39698
 Alpha virt. eigenvalues --    1.40225   1.40657   1.41130   1.41264   1.41732
 Alpha virt. eigenvalues --    1.41992   1.42528   1.43593   1.43979   1.44417
 Alpha virt. eigenvalues --    1.44954   1.45491   1.46043   1.46867   1.47363
 Alpha virt. eigenvalues --    1.47823   1.48187   1.48448   1.49147   1.50090
 Alpha virt. eigenvalues --    1.50460   1.51171   1.51501   1.52498   1.52995
 Alpha virt. eigenvalues --    1.53626   1.54764   1.55139   1.55802   1.56435
 Alpha virt. eigenvalues --    1.56803   1.57792   1.58600   1.59138   1.60473
 Alpha virt. eigenvalues --    1.61484   1.61582   1.62181   1.63098   1.63445
 Alpha virt. eigenvalues --    1.64192   1.64840   1.65706   1.66376   1.67132
 Alpha virt. eigenvalues --    1.67829   1.68163   1.68985   1.69910   1.71165
 Alpha virt. eigenvalues --    1.71870   1.72221   1.72808   1.73565   1.74406
 Alpha virt. eigenvalues --    1.74793   1.75085   1.75695   1.77071   1.77960
 Alpha virt. eigenvalues --    1.78343   1.78740   1.79362   1.79847   1.80628
 Alpha virt. eigenvalues --    1.81295   1.81630   1.82772   1.83000   1.84508
 Alpha virt. eigenvalues --    1.86225   1.86495   1.89111   1.89684   1.90359
 Alpha virt. eigenvalues --    1.90820   1.91281   1.93071   1.93587   1.94926
 Alpha virt. eigenvalues --    1.95697   1.96591   1.97368   1.99493   2.00010
 Alpha virt. eigenvalues --    2.00346   2.01948   2.02941   2.04674   2.06432
 Alpha virt. eigenvalues --    2.07402   2.07896   2.08831   2.09406   2.11703
 Alpha virt. eigenvalues --    2.14067   2.17093   2.20696   2.22069   2.23076
 Alpha virt. eigenvalues --    2.25130   2.26367   2.29280   2.33375   2.36398
 Alpha virt. eigenvalues --    2.39049   2.41661   2.47195   2.61747   2.63092
 Alpha virt. eigenvalues --    2.64404   2.67608   2.68246   2.70654   2.72294
 Alpha virt. eigenvalues --    2.72791   2.74463   2.75399   2.76442   2.77314
 Alpha virt. eigenvalues --    2.78436   2.79414   2.79772   2.80907   2.82213
 Alpha virt. eigenvalues --    2.83020   2.83463   2.84350   2.85184   2.85759
 Alpha virt. eigenvalues --    2.86748   2.87102   2.87890   2.89730   2.89806
 Alpha virt. eigenvalues --    2.90520   2.90633   2.90794   2.91336   2.92569
 Alpha virt. eigenvalues --    2.93051   2.93791   2.94225   2.94384   2.94905
 Alpha virt. eigenvalues --    2.96231   2.96625   2.98000   2.98219   2.99153
 Alpha virt. eigenvalues --    2.99447   3.00153   3.00763   3.01104   3.02240
 Alpha virt. eigenvalues --    3.03094   3.03931   3.05438   3.05483   3.05718
 Alpha virt. eigenvalues --    3.06517   3.07492   3.07905   3.08292   3.09114
 Alpha virt. eigenvalues --    3.09532   3.10092   3.10605   3.11756   3.12170
 Alpha virt. eigenvalues --    3.13201   3.13816   3.15211   3.15511   3.15904
 Alpha virt. eigenvalues --    3.17111   3.17680   3.18195   3.18958   3.20904
 Alpha virt. eigenvalues --    3.21428   3.23320   3.23716   3.24670   3.25487
 Alpha virt. eigenvalues --    3.26407   3.26820   3.28748   3.28963   3.29433
 Alpha virt. eigenvalues --    3.29707   3.30756   3.31079   3.31388   3.32689
 Alpha virt. eigenvalues --    3.33134   3.33926   3.34473   3.35236   3.35397
 Alpha virt. eigenvalues --    3.36508   3.36802   3.37615   3.38233   3.38760
 Alpha virt. eigenvalues --    3.39823   3.40670   3.41180   3.41731   3.41961
 Alpha virt. eigenvalues --    3.42219   3.42625   3.43549   3.44050   3.44646
 Alpha virt. eigenvalues --    3.44957   3.45301   3.46361   3.46800   3.47176
 Alpha virt. eigenvalues --    3.47878   3.48615   3.49098   3.49433   3.50105
 Alpha virt. eigenvalues --    3.50341   3.51335   3.51566   3.52216   3.52579
 Alpha virt. eigenvalues --    3.52913   3.53439   3.54496   3.55122   3.56201
 Alpha virt. eigenvalues --    3.56256   3.56667   3.57975   3.58844   3.59467
 Alpha virt. eigenvalues --    3.59744   3.60012   3.60569   3.63055   3.63652
 Alpha virt. eigenvalues --    3.63768   3.64416   3.65577   3.66015   3.66856
 Alpha virt. eigenvalues --    3.68129   3.68373   3.69222   3.69761   3.70289
 Alpha virt. eigenvalues --    3.71226   3.71617   3.72500   3.72828   3.74173
 Alpha virt. eigenvalues --    3.74494   3.75717   3.75821   3.76824   3.77127
 Alpha virt. eigenvalues --    3.78182   3.78570   3.79225   3.80125   3.81143
 Alpha virt. eigenvalues --    3.81932   3.82199   3.82788   3.83276   3.83389
 Alpha virt. eigenvalues --    3.83635   3.84363   3.85208   3.85877   3.86219
 Alpha virt. eigenvalues --    3.86887   3.87309   3.87718   3.88307   3.89038
 Alpha virt. eigenvalues --    3.89453   3.90086   3.90631   3.91360   3.92073
 Alpha virt. eigenvalues --    3.92402   3.93460   3.94045   3.95089   3.95615
 Alpha virt. eigenvalues --    3.96095   3.96899   3.97294   3.97684   3.98352
 Alpha virt. eigenvalues --    3.98717   3.99511   4.00237   4.00990   4.01371
 Alpha virt. eigenvalues --    4.02057   4.03337   4.04050   4.04643   4.04888
 Alpha virt. eigenvalues --    4.05376   4.06285   4.06797   4.06925   4.07671
 Alpha virt. eigenvalues --    4.09150   4.09869   4.10501   4.10762   4.11837
 Alpha virt. eigenvalues --    4.12483   4.12810   4.13421   4.13749   4.14368
 Alpha virt. eigenvalues --    4.14900   4.15245   4.15687   4.17242   4.17568
 Alpha virt. eigenvalues --    4.18290   4.18937   4.20354   4.20926   4.21237
 Alpha virt. eigenvalues --    4.22073   4.22652   4.22813   4.23858   4.24572
 Alpha virt. eigenvalues --    4.24762   4.25931   4.27538   4.28612   4.29753
 Alpha virt. eigenvalues --    4.29956   4.30716   4.31199   4.32539   4.33360
 Alpha virt. eigenvalues --    4.33646   4.34022   4.35035   4.35347   4.35711
 Alpha virt. eigenvalues --    4.37332   4.37527   4.38911   4.39177   4.39430
 Alpha virt. eigenvalues --    4.39952   4.40461   4.41012   4.41824   4.42811
 Alpha virt. eigenvalues --    4.43493   4.43977   4.45648   4.45945   4.46351
 Alpha virt. eigenvalues --    4.46901   4.47328   4.47821   4.48816   4.49166
 Alpha virt. eigenvalues --    4.50210   4.51838   4.52200   4.52608   4.53246
 Alpha virt. eigenvalues --    4.53657   4.54397   4.54735   4.55488   4.56396
 Alpha virt. eigenvalues --    4.56780   4.57529   4.57855   4.58254   4.59729
 Alpha virt. eigenvalues --    4.60007   4.60520   4.60723   4.61177   4.61800
 Alpha virt. eigenvalues --    4.62478   4.62746   4.63666   4.64384   4.64845
 Alpha virt. eigenvalues --    4.66367   4.66386   4.68285   4.68973   4.70045
 Alpha virt. eigenvalues --    4.70715   4.71259   4.71481   4.72378   4.73438
 Alpha virt. eigenvalues --    4.73817   4.74179   4.74555   4.76322   4.77073
 Alpha virt. eigenvalues --    4.77591   4.78426   4.78693   4.79841   4.80225
 Alpha virt. eigenvalues --    4.81991   4.82966   4.83587   4.83913   4.85138
 Alpha virt. eigenvalues --    4.86358   4.87070   4.87510   4.88211   4.89847
 Alpha virt. eigenvalues --    4.90124   4.90668   4.91361   4.91742   4.92601
 Alpha virt. eigenvalues --    4.93943   4.95181   4.95474   4.96251   4.96499
 Alpha virt. eigenvalues --    4.97619   4.99619   5.00085   5.01785   5.02810
 Alpha virt. eigenvalues --    5.03321   5.04679   5.05129   5.05952   5.06849
 Alpha virt. eigenvalues --    5.07260   5.08540   5.09027   5.10291   5.10942
 Alpha virt. eigenvalues --    5.12558   5.14474   5.15364   5.15929   5.16391
 Alpha virt. eigenvalues --    5.16989   5.17809   5.19643   5.20675   5.21248
 Alpha virt. eigenvalues --    5.22224   5.22962   5.24308   5.25287   5.26262
 Alpha virt. eigenvalues --    5.26683   5.27297   5.28239   5.29041   5.29537
 Alpha virt. eigenvalues --    5.31096   5.31746   5.32223   5.33317   5.34565
 Alpha virt. eigenvalues --    5.35869   5.36424   5.37554   5.38772   5.39054
 Alpha virt. eigenvalues --    5.39812   5.40889   5.41553   5.42173   5.43049
 Alpha virt. eigenvalues --    5.44685   5.44976   5.45972   5.46296   5.46708
 Alpha virt. eigenvalues --    5.47196   5.48537   5.49599   5.50425   5.52274
 Alpha virt. eigenvalues --    5.52539   5.54013   5.54188   5.55699   5.55973
 Alpha virt. eigenvalues --    5.57056   5.58154   5.59010   5.59908   5.60820
 Alpha virt. eigenvalues --    5.62068   5.62721   5.64590   5.65387   5.65791
 Alpha virt. eigenvalues --    5.66738   5.67298   5.68288   5.69829   5.71123
 Alpha virt. eigenvalues --    5.72592   5.72876   5.73970   5.75039   5.75488
 Alpha virt. eigenvalues --    5.76713   5.77135   5.77730   5.79044   5.80929
 Alpha virt. eigenvalues --    5.81395   5.82284   5.83574   5.83810   5.84699
 Alpha virt. eigenvalues --    5.86769   5.87815   5.88661   5.92228   5.92879
 Alpha virt. eigenvalues --    5.94734   5.97672   5.99351   6.00548   6.06529
 Alpha virt. eigenvalues --    6.08727   6.09106   6.11569   6.13049   6.15011
 Alpha virt. eigenvalues --    6.17320   6.22402   6.26136   6.30879   6.31195
 Alpha virt. eigenvalues --    6.32646   6.33977   6.36985   6.37614   6.39783
 Alpha virt. eigenvalues --    6.43684   6.45201   6.50668   6.51376   6.51670
 Alpha virt. eigenvalues --    6.55504   6.55674   6.57033   6.58531   6.60164
 Alpha virt. eigenvalues --    6.61939   6.66369   6.69691  11.38336  12.10287
 Alpha virt. eigenvalues --   12.27130  12.33082  12.59751  12.76674  13.10008
 Alpha virt. eigenvalues --   13.25274  13.33360  13.51075  13.67208  13.71281
 Alpha virt. eigenvalues --   13.88840  14.05771  14.14514  14.38321
          Condensed to atoms (all electrons):
              1          2          3          4          5          6
     1  C    4.919013   0.350420  -0.046558   0.005026  -0.038367   0.334082
     2  C    0.350420   4.926040   0.342022  -0.027920  -0.003006  -0.041073
     3  C   -0.046558   0.342022   4.967312   0.333788  -0.028036   0.000117
     4  C    0.005026  -0.027920   0.333788   4.864038   0.380360  -0.049762
     5  C   -0.038367  -0.003006  -0.028036   0.380360   4.875372   0.322621
     6  C    0.334082  -0.041073   0.000117  -0.049762   0.322621   4.976397
     7  C    0.000144   0.003208  -0.008272  -0.030936   0.339558  -0.039619
     8  C   -0.035746  -0.000006  -0.041209  -0.001000  -0.038456   0.001925
     9  C    0.001652  -0.053074   0.339997  -0.032640  -0.007528   0.002916
    10  C    0.341513  -0.046971   0.004295   0.001958   0.005176  -0.053230
    11  C   -0.001992  -0.011034  -0.038726   0.348022  -0.056079  -0.002106
    12  C    0.000283   0.000657  -0.002389  -0.036214   0.004739  -0.000676
    13  C   -0.000022  -0.000010  -0.000886  -0.012259   0.001126   0.000183
    14  C    0.000022  -0.000337   0.004782  -0.032990  -0.002111   0.000183
    15  N   -0.000280   0.002116  -0.033654   0.290829  -0.031218   0.006294
    16  C   -0.000059   0.000055  -0.010215  -0.023384   0.002868  -0.000347
    17  H    0.438281  -0.036802   0.007459  -0.001033   0.006638  -0.035873
    18  H   -0.035275   0.433803  -0.033732  -0.002286   0.001500  -0.004215
    19  H   -0.038204   0.441231  -0.034412   0.003885  -0.001303   0.006937
    20  H    0.006701  -0.035148   0.425498  -0.026985   0.007005  -0.001210
    21  H    0.007023  -0.000701   0.007656  -0.021325   0.422753  -0.043161
    22  H   -0.039036  -0.003443   0.001208  -0.004671  -0.035486   0.437951
    23  H   -0.038126   0.006553  -0.001477   0.006232  -0.031774   0.432602
    24  H    0.000114  -0.000083  -0.001150   0.006043  -0.036944  -0.005169
    25  H   -0.001242  -0.000251   0.001437  -0.006704  -0.039752   0.008437
    26  H    0.007434  -0.001449   0.007225  -0.001175   0.007085  -0.001472
    27  H    0.000073  -0.009100  -0.035749   0.004581  -0.001148   0.000120
    28  H   -0.001114   0.007014  -0.033412  -0.000659   0.001082  -0.000110
    29  H   -0.041216  -0.003016  -0.000534   0.000130  -0.001543   0.007152
    30  H   -0.038876   0.006725  -0.001612   0.000187  -0.000885  -0.004020
    31  H    0.000321   0.000298   0.005820  -0.037893  -0.007618  -0.001027
    32  H   -0.000434  -0.004052  -0.005754  -0.018096   0.000893  -0.007417
    33  H   -0.000003  -0.000119  -0.000117   0.005745  -0.000333   0.000058
    34  H   -0.000012   0.000255   0.000538  -0.000100  -0.000191   0.000036
    35  H    0.000000   0.000010  -0.000001  -0.000416   0.000045  -0.000009
    36  H    0.000000  -0.000027  -0.000050  -0.000921  -0.000098   0.000005
    37  H    0.000007   0.000015  -0.000060   0.003911  -0.001917  -0.000363
    38  H    0.000000   0.000014  -0.000198   0.006285  -0.000362   0.000002
    39  H   -0.000001   0.000031  -0.000232   0.003577  -0.000533   0.000013
    40  H    0.000026   0.000103  -0.001802   0.007367  -0.000605  -0.000284
    41  H   -0.000070  -0.000291  -0.003023  -0.003984   0.000575   0.000227
              7          8          9         10         11         12
     1  C    0.000144  -0.035746   0.001652   0.341513  -0.001992   0.000283
     2  C    0.003208  -0.000006  -0.053074  -0.046971  -0.011034   0.000657
     3  C   -0.008272  -0.041209   0.339997   0.004295  -0.038726  -0.002389
     4  C   -0.030936  -0.001000  -0.032640   0.001958   0.348022  -0.036214
     5  C    0.339558  -0.038456  -0.007528   0.005176  -0.056079   0.004739
     6  C   -0.039619   0.001925   0.002916  -0.053230  -0.002106  -0.000676
     7  C    4.926090   0.342704  -0.037886  -0.047602   0.005201  -0.000202
     8  C    0.342704   4.929744   0.335877   0.337295  -0.000033  -0.000036
     9  C   -0.037886   0.335877   4.948171  -0.050712   0.002665   0.000171
    10  C   -0.047602   0.337295  -0.050712   4.919351   0.000043   0.000000
    11  C    0.005201  -0.000033   0.002665   0.000043   4.974170   0.327018
    12  C   -0.000202  -0.000036   0.000171   0.000000   0.327018   4.928912
    13  C   -0.000113   0.000019   0.000006  -0.000002  -0.038143   0.304467
    14  C   -0.000104   0.000001  -0.000275  -0.000006  -0.012632  -0.046552
    15  N   -0.014506   0.000579   0.002695  -0.000187  -0.044691   0.009017
    16  C   -0.002667   0.001676  -0.013269  -0.000052   0.006099  -0.002423
    17  H   -0.001494   0.007462  -0.001676  -0.038260  -0.000082  -0.000002
    18  H   -0.000009  -0.001262   0.007518   0.006845  -0.007362   0.000702
    19  H   -0.000021   0.000359  -0.008339  -0.005388   0.000583  -0.000101
    20  H   -0.000785   0.006220  -0.036179  -0.001228  -0.005697  -0.000223
    21  H   -0.030763   0.006627  -0.000868  -0.001231  -0.006133  -0.000273
    22  H    0.006700  -0.001062  -0.000049   0.007153  -0.003976   0.000356
    23  H   -0.006562  -0.000443  -0.000004  -0.004818   0.000141   0.000039
    24  H    0.437353  -0.041215   0.007059  -0.004087  -0.000334   0.000017
    25  H    0.430290  -0.037025  -0.001495   0.005952   0.000474  -0.000092
    26  H   -0.037274   0.441208  -0.037870  -0.038850   0.000055  -0.000001
    27  H    0.006274  -0.037241   0.443008  -0.005877  -0.000192  -0.000002
    28  H   -0.003385  -0.038995   0.440793   0.007359  -0.000252   0.000051
    29  H    0.006621  -0.040015  -0.004225   0.438531  -0.000001   0.000000
    30  H   -0.002576  -0.040399   0.007484   0.436103  -0.000004   0.000000
    31  H    0.000375  -0.000017  -0.000117  -0.000011   0.433235  -0.028085
    32  H   -0.000271  -0.000019  -0.000118  -0.000009   0.423751  -0.033110
    33  H    0.000010   0.000000   0.000011   0.000000  -0.034986   0.430860
    34  H    0.000007  -0.000012   0.000235  -0.000002  -0.040387   0.431621
    35  H    0.000000   0.000000  -0.000003   0.000000   0.004053  -0.036710
    36  H   -0.000002   0.000000   0.000015   0.000000   0.006251  -0.044763
    37  H    0.000036  -0.000008   0.000017   0.000004  -0.008595  -0.000538
    38  H    0.000047  -0.000001  -0.000006   0.000000  -0.001099   0.008236
    39  H    0.000381  -0.000108   0.000984   0.000002  -0.000921   0.000611
    40  H    0.003564  -0.000006  -0.010868   0.000051  -0.000428   0.000343
    41  H   -0.000819   0.000321  -0.003078  -0.000036   0.003924  -0.003883
             13         14         15         16         17         18
     1  C   -0.000022   0.000022  -0.000280  -0.000059   0.438281  -0.035275
     2  C   -0.000010  -0.000337   0.002116   0.000055  -0.036802   0.433803
     3  C   -0.000886   0.004782  -0.033654  -0.010215   0.007459  -0.033732
     4  C   -0.012259  -0.032990   0.290829  -0.023384  -0.001033  -0.002286
     5  C    0.001126  -0.002111  -0.031218   0.002868   0.006638   0.001500
     6  C    0.000183   0.000183   0.006294  -0.000347  -0.035873  -0.004215
     7  C   -0.000113  -0.000104  -0.014506  -0.002667  -0.001494  -0.000009
     8  C    0.000019   0.000001   0.000579   0.001676   0.007462  -0.001262
     9  C    0.000006  -0.000275   0.002695  -0.013269  -0.001676   0.007518
    10  C   -0.000002  -0.000006  -0.000187  -0.000052  -0.038260   0.006845
    11  C   -0.038143  -0.012632  -0.044691   0.006099  -0.000082  -0.007362
    12  C    0.304467  -0.046552   0.009017  -0.002423  -0.000002   0.000702
    13  C    5.007234   0.339019  -0.059460  -0.003889   0.000000  -0.000093
    14  C    0.339019   4.722247   0.358514  -0.065674  -0.000002   0.000001
    15  N   -0.059460   0.358514   6.638990   0.319804   0.000022  -0.000089
    16  C   -0.003889  -0.065674   0.319804   4.773648  -0.000001   0.000011
    17  H    0.000000  -0.000002   0.000022  -0.000001   0.589839  -0.005763
    18  H   -0.000093   0.000001  -0.000089   0.000011  -0.005763   0.577763
    19  H    0.000005   0.000009  -0.000095  -0.000027  -0.003594  -0.036315
    20  H   -0.000272   0.000549   0.001129  -0.003732  -0.000262  -0.005145
    21  H    0.000461  -0.000083  -0.000508  -0.000255  -0.000298  -0.000142
    22  H   -0.000023  -0.000023   0.000023  -0.000011  -0.005877   0.001660
    23  H   -0.000003   0.000003  -0.000239   0.000015  -0.003804  -0.000202
    24  H   -0.000005  -0.000025  -0.000460   0.000148  -0.000172   0.000005
    25  H    0.000244   0.000305   0.016974  -0.006064   0.000097   0.000001
    26  H   -0.000001   0.000002  -0.000068   0.000125  -0.000334   0.000096
    27  H    0.000003   0.000019  -0.000168   0.000603  -0.000284   0.000380
    28  H   -0.000042  -0.000107   0.000618  -0.010212   0.000088  -0.000289
    29  H    0.000000   0.000000  -0.000002   0.000002  -0.005505  -0.000109
    30  H    0.000000   0.000000   0.000004   0.000004  -0.004750  -0.000295
    31  H   -0.003021  -0.005936  -0.000359  -0.000459   0.000003   0.000485
    32  H    0.005627   0.001204   0.003075  -0.000168   0.000043  -0.006927
    33  H   -0.037471   0.004430  -0.000686  -0.000003  -0.000001   0.000014
    34  H   -0.044625   0.005302  -0.000021  -0.000040  -0.000001   0.000979
    35  H    0.416304  -0.028147   0.005742   0.000039   0.000000   0.000004
    36  H    0.430274  -0.033188  -0.002842   0.001540   0.000000   0.000002
    37  H   -0.054878   0.432820  -0.038687   0.009562   0.000000   0.000000
    38  H   -0.051745   0.443920  -0.026059  -0.016458   0.000000  -0.000001
    39  H   -0.004027  -0.012147  -0.025215   0.422923   0.000000  -0.000001
    40  H   -0.001762   0.006263  -0.056536   0.423495   0.000000  -0.000002
    41  H    0.007584  -0.001419  -0.056678   0.422278   0.000000  -0.000028
             19         20         21         22         23         24
     1  C   -0.038204   0.006701   0.007023  -0.039036  -0.038126   0.000114
     2  C    0.441231  -0.035148  -0.000701  -0.003443   0.006553  -0.000083
     3  C   -0.034412   0.425498   0.007656   0.001208  -0.001477  -0.001150
     4  C    0.003885  -0.026985  -0.021325  -0.004671   0.006232   0.006043
     5  C   -0.001303   0.007005   0.422753  -0.035486  -0.031774  -0.036944
     6  C    0.006937  -0.001210  -0.043161   0.437951   0.432602  -0.005169
     7  C   -0.000021  -0.000785  -0.030763   0.006700  -0.006562   0.437353
     8  C    0.000359   0.006220   0.006627  -0.001062  -0.000443  -0.041215
     9  C   -0.008339  -0.036179  -0.000868  -0.000049  -0.000004   0.007059
    10  C   -0.005388  -0.001228  -0.001231   0.007153  -0.004818  -0.004087
    11  C    0.000583  -0.005697  -0.006133  -0.003976   0.000141  -0.000334
    12  C   -0.000101  -0.000223  -0.000273   0.000356   0.000039   0.000017
    13  C    0.000005  -0.000272   0.000461  -0.000023  -0.000003  -0.000005
    14  C    0.000009   0.000549  -0.000083  -0.000023   0.000003  -0.000025
    15  N   -0.000095   0.001129  -0.000508   0.000023  -0.000239  -0.000460
    16  C   -0.000027  -0.003732  -0.000255  -0.000011   0.000015   0.000148
    17  H   -0.003594  -0.000262  -0.000298  -0.005877  -0.003804  -0.000172
    18  H   -0.036315  -0.005145  -0.000142   0.001660  -0.000202   0.000005
    19  H    0.572970  -0.004840   0.000115  -0.000224  -0.000338  -0.000003
    20  H   -0.004840   0.580199  -0.000402  -0.000146   0.000117   0.000125
    21  H    0.000115  -0.000402   0.591947  -0.004675  -0.005433  -0.006361
    22  H   -0.000224  -0.000146  -0.004675   0.576467  -0.033090  -0.000043
    23  H   -0.000338   0.000117  -0.005433  -0.033090   0.576015   0.001968
    24  H   -0.000003   0.000125  -0.006361  -0.000043   0.001968   0.577697
    25  H    0.000022  -0.000359  -0.003262  -0.000229  -0.000226  -0.031845
    26  H   -0.000278  -0.000274  -0.000295   0.000100  -0.000246  -0.004864
    27  H   -0.000086  -0.004090   0.000104   0.000008  -0.000004  -0.000351
    28  H    0.000331  -0.004394  -0.000057   0.000004   0.000006  -0.000179
    29  H    0.002467  -0.000125   0.000105  -0.000329   0.000082  -0.000044
    30  H    0.000016   0.000101  -0.000174  -0.000004   0.002227   0.002437
    31  H    0.000034  -0.000433   0.001729   0.000790  -0.000318  -0.000062
    32  H    0.000436   0.001224   0.000319  -0.006434   0.000472   0.000016
    33  H   -0.000002   0.000022   0.000005   0.000016  -0.000001  -0.000001
    34  H    0.000010  -0.002547  -0.000022   0.000008   0.000000   0.000000
    35  H    0.000000   0.000025  -0.000017   0.000001   0.000000   0.000000
    36  H   -0.000001   0.000019  -0.000009   0.000001   0.000000   0.000000
    37  H   -0.000001   0.000043  -0.000117  -0.000069   0.000019   0.000020
    38  H    0.000000   0.000000  -0.000100  -0.000001  -0.000001   0.000000
    39  H    0.000000   0.000033  -0.000019  -0.000001  -0.000001  -0.000004
    40  H   -0.000012   0.001215  -0.000182  -0.000005   0.000010   0.000182
    41  H    0.000058  -0.007256   0.000115   0.000006  -0.000004  -0.000024
             25         26         27         28         29         30
     1  C   -0.001242   0.007434   0.000073  -0.001114  -0.041216  -0.038876
     2  C   -0.000251  -0.001449  -0.009100   0.007014  -0.003016   0.006725
     3  C    0.001437   0.007225  -0.035749  -0.033412  -0.000534  -0.001612
     4  C   -0.006704  -0.001175   0.004581  -0.000659   0.000130   0.000187
     5  C   -0.039752   0.007085  -0.001148   0.001082  -0.001543  -0.000885
     6  C    0.008437  -0.001472   0.000120  -0.000110   0.007152  -0.004020
     7  C    0.430290  -0.037274   0.006274  -0.003385   0.006621  -0.002576
     8  C   -0.037025   0.441208  -0.037241  -0.038995  -0.040015  -0.040399
     9  C   -0.001495  -0.037870   0.443008   0.440793  -0.004225   0.007484
    10  C    0.005952  -0.038850  -0.005877   0.007359   0.438531   0.436103
    11  C    0.000474   0.000055  -0.000192  -0.000252  -0.000001  -0.000004
    12  C   -0.000092  -0.000001  -0.000002   0.000051   0.000000   0.000000
    13  C    0.000244  -0.000001   0.000003  -0.000042   0.000000   0.000000
    14  C    0.000305   0.000002   0.000019  -0.000107   0.000000   0.000000
    15  N    0.016974  -0.000068  -0.000168   0.000618  -0.000002   0.000004
    16  C   -0.006064   0.000125   0.000603  -0.010212   0.000002   0.000004
    17  H    0.000097  -0.000334  -0.000284   0.000088  -0.005505  -0.004750
    18  H    0.000001   0.000096   0.000380  -0.000289  -0.000109  -0.000295
    19  H    0.000022  -0.000278  -0.000086   0.000331   0.002467   0.000016
    20  H   -0.000359  -0.000274  -0.004090  -0.004394  -0.000125   0.000101
    21  H   -0.003262  -0.000295   0.000104  -0.000057   0.000105  -0.000174
    22  H   -0.000229   0.000100   0.000008   0.000004  -0.000329  -0.000004
    23  H   -0.000226  -0.000246  -0.000004   0.000006   0.000082   0.002227
    24  H   -0.031845  -0.004864  -0.000351  -0.000179  -0.000044   0.002437
    25  H    0.563463  -0.004924  -0.000001   0.000609  -0.000298  -0.000053
    26  H   -0.004924   0.589872  -0.003201  -0.006373  -0.005360  -0.004828
    27  H   -0.000001  -0.003201   0.575806  -0.036497   0.002174   0.000087
    28  H    0.000609  -0.006373  -0.036497   0.562752  -0.000009  -0.000319
    29  H   -0.000298  -0.005360   0.002174  -0.000009   0.579389  -0.029200
    30  H   -0.000053  -0.004828   0.000087  -0.000319  -0.029200   0.578786
    31  H    0.000025  -0.000001   0.000017   0.000006   0.000000  -0.000002
    32  H   -0.000062   0.000000  -0.000026  -0.000008   0.000007   0.000003
    33  H    0.000002   0.000000  -0.000001  -0.000001   0.000000   0.000000
    34  H    0.000002   0.000000   0.000011   0.000012   0.000000   0.000000
    35  H   -0.000007   0.000000   0.000000   0.000001   0.000000   0.000000
    36  H   -0.000002   0.000000  -0.000001  -0.000007   0.000000   0.000000
    37  H   -0.000342   0.000000  -0.000001   0.000008   0.000000   0.000000
    38  H   -0.000077   0.000000  -0.000001   0.000005   0.000000   0.000000
    39  H    0.000141  -0.000009  -0.000025   0.000987   0.000000   0.000000
    40  H   -0.007052   0.000115   0.000543  -0.007372   0.000000   0.000001
    41  H    0.001548  -0.000010   0.000246  -0.001615  -0.000003   0.000001
             31         32         33         34         35         36
     1  C    0.000321  -0.000434  -0.000003  -0.000012   0.000000   0.000000
     2  C    0.000298  -0.004052  -0.000119   0.000255   0.000010  -0.000027
     3  C    0.005820  -0.005754  -0.000117   0.000538  -0.000001  -0.000050
     4  C   -0.037893  -0.018096   0.005745  -0.000100  -0.000416  -0.000921
     5  C   -0.007618   0.000893  -0.000333  -0.000191   0.000045  -0.000098
     6  C   -0.001027  -0.007417   0.000058   0.000036  -0.000009   0.000005
     7  C    0.000375  -0.000271   0.000010   0.000007   0.000000  -0.000002
     8  C   -0.000017  -0.000019   0.000000  -0.000012   0.000000   0.000000
     9  C   -0.000117  -0.000118   0.000011   0.000235  -0.000003   0.000015
    10  C   -0.000011  -0.000009   0.000000  -0.000002   0.000000   0.000000
    11  C    0.433235   0.423751  -0.034986  -0.040387   0.004053   0.006251
    12  C   -0.028085  -0.033110   0.430860   0.431621  -0.036710  -0.044763
    13  C   -0.003021   0.005627  -0.037471  -0.044625   0.416304   0.430274
    14  C   -0.005936   0.001204   0.004430   0.005302  -0.028147  -0.033188
    15  N   -0.000359   0.003075  -0.000686  -0.000021   0.005742  -0.002842
    16  C   -0.000459  -0.000168  -0.000003  -0.000040   0.000039   0.001540
    17  H    0.000003   0.000043  -0.000001  -0.000001   0.000000   0.000000
    18  H    0.000485  -0.006927   0.000014   0.000979   0.000004   0.000002
    19  H    0.000034   0.000436  -0.000002   0.000010   0.000000  -0.000001
    20  H   -0.000433   0.001224   0.000022  -0.002547   0.000025   0.000019
    21  H    0.001729   0.000319   0.000005  -0.000022  -0.000017  -0.000009
    22  H    0.000790  -0.006434   0.000016   0.000008   0.000001   0.000001
    23  H   -0.000318   0.000472  -0.000001   0.000000   0.000000   0.000000
    24  H   -0.000062   0.000016  -0.000001   0.000000   0.000000   0.000000
    25  H    0.000025  -0.000062   0.000002   0.000002  -0.000007  -0.000002
    26  H   -0.000001   0.000000   0.000000   0.000000   0.000000   0.000000
    27  H    0.000017  -0.000026  -0.000001   0.000011   0.000000  -0.000001
    28  H    0.000006  -0.000008  -0.000001   0.000012   0.000001  -0.000007
    29  H    0.000000   0.000007   0.000000   0.000000   0.000000   0.000000
    30  H   -0.000002   0.000003   0.000000   0.000000   0.000000   0.000000
    31  H    0.583221  -0.039266  -0.006142   0.006493   0.000649  -0.000266
    32  H   -0.039266   0.580097  -0.004105  -0.007907  -0.000302  -0.000263
    33  H   -0.006142  -0.004105   0.577300  -0.031061  -0.012662   0.004791
    34  H    0.006493  -0.007907  -0.031061   0.596848   0.004679  -0.011099
    35  H    0.000649  -0.000302  -0.012662   0.004679   0.586844  -0.032632
    36  H   -0.000266  -0.000263   0.004791  -0.011099  -0.032632   0.593838
    37  H   -0.007642   0.000642   0.000499  -0.000311  -0.003346   0.006160
    38  H    0.000339   0.000081  -0.000392  -0.000289  -0.001372  -0.007065
    39  H    0.000002   0.000021   0.000002  -0.000032  -0.000180   0.000659
    40  H    0.000009   0.000039  -0.000005  -0.000035   0.000092   0.000159
    41  H   -0.000003  -0.000221   0.000051   0.000515  -0.000481  -0.003502
             37         38         39         40         41
     1  C    0.000007   0.000000  -0.000001   0.000026  -0.000070
     2  C    0.000015   0.000014   0.000031   0.000103  -0.000291
     3  C   -0.000060  -0.000198  -0.000232  -0.001802  -0.003023
     4  C    0.003911   0.006285   0.003577   0.007367  -0.003984
     5  C   -0.001917  -0.000362  -0.000533  -0.000605   0.000575
     6  C   -0.000363   0.000002   0.000013  -0.000284   0.000227
     7  C    0.000036   0.000047   0.000381   0.003564  -0.000819
     8  C   -0.000008  -0.000001  -0.000108  -0.000006   0.000321
     9  C    0.000017  -0.000006   0.000984  -0.010868  -0.003078
    10  C    0.000004   0.000000   0.000002   0.000051  -0.000036
    11  C   -0.008595  -0.001099  -0.000921  -0.000428   0.003924
    12  C   -0.000538   0.008236   0.000611   0.000343  -0.003883
    13  C   -0.054878  -0.051745  -0.004027  -0.001762   0.007584
    14  C    0.432820   0.443920  -0.012147   0.006263  -0.001419
    15  N   -0.038687  -0.026059  -0.025215  -0.056536  -0.056678
    16  C    0.009562  -0.016458   0.422923   0.423495   0.422278
    17  H    0.000000   0.000000   0.000000   0.000000   0.000000
    18  H    0.000000  -0.000001  -0.000001  -0.000002  -0.000028
    19  H   -0.000001   0.000000   0.000000  -0.000012   0.000058
    20  H    0.000043   0.000000   0.000033   0.001215  -0.007256
    21  H   -0.000117  -0.000100  -0.000019  -0.000182   0.000115
    22  H   -0.000069  -0.000001  -0.000001  -0.000005   0.000006
    23  H    0.000019  -0.000001  -0.000001   0.000010  -0.000004
    24  H    0.000020   0.000000  -0.000004   0.000182  -0.000024
    25  H   -0.000342  -0.000077   0.000141  -0.007052   0.001548
    26  H    0.000000   0.000000  -0.000009   0.000115  -0.000010
    27  H   -0.000001  -0.000001  -0.000025   0.000543   0.000246
    28  H    0.000008   0.000005   0.000987  -0.007372  -0.001615
    29  H    0.000000   0.000000   0.000000   0.000000  -0.000003
    30  H    0.000000   0.000000   0.000000   0.000001   0.000001
    31  H   -0.007642   0.000339   0.000002   0.000009  -0.000003
    32  H    0.000642   0.000081   0.000021   0.000039  -0.000221
    33  H    0.000499  -0.000392   0.000002  -0.000005   0.000051
    34  H   -0.000311  -0.000289  -0.000032  -0.000035   0.000515
    35  H   -0.003346  -0.001372  -0.000180   0.000092  -0.000481
    36  H    0.006160  -0.007065   0.000659   0.000159  -0.003502
    37  H    0.623042  -0.040521   0.001060   0.000110  -0.001298
    38  H   -0.040521   0.589206  -0.000118   0.000955  -0.000172
    39  H    0.001060  -0.000118   0.580197  -0.034668  -0.038825
    40  H    0.000110   0.000955  -0.034668   0.636235  -0.052805
    41  H   -0.001298  -0.000172  -0.038825  -0.052805   0.664094
 Mulliken atomic charges:
              1
     1  C   -0.055503
     2  C   -0.242656
     3  C   -0.085897
     4  C    0.101390
     5  C   -0.014105
     6  C   -0.247114
     7  C   -0.242695
     8  C   -0.057704
     9  C   -0.240995
    10  C   -0.213073
    11  C   -0.219801
    12  C   -0.211827
    13  C   -0.199805
    14  C   -0.077839
    15  N   -0.263721
    16  C   -0.225483
    17  H    0.095935
    18  H    0.107769
    19  H    0.104116
    20  H    0.111509
    21  H    0.087908
    22  H    0.106457
    23  H    0.100611
    24  H    0.100240
    25  H    0.111339
    26  H    0.095836
    27  H    0.099987
    28  H    0.123683
    29  H    0.094873
    30  H    0.093831
    31  H    0.104825
    32  H    0.117019
    33  H    0.104275
    34  H    0.091145
    35  H    0.097797
    36  H    0.093024
    37  H    0.080721
    38  H    0.096949
    39  H    0.105442
    40  H    0.093553
    41  H    0.077984
 Sum of Mulliken atomic charges =   0.00000
 Mulliken charges with hydrogens summed into heavy atoms:
              1
     1  C    0.040432
     2  C   -0.030771
     3  C    0.025612
     4  C    0.101390
     5  C    0.073803
     6  C   -0.040045
     7  C   -0.031116
     8  C    0.038132
     9  C   -0.017325
    10  C   -0.024368
    11  C    0.002042
    12  C   -0.016407
    13  C   -0.008984
    14  C    0.099830
    15  N   -0.263721
    16  C    0.051496
 Sum of Mulliken charges with hydrogens summed into heavy atoms =   0.00000
 Electronic spatial extent (au):  <R**2>=           3156.8771
 Charge=              0.0000 electrons
 Dipole moment (field-independent basis, Debye):
    X=             -0.5073    Y=             -0.3963    Z=             -0.6334  Tot=              0.9031
 Quadrupole moment (field-independent basis, Debye-Ang):
   XX=           -101.5107   YY=           -101.9833   ZZ=           -103.0823
   XY=             -0.0103   XZ=             -0.2740   YZ=             -1.5178
 Traceless Quadrupole moment (field-independent basis, Debye-Ang):
   XX=              0.6814   YY=              0.2088   ZZ=             -0.8902
   XY=             -0.0103   XZ=             -0.2740   YZ=             -1.5178
 Octapole moment (field-independent basis, Debye-Ang**2):
  XXX=            -12.6051  YYY=              4.0617  ZZZ=             -0.3887  XYY=             -4.7018
  XXY=              2.8841  XXZ=              4.0103  XZZ=             -0.2560  YZZ=             -1.2990
  YYZ=             -0.9908  XYZ=              2.7041
 Hexadecapole moment (field-independent basis, Debye-Ang**3):
 XXXX=          -2717.9587 YYYY=          -1024.9807 ZZZZ=           -691.0637 XXXY=            -10.4832
 XXXZ=            -17.4064 YYYX=             -7.3659 YYYZ=             -2.2768 ZZZX=             -3.1538
 ZZZY=             -2.1119 XXYY=           -616.6992 XXZZ=           -558.9417 YYZZ=           -300.4495
 XXYZ=             -3.1852 YYXZ=             -4.1838 ZZXY=              0.8494
 N-N= 1.286208477320D+03 E-N=-4.055553239872D+03  KE= 6.356673378501D+02
 1\1\GINC-ROCK\SP\RMP2-FC\CC-pVTZ\C15H25N1\STYLIANAKIS\21-Jun-2016\0\\#
  mp2/cc-pVTZ\\N-Me-spiro[piperidine-2,2'-adamantane]-b.hin\\0,1\C,0,-2
 .66241,-0.88708,-0.82937\C,0,-2.59316,0.65142,-0.79731\C,0,-1.11517,1.
 12432,-0.86506\C,0,-0.27091,0.59418,0.34732\C,0,-0.36957,-0.96157,0.20
 508\C,0,-1.81695,-1.48597,0.30488\C,0,0.20362,-1.43565,-1.14749\C,0,-0
 .65345,-0.89791,-2.3053\C,0,-0.66675,0.63671,-2.26357\C,0,-2.10001,-1.
 39875,-2.16599\C,0,-0.93827,0.97694,1.70652\C,0,-0.67019,2.43526,2.103
 67\C,0,0.83527,2.71985,2.11566\C,0,1.60205,1.45435,1.71895\N,0,1.18811
 ,0.91216,0.42463\X,0,1.47573,0.38847,0.36556\C,0,1.72171,1.78074,-0.61
 66\H,0,-3.72459,-1.22127,-0.72517\H,0,-3.1382,1.05639,0.08305\H,0,-3.1
 7337,1.06224,-1.65748\H,0,-1.11866,2.23976,-0.84994\H,0,0.22799,-1.436
 37,1.02231\H,0,-2.27567,-1.26648,1.29516\H,0,-1.82321,-2.59952,0.23301
 \H,0,0.21882,-2.55084,-1.18401\H,0,1.2631,-1.11307,-1.2704\H,0,-0.2348
 5,-1.24827,-3.28155\H,0,-1.35327,1.02718,-3.05177\H,0,0.31132,1.0382,-
 2.58995\H,0,-2.72379,-1.03059,-3.01485\H,0,-2.13245,-2.51329,-2.20762\
 H,0,-0.59566,0.3013,2.52439\H,0,-2.03827,0.83942,1.73158\H,0,-1.11448,
 2.64536,3.10663\H,0,-1.18127,3.11693,1.38311\H,0,1.1589,3.04172,3.1347
 2\H,0,1.08333,3.56325,1.42874\H,0,1.50164,0.66698,2.50241\H,0,2.69979,
 1.65731,1.73441\H,0,2.73398,2.16901,-0.36109\H,0,1.93426,1.20005,-1.53
 789\H,0,1.07881,2.6668,-0.81531\\Version=EM64L-G09RevA.01\State=1-A\HF
 =-637.1822541\MP2=-639.9749153\RMSD=5.505e-09\PG=C01 [X(C15H25N1)]\\@


 THE PROGRESS OF RIVERS TO THE SEA IS NOT AS RAPID
 AS THAT OF MAN TO ERROR.
                                              -- VOLTAIRE
 Job cpu time:  2 days 12 hours 41 minutes 59.8 seconds.
 File lengths (MBytes):  RWF= 291386 Int=      0 D2E=      0 Chk=     30 Scr=      1
 Normal termination of Gaussian 09 at Tue Jun 21 23:30:47 2016.
