c7031 1404391 SLURM_STEP_IDnodef 0 0 1 24 SLURM_MEM_PER_CPUnodef 122880
/mnt/lustre/scratch/slurm/1404391/uviqopsc.l8CiDenm2Z
OMP_STACKSIZE=128m
-P- 24
-M- 114688MB
 Entering Gaussian System, Link 0=/opt/cesga/g09/e1/g09.exe
 Initial command:
 /opt/cesga/g09/e1/l1.exe "/mnt/lustre/scratch/slurm/1404391/uviqopsc.l8CiDenm2Z/Gau-29243.inp" -scrdir="/mnt/lustre/scratch/slurm/1404391/uviqopsc.l8CiDenm2Z/"
 Default is to use a total of  24 processors:
                               24 via shared-memory
                                1 via Linda
 Entering Link 1 = /opt/cesga/g09/e1/l1.exe PID=     29268.
  
 Copyright (c) 1988,1990,1992,1993,1995,1998,2003,2009,2015,
            Gaussian, Inc.  All Rights Reserved.
  
 This is part of the Gaussian(R) 09 program.  It is based on
 the Gaussian(R) 03 system (copyright 2003, Gaussian, Inc.),
 the Gaussian(R) 98 system (copyright 1998, Gaussian, Inc.),
 the Gaussian(R) 94 system (copyright 1995, Gaussian, Inc.),
 the Gaussian 92(TM) system (copyright 1992, Gaussian, Inc.),
 the Gaussian 90(TM) system (copyright 1990, Gaussian, Inc.),
 the Gaussian 88(TM) system (copyright 1988, Gaussian, Inc.),
 the Gaussian 86(TM) system (copyright 1986, Carnegie Mellon
 University), and the Gaussian 82(TM) system (copyright 1983,
 Carnegie Mellon University). Gaussian is a federally registered
 trademark of Gaussian, Inc.
  
 This software contains proprietary and confidential information,
 including trade secrets, belonging to Gaussian, Inc.
  
 This software is provided under written license and may be
 used, copied, transmitted, or stored only in accord with that
 written license.
  
 The following legend is applicable only to US Government
 contracts under FAR:
  
                    RESTRICTED RIGHTS LEGEND
  
 Use, reproduction and disclosure by the US Government is
 subject to restrictions as set forth in subparagraphs (a)
 and (c) of the Commercial Computer Software - Restricted
 Rights clause in FAR 52.227-19.
  
 Gaussian, Inc.
 340 Quinnipiac St., Bldg. 40, Wallingford CT 06492
  
  
 ---------------------------------------------------------------
 Warning -- This program may not be used in any manner that
 competes with the business of Gaussian, Inc. or will provide
 assistance to any competitor of Gaussian, Inc.  The licensee
 of this program is prohibited from giving any competitor of
 Gaussian, Inc. access to this program.  By using this program,
 the user acknowledges that Gaussian, Inc. is engaged in the
 business of creating and licensing software in the field of
 computational chemistry and represents and warrants to the
 licensee that it is not a competitor of Gaussian, Inc. and that
 it will not use this program in any manner prohibited above.
 ---------------------------------------------------------------
  

 Cite this work as:
 Gaussian 09, Revision E.01,
 M. J. Frisch, G. W. Trucks, H. B. Schlegel, G. E. Scuseria, 
 M. A. Robb, J. R. Cheeseman, G. Scalmani, V. Barone, B. Mennucci, 
 G. A. Petersson, H. Nakatsuji, M. Caricato, X. Li, H. P. Hratchian, 
 A. F. Izmaylov, J. Bloino, G. Zheng, J. L. Sonnenberg, M. Hada, 
 M. Ehara, K. Toyota, R. Fukuda, J. Hasegawa, M. Ishida, T. Nakajima, 
 Y. Honda, O. Kitao, H. Nakai, T. Vreven, J. A. Montgomery, Jr., 
 J. E. Peralta, F. Ogliaro, M. Bearpark, J. J. Heyd, E. Brothers, 
 K. N. Kudin, V. N. Staroverov, T. Keith, R. Kobayashi, J. Normand, 
 K. Raghavachari, A. Rendell, J. C. Burant, S. S. Iyengar, J. Tomasi, 
 M. Cossi, N. Rega, J. M. Millam, M. Klene, J. E. Knox, J. B. Cross, 
 V. Bakken, C. Adamo, J. Jaramillo, R. Gomperts, R. E. Stratmann, 
 O. Yazyev, A. J. Austin, R. Cammi, C. Pomelli, J. W. Ochterski, 
 R. L. Martin, K. Morokuma, V. G. Zakrzewski, G. A. Voth, 
 P. Salvador, J. J. Dannenberg, S. Dapprich, A. D. Daniels, 
 O. Farkas, J. B. Foresman, J. V. Ortiz, J. Cioslowski, 
 and D. J. Fox, Gaussian, Inc., Wallingford CT, 2013.
 
 ******************************************
 Gaussian 09:  ES64L-G09RevE.01 30-Nov-2015
                17-Jul-2018 
 ******************************************
 Default route:  SCF=Direct
 ------------------------------
 # opt=modredundant mp2/cc-pVTZ
 ------------------------------
 1/18=120,19=15,38=1/1,3;
 2/9=110,12=2,17=6,18=5,40=1/2;
 3/5=16,6=1,11=9,16=1,25=1,30=1,71=1/1,2,3;
 4//1;
 5/5=2,38=5/2;
 8/6=4,10=1/1;
 9/15=2,16=-3/6;
 10/5=1/2;
 6/7=2,8=2,9=2,10=2/1;
 7/12=2/1,2,3,16;
 1/18=20,19=15/3(2);
 2/9=110/2;
 99//99;
 2/9=110/2;
 3/5=16,6=1,11=9,16=1,25=1,30=1,71=1/1,2,3;
 4/5=5,16=3,69=1/1;
 5/5=2,38=5/2;
 8/6=4,10=1/1;
 9/15=2,16=-3/6;
 10/5=1/2;
 7/12=2/1,2,3,16;
 1/18=20,19=15/3(-8);
 2/9=110/2;
 6/7=2,8=2,9=2,10=2/1;
 99//99;
 -----------------------
 N-me-piperidine-sofa-eq
 -----------------------
 Symbolic Z-matrix:
 Charge =  0 Multiplicity = 1
 C                    -1.24188  -1.12405  -0.48479 
 C                    -0.05788  -1.93705   0.06321 
 C                     1.10413  -1.15605   0.69821 
 C                     0.96013   0.37095   0.73821 
 N                     0.20913   0.89495  -0.39079 
 C                    -1.15587   0.39895  -0.32979 
 H                    -2.20988  -1.49405  -0.06779 
 H                    -1.29888  -1.33405  -1.58079 
 H                     0.33113  -2.62605  -0.72479 
 H                    -0.46188  -2.62105   0.84721 
 H                     2.01412  -1.37805   0.09121 
 H                     1.33613  -1.54105   1.72021 
 H                     1.98013   0.82595   0.76621 
 H                     0.46313   0.66595   1.69321 
 C                     0.23213   2.35095  -0.39879 
 H                    -1.77488   0.87595  -1.12779 
 H                    -1.62188   0.69395   0.64121 
 H                    -0.31688   2.74595  -1.28479 
 H                    -0.22788   2.77495   0.52421 
 H                     1.27913   2.72495  -0.47979 
 
 The following ModRedundant input section has been read:
 D       6       1       2       3 F                                           
 

 GradGradGradGradGradGradGradGradGradGradGradGradGradGradGradGradGradGrad
 Berny optimization.
 Initialization pass.
                           ----------------------------
                           !    Initial Parameters    !
                           ! (Angstroms and Degrees)  !
 --------------------------                            --------------------------
 ! Name  Definition              Value          Derivative Info.                !
 --------------------------------------------------------------------------------
 ! R1    R(1,2)                  1.5372         estimate D2E/DX2                !
 ! R2    R(1,6)                  1.5333         estimate D2E/DX2                !
 ! R3    R(1,7)                  1.1171         estimate D2E/DX2                !
 ! R4    R(1,8)                  1.1174         estimate D2E/DX2                !
 ! R5    R(2,3)                  1.5373         estimate D2E/DX2                !
 ! R6    R(2,9)                  1.1167         estimate D2E/DX2                !
 ! R7    R(2,10)                 1.1161         estimate D2E/DX2                !
 ! R8    R(3,4)                  1.5343         estimate D2E/DX2                !
 ! R9    R(3,11)                 1.1162         estimate D2E/DX2                !
 ! R10   R(3,12)                 1.1165         estimate D2E/DX2                !
 ! R11   R(4,5)                  1.4537         estimate D2E/DX2                !
 ! R12   R(4,13)                 1.1172         estimate D2E/DX2                !
 ! R13   R(4,14)                 1.1163         estimate D2E/DX2                !
 ! R14   R(5,6)                  1.4536         estimate D2E/DX2                !
 ! R15   R(5,15)                 1.4562         estimate D2E/DX2                !
 ! R16   R(6,16)                 1.1169         estimate D2E/DX2                !
 ! R17   R(6,17)                 1.1167         estimate D2E/DX2                !
 ! R18   R(15,18)                1.1146         estimate D2E/DX2                !
 ! R19   R(15,19)                1.115          estimate D2E/DX2                !
 ! R20   R(15,20)                1.1147         estimate D2E/DX2                !
 ! A1    A(2,1,6)              116.4927         estimate D2E/DX2                !
 ! A2    A(2,1,7)              111.05           estimate D2E/DX2                !
 ! A3    A(2,1,8)              106.8311         estimate D2E/DX2                !
 ! A4    A(6,1,7)              109.8692         estimate D2E/DX2                !
 ! A5    A(6,1,8)              106.7798         estimate D2E/DX2                !
 ! A6    A(7,1,8)              105.0523         estimate D2E/DX2                !
 ! A7    A(1,2,3)              117.4343         estimate D2E/DX2                !
 ! A8    A(1,2,9)              110.0636         estimate D2E/DX2                !
 ! A9    A(1,2,10)             107.2009         estimate D2E/DX2                !
 ! A10   A(3,2,9)              109.9757         estimate D2E/DX2                !
 ! A11   A(3,2,10)             107.1447         estimate D2E/DX2                !
 ! A12   A(9,2,10)             104.1019         estimate D2E/DX2                !
 ! A13   A(2,3,4)              116.451          estimate D2E/DX2                !
 ! A14   A(2,3,11)             106.8918         estimate D2E/DX2                !
 ! A15   A(2,3,12)             111.0987         estimate D2E/DX2                !
 ! A16   A(4,3,11)             106.7768         estimate D2E/DX2                !
 ! A17   A(4,3,12)             109.8057         estimate D2E/DX2                !
 ! A18   A(11,3,12)            105.0585         estimate D2E/DX2                !
 ! A19   A(3,4,5)              112.7671         estimate D2E/DX2                !
 ! A20   A(3,4,13)             108.6803         estimate D2E/DX2                !
 ! A21   A(3,4,14)             109.0933         estimate D2E/DX2                !
 ! A22   A(5,4,13)             110.1402         estimate D2E/DX2                !
 ! A23   A(5,4,14)             109.826          estimate D2E/DX2                !
 ! A24   A(13,4,14)            106.1061         estimate D2E/DX2                !
 ! A25   A(4,5,6)              109.2407         estimate D2E/DX2                !
 ! A26   A(4,5,15)             110.8865         estimate D2E/DX2                !
 ! A27   A(6,5,15)             110.8692         estimate D2E/DX2                !
 ! A28   A(1,6,5)              112.7904         estimate D2E/DX2                !
 ! A29   A(1,6,16)             108.7171         estimate D2E/DX2                !
 ! A30   A(1,6,17)             109.0804         estimate D2E/DX2                !
 ! A31   A(5,6,16)             110.1645         estimate D2E/DX2                !
 ! A32   A(5,6,17)             109.768          estimate D2E/DX2                !
 ! A33   A(16,6,17)            106.0907         estimate D2E/DX2                !
 ! A34   A(5,15,18)            110.5431         estimate D2E/DX2                !
 ! A35   A(5,15,19)            111.6626         estimate D2E/DX2                !
 ! A36   A(5,15,20)            110.5296         estimate D2E/DX2                !
 ! A37   A(18,15,19)           108.665          estimate D2E/DX2                !
 ! A38   A(18,15,20)           106.6159         estimate D2E/DX2                !
 ! A39   A(19,15,20)           108.6656         estimate D2E/DX2                !
 ! D1    D(6,1,2,3)             -0.6631         Frozen                          !
 ! D2    D(6,1,2,9)           -127.4878         estimate D2E/DX2                !
 ! D3    D(6,1,2,10)           119.8935         estimate D2E/DX2                !
 ! D4    D(7,1,2,3)           -127.4422         estimate D2E/DX2                !
 ! D5    D(7,1,2,9)            105.733          estimate D2E/DX2                !
 ! D6    D(7,1,2,10)            -6.8857         estimate D2E/DX2                !
 ! D7    D(8,1,2,3)            118.5317         estimate D2E/DX2                !
 ! D8    D(8,1,2,9)             -8.293          estimate D2E/DX2                !
 ! D9    D(8,1,2,10)          -120.9117         estimate D2E/DX2                !
 ! D10   D(2,1,6,5)             31.8823         estimate D2E/DX2                !
 ! D11   D(2,1,6,16)           154.3718         estimate D2E/DX2                !
 ! D12   D(2,1,6,17)           -90.3609         estimate D2E/DX2                !
 ! D13   D(7,1,6,5)            159.2446         estimate D2E/DX2                !
 ! D14   D(7,1,6,16)           -78.2659         estimate D2E/DX2                !
 ! D15   D(7,1,6,17)            37.0014         estimate D2E/DX2                !
 ! D16   D(8,1,6,5)            -87.3403         estimate D2E/DX2                !
 ! D17   D(8,1,6,16)            35.1492         estimate D2E/DX2                !
 ! D18   D(8,1,6,17)           150.4165         estimate D2E/DX2                !
 ! D19   D(1,2,3,4)              0.6969         estimate D2E/DX2                !
 ! D20   D(1,2,3,11)          -118.513          estimate D2E/DX2                !
 ! D21   D(1,2,3,12)           127.3954         estimate D2E/DX2                !
 ! D22   D(9,2,3,4)            127.5644         estimate D2E/DX2                !
 ! D23   D(9,2,3,11)             8.3545         estimate D2E/DX2                !
 ! D24   D(9,2,3,12)          -105.7371         estimate D2E/DX2                !
 ! D25   D(10,2,3,4)          -119.8891         estimate D2E/DX2                !
 ! D26   D(10,2,3,11)          120.9011         estimate D2E/DX2                !
 ! D27   D(10,2,3,12)            6.8094         estimate D2E/DX2                !
 ! D28   D(2,3,4,5)            -31.9452         estimate D2E/DX2                !
 ! D29   D(2,3,4,13)          -154.3619         estimate D2E/DX2                !
 ! D30   D(2,3,4,14)            90.3656         estimate D2E/DX2                !
 ! D31   D(11,3,4,5)            87.3268         estimate D2E/DX2                !
 ! D32   D(11,3,4,13)          -35.0899         estimate D2E/DX2                !
 ! D33   D(11,3,4,14)         -150.3624         estimate D2E/DX2                !
 ! D34   D(12,3,4,5)          -159.2832         estimate D2E/DX2                !
 ! D35   D(12,3,4,13)           78.3001         estimate D2E/DX2                !
 ! D36   D(12,3,4,14)          -36.9724         estimate D2E/DX2                !
 ! D37   D(3,4,5,6)             64.2735         estimate D2E/DX2                !
 ! D38   D(3,4,5,15)          -173.2443         estimate D2E/DX2                !
 ! D39   D(13,4,5,6)          -174.1329         estimate D2E/DX2                !
 ! D40   D(13,4,5,15)          -51.6507         estimate D2E/DX2                !
 ! D41   D(14,4,5,6)           -57.6246         estimate D2E/DX2                !
 ! D42   D(14,4,5,15)           64.8576         estimate D2E/DX2                !
 ! D43   D(4,5,6,1)            -64.2462         estimate D2E/DX2                !
 ! D44   D(4,5,6,16)           174.0793         estimate D2E/DX2                !
 ! D45   D(4,5,6,17)            57.6097         estimate D2E/DX2                !
 ! D46   D(15,5,6,1)           173.2612         estimate D2E/DX2                !
 ! D47   D(15,5,6,16)           51.5867         estimate D2E/DX2                !
 ! D48   D(15,5,6,17)          -64.8829         estimate D2E/DX2                !
 ! D49   D(4,5,15,18)          178.1486         estimate D2E/DX2                !
 ! D50   D(4,5,15,19)          -60.748          estimate D2E/DX2                !
 ! D51   D(4,5,15,20)           60.3469         estimate D2E/DX2                !
 ! D52   D(6,5,15,18)          -60.3204         estimate D2E/DX2                !
 ! D53   D(6,5,15,19)           60.783          estimate D2E/DX2                !
 ! D54   D(6,5,15,20)         -178.1221         estimate D2E/DX2                !
 --------------------------------------------------------------------------------
 Trust Radius=3.00D-01 FncErr=1.00D-07 GrdErr=1.00D-07
 Number of steps in this run=    120 maximum allowed number of steps=    120.
 GradGradGradGradGradGradGradGradGradGradGradGradGradGradGradGradGradGrad

                          Input orientation:                          
 ---------------------------------------------------------------------
 Center     Atomic      Atomic             Coordinates (Angstroms)
 Number     Number       Type             X           Y           Z
 ---------------------------------------------------------------------
      1          6           0       -1.241875   -1.124054   -0.484786
      2          6           0       -0.057875   -1.937054    0.063214
      3          6           0        1.104125   -1.156054    0.698214
      4          6           0        0.960125    0.370946    0.738214
      5          7           0        0.209125    0.894946   -0.390786
      6          6           0       -1.155875    0.398946   -0.329786
      7          1           0       -2.209875   -1.494054   -0.067786
      8          1           0       -1.298875   -1.334054   -1.580786
      9          1           0        0.331125   -2.626054   -0.724786
     10          1           0       -0.461875   -2.621054    0.847214
     11          1           0        2.014125   -1.378054    0.091214
     12          1           0        1.336125   -1.541054    1.720214
     13          1           0        1.980125    0.825946    0.766214
     14          1           0        0.463125    0.665946    1.693214
     15          6           0        0.232125    2.350946   -0.398786
     16          1           0       -1.774875    0.875946   -1.127786
     17          1           0       -1.621875    0.693946    0.641214
     18          1           0       -0.316875    2.745946   -1.284786
     19          1           0       -0.227875    2.774946    0.524214
     20          1           0        1.279125    2.724946   -0.479786
 ---------------------------------------------------------------------
                    Distance matrix (angstroms):
                    1          2          3          4          5
     1  C    0.000000
     2  C    1.537247   0.000000
     3  C    2.627590   1.537345   0.000000
     4  C    2.929088   2.611286   1.534296   0.000000
     5  N    2.488091   2.880561   2.488684   1.453691   0.000000
     6  C    1.533281   2.610929   2.929575   2.370414   1.453603
     7  H    1.117056   2.201026   3.418128   3.765204   3.415144
     8  H    1.117392   2.146259   3.316615   3.658943   2.942551
     9  H    2.188135   1.116685   2.187089   3.393821   3.538910
    10  H    2.150263   1.116122   2.149600   3.314518   3.787498
    11  H    3.316297   2.146264   1.116169   2.142084   2.942257
    12  H    3.417894   2.201295   1.116482   2.182073   3.414754
    13  H    3.968474   3.504543   2.168023   1.117233   2.116566
    14  H    3.294664   3.115116   2.172692   1.116270   2.111874
    15  C    3.775672   4.322556   3.776618   2.396488   1.456204
    16  H    2.167380   3.504217   3.968872   3.349210   2.116550
    17  H    2.171958   3.114858   3.294970   2.603932   2.111394
    18  H    4.058636   4.880028   4.601862   3.371036   2.121818
    19  H    4.153129   4.737548   4.154186   2.690048   2.136023
    20  H    4.601116   4.880232   4.059615   2.669569   2.121726
                    6          7          8          9         10
     6  C    0.000000
     7  H    2.182432   0.000000
     8  H    2.142134   1.773327   0.000000
     9  H    3.393791   2.858278   2.249200   0.000000
    10  H    3.314719   2.272192   2.872651   1.760698   0.000000
    11  H    3.658397   4.228583   3.711265   2.248522   2.871787
    12  H    3.765125   3.971558   4.228791   2.857495   2.271857
    13  H    3.349334   4.861487   4.574478   4.105921   4.225131
    14  H    2.604799   3.861561   4.221815   4.086736   3.517913
    15  C    2.396165   4.566941   4.161768   4.988648   5.172517
    16  H    1.116913   2.632437   2.305620   4.106294   4.225352
    17  H    1.116701   2.373977   3.025623   4.086877   3.518133
    18  H    2.669149   4.800223   4.206940   5.439843   5.776776
    19  H    2.689958   4.743748   4.739404   5.571650   5.410721
    20  H    3.370757   5.490248   4.932927   5.439847   5.776827
                   11         12         13         14         15
    11  H    0.000000
    12  H    1.771975   0.000000
    13  H    2.305298   2.632022   0.000000
    14  H    3.024887   2.373543   1.784998   0.000000
    15  C    4.161858   4.566907   2.595834   2.696118   0.000000
    16  H    4.574166   4.861205   4.205920   3.607047   2.595210
    17  H    4.220922   3.861247   3.606585   2.335533   2.695286
    18  H    4.932982   5.490064   3.628941   3.715277   1.114640
    19  H    4.739352   4.743877   2.955068   2.508371   1.115036
    20  H    4.207241   4.800209   2.376998   3.102784   1.114740
                   16         17         18         19         20
    16  H    0.000000
    17  H    1.784907   0.000000
    18  H    2.376408   3.102129   0.000000
    19  H    2.954406   2.507486   1.811420   0.000000
    20  H    3.628446   3.714486   1.787647   1.811509   0.000000
 Stoichiometry    C6H13N
 Framework group  C1[X(C6H13N)]
 Deg. of freedom    54
 Full point group                 C1      NOp   1
 Largest Abelian subgroup         C1      NOp   1
 Largest concise Abelian subgroup C1      NOp   1
                         Standard orientation:                         
 ---------------------------------------------------------------------
 Center     Atomic      Atomic             Coordinates (Angstroms)
 Number     Number       Type             X           Y           Z
 ---------------------------------------------------------------------
      1          6           0       -1.146341    1.313901   -0.018210
      2          6           0       -1.932133    0.000562   -0.162428
      3          6           0       -1.147574   -1.313688   -0.018745
      4          6           0        0.353170   -1.185296    0.273396
      5          7           0        0.943739   -0.000250   -0.326698
      6          6           0        0.353532    1.185118    0.272900
      7          1           0       -1.623129    1.985985    0.735971
      8          1           0       -1.240809    1.855922   -0.990761
      9          1           0       -2.504866    0.000098   -1.121054
     10          1           0       -2.721926    0.000172    0.626214
     11          1           0       -1.241517   -1.855343   -0.990145
     12          1           0       -1.623622   -1.985572    0.735233
     13          1           0        0.869988   -2.103218   -0.098797
     14          1           0        0.509894   -1.168226    1.378477
     15          6           0        2.390422   -0.000165   -0.160449
     16          1           0        0.870805    2.102702   -0.098533
     17          1           0        0.510619    1.167306    1.378354
     18          1           0        2.840504    0.893597   -0.651405
     19          1           0        2.681027   -0.000209    0.916052
     20          1           0        2.840407   -0.894050   -0.651498
 ---------------------------------------------------------------------
 Rotational constants (GHZ):      4.3018482      2.2728052      1.6225037
 Standard basis: CC-pVTZ (5D, 7F)
 There are   440 symmetry adapted cartesian basis functions of A   symmetry.
 There are   392 symmetry adapted basis functions of A   symmetry.
   392 basis functions,   585 primitive gaussians,   440 cartesian basis functions
    28 alpha electrons       28 beta electrons
       nuclear repulsion energy       331.3647567654 Hartrees.
 NAtoms=   20 NActive=   20 NUniq=   20 SFac= 1.00D+00 NAtFMM=   60 NAOKFM=F Big=F
 Integral buffers will be    131072 words long.
 Raffenetti 1 integral format.
 Two-electron integral symmetry is turned on.
 One-electron integrals computed using PRISM.
 NBasis=   392 RedAO= T EigKep=  2.12D-04  NBF=   392
 NBsUse=   392 1.00D-06 EigRej= -1.00D+00 NBFU=   392
 ExpMin= 1.03D-01 ExpMax= 1.14D+04 ExpMxC= 3.89D+02 IAcc=1 IRadAn=         1 AccDes= 0.00D+00
 Harris functional with IExCor=  205 and IRadAn=       1 diagonalized for initial guess.
 HarFok:  IExCor=  205 AccDes= 0.00D+00 IRadAn=         1 IDoV= 1 UseB2=F ITyADJ=14
 ICtDFT=  3500011 ScaDFX=  1.000000  1.000000  1.000000  1.000000
 FoFCou: FMM=F IPFlag=           0 FMFlag=      100000 FMFlg1=           0
         NFxFlg=           0 DoJE=T BraDBF=F KetDBF=T FulRan=T
         wScrn=  0.000000 ICntrl=     500 IOpCl=  0 I1Cent=   200000004 NGrid=           0
         NMat0=    1 NMatS0=      1 NMatT0=    0 NMatD0=    1 NMtDS0=    0 NMtDT0=    0
 Petite list used in FoFCou.
 Keep R1 ints in memory in canonical form, NReq=3010190876.
 Requested convergence on RMS density matrix=1.00D-08 within 128 cycles.
 Requested convergence on MAX density matrix=1.00D-06.
 Requested convergence on             energy=1.00D-06.
 No special actions if energy rises.
 SCF Done:  E(RHF) =  -289.291477334     A.U. after   11 cycles
            NFock= 11  Conv=0.68D-08     -V/T= 2.0025
 ExpMin= 1.03D-01 ExpMax= 1.14D+04 ExpMxC= 3.89D+02 IAcc=3 IRadAn=         5 AccDes= 0.00D+00
 HarFok:  IExCor=  205 AccDes= 0.00D+00 IRadAn=         5 IDoV=-2 UseB2=F ITyADJ=14
 ICtDFT= 12500011 ScaDFX=  1.000000  1.000000  1.000000  1.000000
 Range of M.O.s used for correlation:     8   392
 NBasis=   392 NAE=    28 NBE=    28 NFC=     7 NFV=     0
 NROrb=    385 NOA=    21 NOB=    21 NVA=   364 NVB=   364

 **** Warning!!: The largest alpha MO coefficient is  0.11049464D+02

 Fully direct method using O(ONN) memory.
 JobTyp=1 Pass  1:  I=   8 to  21 NPSUse= 24 ParTrn=T ParDer=T DoDerP=T.
 JobTyp=1 Pass  2:  I=  22 to  28 NPSUse= 24 ParTrn=T ParDer=T DoDerP=T.
 Spin components of T(2) and E(2):
     alpha-alpha T2 =       0.4762085946D-01 E2=     -0.1439717562D+00
     alpha-beta  T2 =       0.2915768149D+00 E2=     -0.9667867269D+00
     beta-beta   T2 =       0.4762085946D-01 E2=     -0.1439717562D+00
 ANorm=    0.1177632597D+01
 E2 =    -0.1254730239D+01 EUMP2 =    -0.29054620757379D+03
          IDoAtm=11111111111111111111
          Differentiating once with respect to electric field.
                with respect to dipole field.
          Differentiating once with respect to nuclear coordinates.
 Keep R1 ints in memory in canonical form, NReq=3009580934.
          There are     1 degrees of freedom in the 1st order CPHF.  IDoFFX=0 NUNeed=     1.
 LinEq1:  Iter=  0 NonCon=     1 RMS=2.19D-03 Max=4.51D-02 NDo=     1
 AX will form     1 AO Fock derivatives at one time.
 LinEq1:  Iter=  1 NonCon=     1 RMS=5.84D-04 Max=1.04D-02 NDo=     1
 LinEq1:  Iter=  2 NonCon=     1 RMS=1.72D-04 Max=3.13D-03 NDo=     1
 LinEq1:  Iter=  3 NonCon=     1 RMS=4.80D-05 Max=7.98D-04 NDo=     1
 LinEq1:  Iter=  4 NonCon=     1 RMS=1.49D-05 Max=2.13D-04 NDo=     1
 LinEq1:  Iter=  5 NonCon=     1 RMS=4.31D-06 Max=9.39D-05 NDo=     1
 LinEq1:  Iter=  6 NonCon=     1 RMS=1.33D-06 Max=2.28D-05 NDo=     1
 LinEq1:  Iter=  7 NonCon=     1 RMS=4.44D-07 Max=9.40D-06 NDo=     1
 LinEq1:  Iter=  8 NonCon=     1 RMS=7.52D-08 Max=1.83D-06 NDo=     1
 LinEq1:  Iter=  9 NonCon=     1 RMS=1.60D-08 Max=3.53D-07 NDo=     1
 LinEq1:  Iter= 10 NonCon=     1 RMS=4.10D-09 Max=7.65D-08 NDo=     1
 LinEq1:  Iter= 11 NonCon=     1 RMS=1.02D-09 Max=2.32D-08 NDo=     1
 LinEq1:  Iter= 12 NonCon=     1 RMS=2.06D-10 Max=5.12D-09 NDo=     1
 LinEq1:  Iter= 13 NonCon=     1 RMS=5.82D-11 Max=1.48D-09 NDo=     1
 LinEq1:  Iter= 14 NonCon=     0 RMS=1.42D-11 Max=3.04D-10 NDo=     1
 Linear equations converged to 1.000D-10 1.000D-09 after    14 iterations.
 End of Minotr F.D. properties file   721 does not exist.
 End of Minotr F.D. properties file   722 does not exist.
 End of Minotr F.D. properties file   788 does not exist.

 **********************************************************************

            Population analysis using the SCF density.

 **********************************************************************

 Orbital symmetries:
       Occupied  (A) (A) (A) (A) (A) (A) (A) (A) (A) (A) (A) (A)
                 (A) (A) (A) (A) (A) (A) (A) (A) (A) (A) (A) (A)
                 (A) (A) (A) (A)
       Virtual   (A) (A) (A) (A) (A) (A) (A) (A) (A) (A) (A) (A)
                 (A) (A) (A) (A) (A) (A) (A) (A) (A) (A) (A) (A)
                 (A) (A) (A) (A) (A) (A) (A) (A) (A) (A) (A) (A)
                 (A) (A) (A) (A) (A) (A) (A) (A) (A) (A) (A) (A)
                 (A) (A) (A) (A) (A) (A) (A) (A) (A) (A) (A) (A)
                 (A) (A) (A) (A) (A) (A) (A) (A) (A) (A) (A) (A)
                 (A) (A) (A) (A) (A) (A) (A) (A) (A) (A) (A) (A)
                 (A) (A) (A) (A) (A) (A) (A) (A) (A) (A) (A) (A)
                 (A) (A) (A) (A) (A) (A) (A) (A) (A) (A) (A) (A)
                 (A) (A) (A) (A) (A) (A) (A) (A) (A) (A) (A) (A)
                 (A) (A) (A) (A) (A) (A) (A) (A) (A) (A) (A) (A)
                 (A) (A) (A) (A) (A) (A) (A) (A) (A) (A) (A) (A)
                 (A) (A) (A) (A) (A) (A) (A) (A) (A) (A) (A) (A)
                 (A) (A) (A) (A) (A) (A) (A) (A) (A) (A) (A) (A)
                 (A) (A) (A) (A) (A) (A) (A) (A) (A) (A) (A) (A)
                 (A) (A) (A) (A) (A) (A) (A) (A) (A) (A) (A) (A)
                 (A) (A) (A) (A) (A) (A) (A) (A) (A) (A) (A) (A)
                 (A) (A) (A) (A) (A) (A) (A) (A) (A) (A) (A) (A)
                 (A) (A) (A) (A) (A) (A) (A) (A) (A) (A) (A) (A)
                 (A) (A) (A) (A) (A) (A) (A) (A) (A) (A) (A) (A)
                 (A) (A) (A) (A) (A) (A) (A) (A) (A) (A) (A) (A)
                 (A) (A) (A) (A) (A) (A) (A) (A) (A) (A) (A) (A)
                 (A) (A) (A) (A) (A) (A) (A) (A) (A) (A) (A) (A)
                 (A) (A) (A) (A) (A) (A) (A) (A) (A) (A) (A) (A)
                 (A) (A) (A) (A) (A) (A) (A) (A) (A) (A) (A) (A)
                 (A) (A) (A) (A) (A) (A) (A) (A) (A) (A) (A) (A)
                 (A) (A) (A) (A) (A) (A) (A) (A) (A) (A) (A) (A)
                 (A) (A) (A) (A) (A) (A) (A) (A) (A) (A) (A) (A)
                 (A) (A) (A) (A) (A) (A) (A) (A) (A) (A) (A) (A)
                 (A) (A) (A) (A) (A) (A) (A) (A) (A) (A) (A) (A)
                 (A) (A) (A) (A)
 The electronic state is 1-A.
 Alpha  occ. eigenvalues --  -15.54388 -11.24667 -11.24664 -11.24576 -11.22084
 Alpha  occ. eigenvalues --  -11.22032 -11.21997  -1.23142  -1.05683  -1.00709
 Alpha  occ. eigenvalues --   -0.92987  -0.84373  -0.83268  -0.72493  -0.64949
 Alpha  occ. eigenvalues --   -0.63752  -0.62139  -0.59920  -0.56727  -0.53935
 Alpha  occ. eigenvalues --   -0.52868  -0.52685  -0.50258  -0.48177  -0.45094
 Alpha  occ. eigenvalues --   -0.43916  -0.42847  -0.35187
 Alpha virt. eigenvalues --    0.13351   0.15793   0.16609   0.17017   0.19351
 Alpha virt. eigenvalues --    0.20279   0.20286   0.21404   0.23680   0.24108
 Alpha virt. eigenvalues --    0.25209   0.26657   0.27541   0.28328   0.32833
 Alpha virt. eigenvalues --    0.32935   0.36133   0.36733   0.37367   0.39475
 Alpha virt. eigenvalues --    0.40603   0.43950   0.45260   0.45993   0.46844
 Alpha virt. eigenvalues --    0.49717   0.51843   0.52012   0.53530   0.55576
 Alpha virt. eigenvalues --    0.56369   0.56879   0.58702   0.59328   0.59361
 Alpha virt. eigenvalues --    0.60498   0.61061   0.62266   0.63250   0.64157
 Alpha virt. eigenvalues --    0.64596   0.64971   0.65081   0.66894   0.67265
 Alpha virt. eigenvalues --    0.67660   0.68189   0.68389   0.69611   0.72570
 Alpha virt. eigenvalues --    0.74615   0.75025   0.77635   0.79816   0.83314
 Alpha virt. eigenvalues --    0.88897   0.92624   0.93700   0.93898   0.95954
 Alpha virt. eigenvalues --    0.98030   0.98957   0.98962   1.01357   1.05349
 Alpha virt. eigenvalues --    1.06149   1.07585   1.10225   1.10389   1.12531
 Alpha virt. eigenvalues --    1.15467   1.16678   1.18024   1.18703   1.18753
 Alpha virt. eigenvalues --    1.19981   1.21608   1.23299   1.25859   1.26449
 Alpha virt. eigenvalues --    1.27817   1.29051   1.30557   1.31630   1.32371
 Alpha virt. eigenvalues --    1.33757   1.34494   1.35035   1.37498   1.38514
 Alpha virt. eigenvalues --    1.39751   1.40497   1.40591   1.42970   1.43933
 Alpha virt. eigenvalues --    1.44055   1.45629   1.46699   1.48974   1.49416
 Alpha virt. eigenvalues --    1.50783   1.51921   1.52021   1.53278   1.55389
 Alpha virt. eigenvalues --    1.57101   1.57516   1.58068   1.61171   1.61217
 Alpha virt. eigenvalues --    1.62356   1.62647   1.67317   1.68089   1.69887
 Alpha virt. eigenvalues --    1.70141   1.71883   1.73796   1.75601   1.76530
 Alpha virt. eigenvalues --    1.78533   1.79446   1.81931   1.83180   1.87990
 Alpha virt. eigenvalues --    1.88136   1.91962   1.92873   2.00693   2.04252
 Alpha virt. eigenvalues --    2.13117   2.17815   2.18052   2.23418   2.25037
 Alpha virt. eigenvalues --    2.47444   2.54980   2.58125   2.59912   2.60790
 Alpha virt. eigenvalues --    2.62638   2.65098   2.71653   2.73764   2.74831
 Alpha virt. eigenvalues --    2.78644   2.81033   2.81064   2.84178   2.87406
 Alpha virt. eigenvalues --    2.89624   2.89807   2.91229   2.94172   2.95678
 Alpha virt. eigenvalues --    3.00512   3.00587   3.02082   3.03190   3.04521
 Alpha virt. eigenvalues --    3.04704   3.05706   3.05921   3.07873   3.08444
 Alpha virt. eigenvalues --    3.10670   3.10738   3.11876   3.13796   3.14876
 Alpha virt. eigenvalues --    3.17732   3.21567   3.21966   3.22783   3.24710
 Alpha virt. eigenvalues --    3.26030   3.29150   3.30067   3.30194   3.30686
 Alpha virt. eigenvalues --    3.33065   3.34187   3.35140   3.35502   3.35841
 Alpha virt. eigenvalues --    3.37494   3.37751   3.38450   3.40061   3.41144
 Alpha virt. eigenvalues --    3.45398   3.46443   3.47352   3.47918   3.49369
 Alpha virt. eigenvalues --    3.49676   3.50685   3.51570   3.53105   3.53765
 Alpha virt. eigenvalues --    3.54997   3.57213   3.57428   3.60645   3.61092
 Alpha virt. eigenvalues --    3.62004   3.62800   3.65708   3.67909   3.68955
 Alpha virt. eigenvalues --    3.69075   3.72327   3.72384   3.75217   3.76280
 Alpha virt. eigenvalues --    3.76393   3.80995   3.81635   3.82546   3.84510
 Alpha virt. eigenvalues --    3.86344   3.87029   3.88460   3.89226   3.89373
 Alpha virt. eigenvalues --    3.89958   3.91019   3.95167   3.96984   3.97647
 Alpha virt. eigenvalues --    3.98833   4.00493   4.02063   4.02664   4.03931
 Alpha virt. eigenvalues --    4.04379   4.05397   4.06038   4.09522   4.10914
 Alpha virt. eigenvalues --    4.12673   4.12872   4.16269   4.18458   4.18980
 Alpha virt. eigenvalues --    4.20275   4.22338   4.24902   4.25878   4.26217
 Alpha virt. eigenvalues --    4.27148   4.30120   4.30263   4.31588   4.33434
 Alpha virt. eigenvalues --    4.33951   4.35462   4.37780   4.38393   4.38961
 Alpha virt. eigenvalues --    4.40217   4.40883   4.44354   4.44473   4.45967
 Alpha virt. eigenvalues --    4.46600   4.48586   4.49962   4.51471   4.51497
 Alpha virt. eigenvalues --    4.53074   4.53487   4.56278   4.57352   4.60634
 Alpha virt. eigenvalues --    4.61665   4.62823   4.63004   4.66909   4.68994
 Alpha virt. eigenvalues --    4.69469   4.69869   4.72739   4.72832   4.76863
 Alpha virt. eigenvalues --    4.80362   4.81322   4.82474   4.84424   4.85427
 Alpha virt. eigenvalues --    4.88235   4.89405   4.93812   4.95828   4.96465
 Alpha virt. eigenvalues --    4.96870   5.01115   5.06958   5.10846   5.12817
 Alpha virt. eigenvalues --    5.14126   5.14610   5.16859   5.21697   5.24617
 Alpha virt. eigenvalues --    5.25088   5.26316   5.28024   5.30189   5.30252
 Alpha virt. eigenvalues --    5.31810   5.34858   5.38018   5.39232   5.42948
 Alpha virt. eigenvalues --    5.43853   5.43992   5.45463   5.47562   5.48546
 Alpha virt. eigenvalues --    5.48885   5.50166   5.52921   5.53847   5.58330
 Alpha virt. eigenvalues --    5.59765   5.62940   5.64919   5.65987   5.69960
 Alpha virt. eigenvalues --    5.72467   5.74075   5.78631   5.78778   5.83293
 Alpha virt. eigenvalues --    5.86006   5.88954   5.92206   5.94050   5.97654
 Alpha virt. eigenvalues --    5.98209   6.04180   6.04911   6.10899   6.15897
 Alpha virt. eigenvalues --    6.20638   6.22676   6.28387   6.31888   6.33779
 Alpha virt. eigenvalues --    6.34257   6.38616   6.39301   6.42310   6.42989
 Alpha virt. eigenvalues --    6.49516   6.51980  10.60346  11.44935  12.44478
 Alpha virt. eigenvalues --   13.15149  13.35201  13.81824  13.96495
          Condensed to atoms (all electrons):
               1          2          3          4          5          6
     1  C    4.882407   0.321599  -0.036267  -0.005626  -0.038728   0.356385
     2  C    0.321599   4.888006   0.321503  -0.036250   0.000256  -0.036191
     3  C   -0.036267   0.321503   4.882752   0.356369  -0.038726  -0.005648
     4  C   -0.005626  -0.036250   0.356369   4.729369   0.341882  -0.047636
     5  N   -0.038728   0.000256  -0.038726   0.341882   6.583486   0.341840
     6  C    0.356385  -0.036191  -0.005648  -0.047636   0.341840   4.729021
     7  H    0.429720  -0.036383   0.004695  -0.000629   0.003704  -0.037035
     8  H    0.419805  -0.045715   0.003825   0.000053   0.003507  -0.038381
     9  H   -0.034975   0.435018  -0.035072   0.003533  -0.001122   0.003517
    10  H   -0.046295   0.431266  -0.046305   0.004252  -0.000302   0.004246
    11  H    0.003809  -0.045632   0.419996  -0.038275   0.003513   0.000054
    12  H    0.004690  -0.036334   0.429713  -0.037023   0.003701  -0.000628
    13  H   -0.000383   0.005034  -0.028820   0.427550  -0.027063   0.007246
    14  H   -0.003522   0.002192  -0.063859   0.427422  -0.071090  -0.010296
    15  C    0.005403  -0.000321   0.005405  -0.052528   0.352234  -0.052576
    16  H   -0.028857   0.005038  -0.000385   0.007243  -0.027006   0.427638
    17  H   -0.064012   0.002199  -0.003522  -0.010358  -0.071229   0.427491
    18  H    0.000444  -0.000047  -0.000166   0.007880  -0.032360  -0.008589
    19  H   -0.001362   0.000205  -0.001358  -0.009264  -0.067871  -0.009249
    20  H   -0.000165  -0.000047   0.000443  -0.008574  -0.032389   0.007887
               7          8          9         10         11         12
     1  C    0.429720   0.419805  -0.034975  -0.046295   0.003809   0.004690
     2  C   -0.036383  -0.045715   0.435018   0.431266  -0.045632  -0.036334
     3  C    0.004695   0.003825  -0.035072  -0.046305   0.419996   0.429713
     4  C   -0.000629   0.000053   0.003533   0.004252  -0.038275  -0.037023
     5  N    0.003704   0.003507  -0.001122  -0.000302   0.003513   0.003701
     6  C   -0.037035  -0.038381   0.003517   0.004246   0.000054  -0.000628
     7  H    0.592570  -0.034925   0.003153  -0.013468  -0.000340   0.000013
     8  H   -0.034925   0.623758  -0.014728   0.007258   0.000178  -0.000341
     9  H    0.003153  -0.014728   0.597794  -0.039501  -0.014697   0.003157
    10  H   -0.013468   0.007258  -0.039501   0.621807   0.007254  -0.013469
    11  H   -0.000340   0.000178  -0.014697   0.007254   0.622865  -0.034999
    12  H    0.000013  -0.000341   0.003157  -0.013469  -0.034999   0.592507
    13  H    0.000051   0.000013  -0.000063  -0.000420  -0.013914  -0.000660
    14  H    0.000368   0.000294  -0.000693   0.001077   0.009945  -0.003880
    15  C   -0.000286  -0.000116   0.000026   0.000052  -0.000116  -0.000286
    16  H   -0.000662  -0.013948  -0.000062  -0.000420   0.000013   0.000051
    17  H   -0.003922   0.009975  -0.000694   0.001079   0.000295   0.000370
    18  H   -0.000051  -0.000090   0.000000  -0.000003   0.000003   0.000013
    19  H    0.000085   0.000121  -0.000018   0.000021   0.000121   0.000085
    20  H    0.000013   0.000003   0.000000  -0.000003  -0.000090  -0.000051
              13         14         15         16         17         18
     1  C   -0.000383  -0.003522   0.005403  -0.028857  -0.064012   0.000444
     2  C    0.005034   0.002192  -0.000321   0.005038   0.002199  -0.000047
     3  C   -0.028820  -0.063859   0.005405  -0.000385  -0.003522  -0.000166
     4  C    0.427550   0.427422  -0.052528   0.007243  -0.010358   0.007880
     5  N   -0.027063  -0.071090   0.352234  -0.027006  -0.071229  -0.032360
     6  C    0.007246  -0.010296  -0.052576   0.427638   0.427491  -0.008589
     7  H    0.000051   0.000368  -0.000286  -0.000662  -0.003922  -0.000051
     8  H    0.000013   0.000294  -0.000116  -0.013948   0.009975  -0.000090
     9  H   -0.000063  -0.000693   0.000026  -0.000062  -0.000694   0.000000
    10  H   -0.000420   0.001077   0.000052  -0.000420   0.001079  -0.000003
    11  H   -0.013914   0.009945  -0.000116   0.000013   0.000295   0.000003
    12  H   -0.000660  -0.003880  -0.000286   0.000051   0.000370   0.000013
    13  H    0.602318  -0.048948  -0.008089  -0.000241  -0.000368   0.000334
    14  H   -0.048948   0.688153  -0.006174  -0.000368   0.017836  -0.000769
    15  C   -0.008089  -0.006174   4.695735  -0.008092  -0.006194   0.419457
    16  H   -0.000241  -0.000368  -0.008092   0.602008  -0.048958   0.003239
    17  H   -0.000368   0.017836  -0.006194  -0.048958   0.688832  -0.001821
    18  H    0.000334  -0.000769   0.419457   0.003239  -0.001821   0.594882
    19  H   -0.002827   0.016476   0.413696  -0.002826   0.016504  -0.044704
    20  H    0.003241  -0.001818   0.419441   0.000335  -0.000770  -0.027015
              19         20
     1  C   -0.001362  -0.000165
     2  C    0.000205  -0.000047
     3  C   -0.001358   0.000443
     4  C   -0.009264  -0.008574
     5  N   -0.067871  -0.032389
     6  C   -0.009249   0.007887
     7  H    0.000085   0.000013
     8  H    0.000121   0.000003
     9  H   -0.000018   0.000000
    10  H    0.000021  -0.000003
    11  H    0.000121  -0.000090
    12  H    0.000085  -0.000051
    13  H   -0.002827   0.003241
    14  H    0.016476  -0.001818
    15  C    0.413696   0.419441
    16  H   -0.002826   0.000335
    17  H    0.016504  -0.000770
    18  H   -0.044704  -0.027015
    19  H    0.680786  -0.044691
    20  H   -0.044691   0.594919
 Mulliken charges:
               1
     1  C   -0.164071
     2  C   -0.175396
     3  C   -0.164572
     4  C   -0.059389
     5  N   -0.226237
     6  C   -0.059097
     7  H    0.093331
     8  H    0.079453
     9  H    0.095426
    10  H    0.081876
    11  H    0.080018
    12  H    0.093374
    13  H    0.086009
    14  H    0.047655
    15  C   -0.176671
    16  H    0.086262
    17  H    0.047267
    18  H    0.089361
    19  H    0.056070
    20  H    0.089331
 Sum of Mulliken charges =  -0.00000
 Mulliken charges with hydrogens summed into heavy atoms:
               1
     1  C    0.008713
     2  C    0.001907
     3  C    0.008820
     4  C    0.074275
     5  N   -0.226237
     6  C    0.074432
    15  C    0.058091
 Electronic spatial extent (au):  <R**2>=            835.9637
 Charge=             -0.0000 electrons
 Dipole moment (field-independent basis, Debye):
    X=              0.0474    Y=             -0.0007    Z=              0.5490  Tot=              0.5510
 Quadrupole moment (field-independent basis, Debye-Ang):
   XX=            -45.4921   YY=            -45.2707   ZZ=            -47.6823
   XY=              0.0049   XZ=             -0.2006   YZ=              0.0002
 Traceless Quadrupole moment (field-independent basis, Debye-Ang):
   XX=              0.6563   YY=              0.8777   ZZ=             -1.5339
   XY=              0.0049   XZ=             -0.2006   YZ=              0.0002
 Octapole moment (field-independent basis, Debye-Ang**2):
  XXX=              6.0606  YYY=             -0.0140  ZZZ=             -0.4515  XYY=              2.7476
  XXY=             -0.0040  XXZ=             -2.0826  XZZ=             -2.0960  YZZ=             -0.0072
  YYZ=             -1.8207  XYZ=             -0.0063
 Hexadecapole moment (field-independent basis, Debye-Ang**3):
 XXXX=           -689.1985 YYYY=           -374.1994 ZZZZ=           -110.7691 XXXY=              0.0368
 XXXZ=             -8.8662 YYYX=              0.0337 YYYZ=              0.0133 ZZZX=              1.2689
 ZZZY=             -0.0039 XXYY=           -175.4121 XXZZ=           -129.8991 YYZZ=            -79.4638
 XXYZ=              0.0089 YYXZ=             -5.8896 ZZXY=              0.0043
 N-N= 3.313647567654D+02 E-N=-1.336083062863D+03  KE= 2.885609781316D+02
 Calling FoFJK, ICntrl=  10002127 FMM=F ISym2X=0 I1Cent= 0 IOpClX= 0 NMat=1 NMatS=1 NMatT=0.
 ***** Axes restored to original set *****
 -------------------------------------------------------------------
 Center     Atomic                   Forces (Hartrees/Bohr)
 Number     Number              X              Y              Z
 -------------------------------------------------------------------
      1        6          -0.010002186   -0.005180353   -0.026213015
      2        6          -0.008183917   -0.024095342    0.016135685
      3        6           0.026211511   -0.004771187   -0.007362243
      4        6           0.004930175    0.003842286    0.013478270
      5        7           0.004199399   -0.001543793   -0.008361691
      6        6          -0.013735267    0.004491379    0.004709730
      7        1           0.015179944    0.007488370   -0.004590323
      8        1          -0.000122418    0.004078249    0.015238511
      9        1          -0.005703832    0.013630374    0.011443455
     10        1           0.005524236    0.008408566   -0.010879777
     11        1          -0.011614669    0.004097932    0.008787763
     12        1          -0.005159863    0.007555983   -0.014571335
     13        1          -0.015920090   -0.005078544   -0.002602300
     14        1           0.001289185   -0.000056469   -0.005281429
     15        6           0.003053367    0.009156063   -0.005615890
     16        1           0.011382592   -0.005391716    0.011045302
     17        1           0.003489895   -0.000143054   -0.004374098
     18        1           0.005712069   -0.007459752    0.013084634
     19        1           0.003598147   -0.001834601   -0.007185860
     20        1          -0.014128278   -0.007194394    0.003114612
 -------------------------------------------------------------------
 Cartesian Forces:  Max     0.026213015 RMS     0.010015495

 GradGradGradGradGradGradGradGradGradGradGradGradGradGradGradGradGradGrad
 Berny optimization.
 FormGI is forming the generalized inverse of G from B-inverse, IUseBI=4.
 Internal  Forces:  Max     0.018472135 RMS     0.005344248
 Search for a local minimum.
 Step number   1 out of a maximum of  120
 All quantities printed in internal units (Hartrees-Bohrs-Radians)
 Mixed Optimization -- RFO/linear search
 Second derivative matrix not updated -- first step.
 ITU=  0
     Eigenvalues ---    0.00421   0.00948   0.00977   0.01221   0.02068
     Eigenvalues ---    0.02145   0.03097   0.03675   0.04311   0.04692
     Eigenvalues ---    0.04875   0.05077   0.05752   0.05877   0.07234
     Eigenvalues ---    0.07385   0.07477   0.08931   0.09006   0.09159
     Eigenvalues ---    0.09479   0.09485   0.09754   0.10018   0.12499
     Eigenvalues ---    0.12791   0.14947   0.16000   0.16000   0.16000
     Eigenvalues ---    0.16727   0.19325   0.21931   0.27681   0.27869
     Eigenvalues ---    0.28837   0.29077   0.31830   0.31846   0.31864
     Eigenvalues ---    0.31879   0.31901   0.31902   0.31923   0.31945
     Eigenvalues ---    0.31956   0.31960   0.32073   0.32103   0.32114
     Eigenvalues ---    0.35411   0.36418   0.374441000.000001000.00000
     Eigenvalues --- 1000.000001000.000001000.000001000.000001000.00000
     Eigenvalues --- 1000.000001000.000001000.000001000.000001000.00000
     Eigenvalues --- 1000.000001000.000001000.000001000.000001000.00000
     Eigenvalues --- 1000.000001000.000001000.000001000.000001000.00000
     Eigenvalues --- 1000.000001000.000001000.000001000.000001000.00000
     Eigenvalues --- 1000.000001000.000001000.000001000.000001000.00000
     Eigenvalues --- 1000.000001000.000001000.000001000.000001000.00000
     Eigenvalues --- 1000.000001000.000001000.000001000.000001000.00000
     Eigenvalues --- 1000.000001000.000001000.000001000.000001000.00000
     Eigenvalues --- 1000.000001000.000001000.000001000.000001000.00000
     Eigenvalues --- 1000.000001000.000001000.000001000.000001000.00000
     Eigenvalues --- 1000.000001000.000001000.00000
 RFO step:  Lambda=-1.18767473D-02 EMin= 4.21409576D-03
 Linear search not attempted -- first point.
 Iteration  1 RMS(Cart)=  0.03667003 RMS(Int)=  0.00067839
 Iteration  2 RMS(Cart)=  0.00074466 RMS(Int)=  0.00028309
 Iteration  3 RMS(Cart)=  0.00000040 RMS(Int)=  0.00028309
 Iteration  1 RMS(Cart)=  0.00000541 RMS(Int)=  0.00000809
 Iteration  2 RMS(Cart)=  0.00000419 RMS(Int)=  0.00000877
 Iteration  3 RMS(Cart)=  0.00000324 RMS(Int)=  0.00001008
 Iteration  4 RMS(Cart)=  0.00000251 RMS(Int)=  0.00001140
 Iteration  5 RMS(Cart)=  0.00000194 RMS(Int)=  0.00001256
 Iteration  6 RMS(Cart)=  0.00000150 RMS(Int)=  0.00001351
 Iteration  7 RMS(Cart)=  0.00000116 RMS(Int)=  0.00001427
 Iteration  8 RMS(Cart)=  0.00000090 RMS(Int)=  0.00001488
 Variable       Old X    -DE/DX   Delta X   Delta X   Delta X     New X
                                 (Linear)    (Quad)   (Total)
    R1        2.90498   0.00221   0.00000   0.01120   0.01140   2.91637
    R2        2.89748  -0.00491   0.00000  -0.01572  -0.01566   2.88182
    R3        2.11093  -0.01735   0.00000  -0.05249  -0.05249   2.05844
    R4        2.11156  -0.01571   0.00000  -0.04757  -0.04757   2.06399
    R5        2.90516   0.00222   0.00000   0.01045   0.01056   2.91572
    R6        2.11023  -0.01847   0.00000  -0.05582  -0.05582   2.05441
    R7        2.10916  -0.01479   0.00000  -0.04463  -0.04463   2.06453
    R8        2.89940  -0.00533   0.00000  -0.01876  -0.01886   2.88054
    R9        2.10925  -0.01506   0.00000  -0.04545  -0.04545   2.06380
   R10        2.10985  -0.01702   0.00000  -0.05139  -0.05139   2.05846
   R11        2.74708  -0.00516   0.00000  -0.01448  -0.01472   2.73236
   R12        2.11126  -0.01667   0.00000  -0.05046  -0.05046   2.06081
   R13        2.10944  -0.00511   0.00000  -0.01541  -0.01541   2.09403
   R14        2.74691  -0.00506   0.00000  -0.01679  -0.01685   2.73006
   R15        2.75183  -0.00738   0.00000  -0.01910  -0.01910   2.73273
   R16        2.11066  -0.01650   0.00000  -0.04991  -0.04991   2.06075
   R17        2.11026  -0.00530   0.00000  -0.01601  -0.01601   2.09425
   R18        2.10636  -0.01586   0.00000  -0.04762  -0.04762   2.05875
   R19        2.10711  -0.00813   0.00000  -0.02444  -0.02444   2.08267
   R20        2.10655  -0.01591   0.00000  -0.04779  -0.04779   2.05876
    A1        2.03318  -0.00142   0.00000  -0.01059  -0.01092   2.02226
    A2        1.93819   0.00031   0.00000   0.00169   0.00162   1.93981
    A3        1.86456   0.00214   0.00000   0.01740   0.01742   1.88197
    A4        1.91758  -0.00157   0.00000  -0.01162  -0.01163   1.90595
    A5        1.86366   0.00063   0.00000  -0.00330  -0.00311   1.86055
    A6        1.83351   0.00024   0.00000   0.00952   0.00940   1.84291
    A7        2.04961  -0.00090   0.00000  -0.00442  -0.00482   2.04480
    A8        1.92097  -0.00122   0.00000  -0.01369  -0.01381   1.90717
    A9        1.87101   0.00157   0.00000   0.01205   0.01214   1.88315
   A10        1.91944  -0.00110   0.00000  -0.01037  -0.01053   1.90891
   A11        1.87003   0.00165   0.00000   0.01051   0.01060   1.88063
   A12        1.81692   0.00035   0.00000   0.00944   0.00951   1.82643
   A13        2.03245  -0.00127   0.00000  -0.01406  -0.01491   2.01755
   A14        1.86561   0.00207   0.00000   0.03003   0.03009   1.89571
   A15        1.93904   0.00019   0.00000  -0.00943  -0.00970   1.92934
   A16        1.86361   0.00058   0.00000   0.00716   0.00745   1.87105
   A17        1.91647  -0.00153   0.00000  -0.01915  -0.01942   1.89705
   A18        1.83362   0.00028   0.00000   0.01085   0.01087   1.84448
   A19        1.96816  -0.00015   0.00000  -0.02159  -0.02282   1.94534
   A20        1.89683   0.00064   0.00000   0.00349   0.00295   1.89978
   A21        1.90404   0.00228   0.00000   0.03247   0.03276   1.93680
   A22        1.92231  -0.00235   0.00000  -0.02887  -0.02869   1.89362
   A23        1.91683  -0.00060   0.00000   0.00775   0.00815   1.92497
   A24        1.85190   0.00026   0.00000   0.00910   0.00878   1.86068
   A25        1.90661   0.00086   0.00000  -0.02716  -0.02861   1.87800
   A26        1.93533  -0.00180   0.00000  -0.01741  -0.01793   1.91741
   A27        1.93503  -0.00177   0.00000  -0.01988  -0.02059   1.91444
   A28        1.96856  -0.00021   0.00000  -0.00848  -0.00871   1.95986
   A29        1.89747   0.00066   0.00000   0.00934   0.00936   1.90683
   A30        1.90381   0.00227   0.00000   0.02018   0.02000   1.92381
   A31        1.92273  -0.00237   0.00000  -0.02058  -0.02048   1.90225
   A32        1.91581  -0.00053   0.00000  -0.00643  -0.00634   1.90947
   A33        1.85163   0.00025   0.00000   0.00742   0.00710   1.85874
   A34        1.92934  -0.00266   0.00000  -0.01461  -0.01461   1.91473
   A35        1.94888   0.00255   0.00000   0.01304   0.01308   1.96196
   A36        1.92911  -0.00262   0.00000  -0.01434  -0.01434   1.91477
   A37        1.89656  -0.00029   0.00000  -0.00339  -0.00335   1.89321
   A38        1.86080   0.00342   0.00000   0.02343   0.02339   1.88418
   A39        1.89657  -0.00030   0.00000  -0.00341  -0.00337   1.89320
    D1       -0.01157  -0.00420   0.00000   0.00000  -0.00001  -0.01159
    D2       -2.22508  -0.00077   0.00000   0.03097   0.03093  -2.19415
    D3        2.09254  -0.00141   0.00000   0.02028   0.02028   2.11282
    D4       -2.22429  -0.00107   0.00000   0.02384   0.02388  -2.20041
    D5        1.84539   0.00236   0.00000   0.05481   0.05482   1.90021
    D6       -0.12018   0.00173   0.00000   0.04411   0.04417  -0.07600
    D7        2.06877  -0.00270   0.00000   0.00203   0.00195   2.07072
    D8       -0.14474   0.00073   0.00000   0.03301   0.03289  -0.11185
    D9       -2.11031   0.00010   0.00000   0.02231   0.02224  -2.08806
   D10        0.55645   0.00296   0.00000   0.00977   0.00957   0.56602
   D11        2.69430   0.00028   0.00000  -0.01547  -0.01561   2.67868
   D12       -1.57709   0.00215   0.00000   0.00926   0.00933  -1.56777
   D13        2.77934   0.00079   0.00000  -0.00721  -0.00731   2.77203
   D14       -1.36600  -0.00190   0.00000  -0.03245  -0.03250  -1.39849
   D15        0.64580  -0.00002   0.00000  -0.00772  -0.00755   0.63824
   D16       -1.52438   0.00064   0.00000  -0.00345  -0.00357  -1.52795
   D17        0.61347  -0.00205   0.00000  -0.02869  -0.02875   0.58471
   D18        2.62526  -0.00017   0.00000  -0.00396  -0.00381   2.62145
   D19        0.01216   0.00416   0.00000   0.03316   0.03306   0.04522
   D20       -2.06844   0.00269   0.00000   0.01057   0.01067  -2.05777
   D21        2.22347   0.00110   0.00000  -0.01429  -0.01424   2.20923
   D22        2.22642   0.00068   0.00000   0.00059   0.00050   2.22692
   D23        0.14581  -0.00080   0.00000  -0.02199  -0.02189   0.12392
   D24       -1.84546  -0.00239   0.00000  -0.04685  -0.04680  -1.89226
   D25       -2.09246   0.00141   0.00000   0.01208   0.01197  -2.08049
   D26        2.11012  -0.00006   0.00000  -0.01050  -0.01042   2.09970
   D27        0.11885  -0.00165   0.00000  -0.03536  -0.03533   0.08352
   D28       -0.55755  -0.00292   0.00000  -0.07519  -0.07469  -0.63224
   D29       -2.69412  -0.00028   0.00000  -0.02651  -0.02605  -2.72017
   D30        1.57718  -0.00216   0.00000  -0.05664  -0.05655   1.52062
   D31        1.52414  -0.00063   0.00000  -0.04025  -0.04005   1.48409
   D32       -0.61243   0.00201   0.00000   0.00843   0.00858  -0.60385
   D33       -2.62432   0.00012   0.00000  -0.02170  -0.02192  -2.64624
   D34       -2.78002  -0.00074   0.00000  -0.03311  -0.03300  -2.81301
   D35        1.36659   0.00190   0.00000   0.01557   0.01564   1.38223
   D36       -0.64529   0.00002   0.00000  -0.01456  -0.01486  -0.66015
   D37        1.12178   0.00349   0.00000   0.08858   0.08816   1.20995
   D38       -3.02368   0.00067   0.00000   0.03387   0.03380  -2.98988
   D39       -3.03919   0.00253   0.00000   0.05745   0.05754  -2.98165
   D40       -0.90147  -0.00029   0.00000   0.00274   0.00317  -0.89830
   D41       -1.00574   0.00111   0.00000   0.05617   0.05611  -0.94963
   D42        1.13198  -0.00171   0.00000   0.00145   0.00175   1.13373
   D43       -1.12131  -0.00351   0.00000  -0.05544  -0.05475  -1.17606
   D44        3.03826  -0.00250   0.00000  -0.04678  -0.04643   2.99183
   D45        1.00548  -0.00111   0.00000  -0.03998  -0.03964   0.96584
   D46        3.02398  -0.00067   0.00000  -0.00221  -0.00210   3.02188
   D47        0.90036   0.00034   0.00000   0.00645   0.00623   0.90658
   D48       -1.13242   0.00173   0.00000   0.01325   0.01301  -1.11941
   D49        3.10928   0.00114   0.00000   0.03534   0.03553  -3.13837
   D50       -1.06025   0.00066   0.00000   0.02978   0.02994  -1.03031
   D51        1.05325   0.00019   0.00000   0.02438   0.02450   1.07776
   D52       -1.05279  -0.00019   0.00000  -0.02454  -0.02467  -1.07746
   D53        1.06086  -0.00068   0.00000  -0.03010  -0.03026   1.03060
   D54       -3.10882  -0.00114   0.00000  -0.03550  -0.03570   3.13867
         Item               Value     Threshold  Converged?
 Maximum Force            0.018472     0.000450     NO 
 RMS     Force            0.005303     0.000300     NO 
 Maximum Displacement     0.133414     0.001800     NO 
 RMS     Displacement     0.036904     0.001200     NO 
 Predicted change in Energy=-6.464741D-03
 GradGradGradGradGradGradGradGradGradGradGradGradGradGradGradGradGradGrad

                          Input orientation:                          
 ---------------------------------------------------------------------
 Center     Atomic      Atomic             Coordinates (Angstroms)
 Number     Number       Type             X           Y           Z
 ---------------------------------------------------------------------
      1          6           0       -1.246510   -1.115741   -0.480594
      2          6           0       -0.053610   -1.933470    0.057941
      3          6           0        1.115963   -1.144789    0.683017
      4          6           0        0.928698    0.366395    0.752279
      5          7           0        0.221062    0.865357   -0.405705
      6          6           0       -1.142931    0.397170   -0.319404
      7          1           0       -2.185373   -1.458731   -0.047667
      8          1           0       -1.328897   -1.310490   -1.552147
      9          1           0        0.326440   -2.576480   -0.731985
     10          1           0       -0.433685   -2.622293    0.815984
     11          1           0        2.016683   -1.332017    0.094484
     12          1           0        1.335588   -1.515571    1.683433
     13          1           0        1.909525    0.841621    0.789661
     14          1           0        0.399701    0.658288    1.681189
     15          6           0        0.240638    2.311319   -0.408025
     16          1           0       -1.734658    0.882890   -1.096019
     17          1           0       -1.578902    0.709910    0.650285
     18          1           0       -0.295903    2.684573   -1.279625
     19          1           0       -0.221636    2.739262    0.496294
     20          1           0        1.269305    2.664722   -0.470110
 ---------------------------------------------------------------------
                    Distance matrix (angstroms):
                    1          2          3          4          5
     1  C    0.000000
     2  C    1.543279   0.000000
     3  C    2.633650   1.542932   0.000000
     4  C    2.906584   2.595460   1.524317   0.000000
     5  N    2.466602   2.850236   2.454964   1.445904   0.000000
     6  C    1.524996   2.600172   2.912917   2.332616   1.444688
     7  H    1.089280   2.186537   3.395773   3.697085   3.364596
     8  H    1.092218   2.146356   3.316738   3.635802   2.907062
     9  H    2.161279   1.087145   2.162248   3.350562   3.458873
    10  H    2.147439   1.092503   2.145252   3.285179   3.752988
    11  H    3.320530   2.156199   1.092118   2.121558   2.881474
    12  H    3.392655   2.178701   1.089288   2.138786   3.357899
    13  H    3.924968   3.477132   2.141714   1.090532   2.068906
    14  H    3.245073   3.091543   2.181849   1.108113   2.104737
    15  C    3.736525   4.280414   3.728438   2.366952   1.446097
    16  H    2.147456   3.476986   3.924601   3.282749   2.074050
    17  H    2.173102   3.108833   3.271586   2.533074   2.092642
    18  H    3.998061   4.813950   4.528725   3.316961   2.083396
    19  H    4.106790   4.696255   4.112164   2.649396   2.126289
    20  H    4.541072   4.813763   3.983164   2.625368   2.083429
                    6          7          8          9         10
     6  C    0.000000
     7  H    2.145902   0.000000
     8  H    2.114318   1.737523   0.000000
     9  H    3.342435   2.833171   2.239539   0.000000
    10  H    3.302922   2.273363   2.851363   1.725137   0.000000
    11  H    3.625541   4.206369   3.728908   2.255806   2.861761
    12  H    3.716583   3.923915   4.196489   2.824563   2.260006
    13  H    3.277964   4.770842   4.539055   4.062632   4.182108
    14  H    2.539737   3.762090   4.161562   4.036397   3.493612
    15  C    2.363489   4.497629   4.109739   4.899275   5.127713
    16  H    1.090503   2.604876   2.276755   4.043252   4.199357
    17  H    1.108229   2.357529   2.999203   4.042444   3.527400
    18  H    2.621391   4.717498   4.135441   5.325965   5.707310
    19  H    2.645664   4.666401   4.671469   5.483263   5.375262
    20  H    3.314119   5.395936   4.870705   5.331770   5.701468
                   11         12         13         14         15
    11  H    0.000000
    12  H    1.738489   0.000000
    13  H    2.284613   2.585457   0.000000
    14  H    3.015556   2.366760   1.762953   0.000000
    15  C    4.084207   4.496466   2.525797   2.668825   0.000000
    16  H    4.516156   4.785853   4.103360   3.509818   2.532892
    17  H    4.172122   3.809778   3.493694   2.231658   2.644855
    18  H    4.834173   5.392837   3.541516   3.654602   1.089441
    19  H    4.663350   4.683786   2.868616   2.473962   1.102100
    20  H    4.105029   4.702871   2.306644   3.067585   1.089451
                   16         17         18         19         20
    16  H    0.000000
    17  H    1.761749   0.000000
    18  H    2.312961   3.044657   0.000000
    19  H    2.875902   2.446253   1.778313   0.000000
    20  H    3.548306   3.631647   1.762267   1.778313   0.000000
 Stoichiometry    C6H13N
 Framework group  C1[X(C6H13N)]
 Deg. of freedom    54
 Full point group                 C1      NOp   1
 Largest Abelian subgroup         C1      NOp   1
 Largest concise Abelian subgroup C1      NOp   1
                         Standard orientation:                         
 ---------------------------------------------------------------------
 Center     Atomic      Atomic             Coordinates (Angstroms)
 Number     Number       Type             X           Y           Z
 ---------------------------------------------------------------------
      1          6           0       -1.135413    1.315542   -0.011431
      2          6           0       -1.922707   -0.002636   -0.167269
      3          6           0       -1.127610   -1.318014   -0.032218
      4          6           0        0.350966   -1.162233    0.304070
      5          7           0        0.921954   -0.003471   -0.345455
      6          6           0        0.354904    1.170228    0.277449
      7          1           0       -1.586460    1.955381    0.745995
      8          1           0       -1.218955    1.867916   -0.949964
      9          1           0       -2.449477    0.004309   -1.118241
     10          1           0       -2.713470   -0.012508    0.586494
     11          1           0       -1.188326   -1.860761   -0.977978
     12          1           0       -1.587933   -1.968373    0.710536
     13          1           0        0.885456   -2.049090   -0.038076
     14          1           0        0.504337   -1.103093    1.399923
     15          6           0        2.357703   -0.001166   -0.172787
     16          1           0        0.879674    2.053975   -0.086975
     17          1           0        0.530934    1.128216    1.370802
     18          1           0        2.784921    0.874485   -0.660232
     19          1           0        2.653227    0.011175    0.888881
     20          1           0        2.785339   -0.887664   -0.639855
 ---------------------------------------------------------------------
 Rotational constants (GHZ):      4.3550520      2.3239435      1.6592710
 Standard basis: CC-pVTZ (5D, 7F)
 There are   440 symmetry adapted cartesian basis functions of A   symmetry.
 There are   392 symmetry adapted basis functions of A   symmetry.
   392 basis functions,   585 primitive gaussians,   440 cartesian basis functions
    28 alpha electrons       28 beta electrons
       nuclear repulsion energy       334.6507652583 Hartrees.
 NAtoms=   20 NActive=   20 NUniq=   20 SFac= 1.00D+00 NAtFMM=   60 NAOKFM=F Big=F
 Integral buffers will be    131072 words long.
 Raffenetti 1 integral format.
 Two-electron integral symmetry is turned on.
 One-electron integrals computed using PRISM.
 NBasis=   392 RedAO= T EigKep=  1.95D-04  NBF=   392
 NBsUse=   392 1.00D-06 EigRej= -1.00D+00 NBFU=   392
 Initial guess from the checkpoint file:  "/mnt/lustre/scratch/slurm/1404391/uviqopsc.l8CiDenm2Z/Gau-29268.chk"
 B after Tr=    -0.000000    0.000000   -0.000000
         Rot=    1.000000    0.000713   -0.000412   -0.000453 Ang=   0.11 deg.
 ExpMin= 1.03D-01 ExpMax= 1.14D+04 ExpMxC= 3.89D+02 IAcc=1 IRadAn=         1 AccDes= 0.00D+00
 Harris functional with IExCor=  205 and IRadAn=       1 diagonalized for initial guess.
 HarFok:  IExCor=  205 AccDes= 0.00D+00 IRadAn=         1 IDoV= 1 UseB2=F ITyADJ=14
 ICtDFT=  3500011 ScaDFX=  1.000000  1.000000  1.000000  1.000000
 FoFCou: FMM=F IPFlag=           0 FMFlag=      100000 FMFlg1=           0
         NFxFlg=           0 DoJE=T BraDBF=F KetDBF=T FulRan=T
         wScrn=  0.000000 ICntrl=     500 IOpCl=  0 I1Cent=   200000004 NGrid=           0
         NMat0=    1 NMatS0=      1 NMatT0=    0 NMatD0=    1 NMtDS0=    0 NMtDT0=    0
 Petite list used in FoFCou.
 Keep R1 ints in memory in canonical form, NReq=3010190876.
 Requested convergence on RMS density matrix=1.00D-08 within 128 cycles.
 Requested convergence on MAX density matrix=1.00D-06.
 Requested convergence on             energy=1.00D-06.
 No special actions if energy rises.
 SCF Done:  E(RHF) =  -289.299532992     A.U. after   10 cycles
            NFock= 10  Conv=0.39D-08     -V/T= 2.0008
 ExpMin= 1.03D-01 ExpMax= 1.14D+04 ExpMxC= 3.89D+02 IAcc=3 IRadAn=         5 AccDes= 0.00D+00
 HarFok:  IExCor=  205 AccDes= 0.00D+00 IRadAn=         5 IDoV=-2 UseB2=F ITyADJ=14
 ICtDFT= 12500011 ScaDFX=  1.000000  1.000000  1.000000  1.000000
 Range of M.O.s used for correlation:     8   392
 NBasis=   392 NAE=    28 NBE=    28 NFC=     7 NFV=     0
 NROrb=    385 NOA=    21 NOB=    21 NVA=   364 NVB=   364

 **** Warning!!: The largest alpha MO coefficient is  0.11854871D+02

 Fully direct method using O(ONN) memory.
 JobTyp=1 Pass  1:  I=   8 to  21 NPSUse= 24 ParTrn=T ParDer=T DoDerP=T.
 JobTyp=1 Pass  2:  I=  22 to  28 NPSUse= 24 ParTrn=T ParDer=T DoDerP=T.
 Spin components of T(2) and E(2):
     alpha-alpha T2 =       0.4714709845D-01 E2=     -0.1441891842D+00
     alpha-beta  T2 =       0.2865445168D+00 E2=     -0.9645977839D+00
     beta-beta   T2 =       0.4714709845D-01 E2=     -0.1441891842D+00
 ANorm=    0.1175090938D+01
 E2 =    -0.1252976152D+01 EUMP2 =    -0.29055250914415D+03
          IDoAtm=11111111111111111111
          Differentiating once with respect to electric field.
                with respect to dipole field.
          Differentiating once with respect to nuclear coordinates.
 Keep R1 ints in memory in canonical form, NReq=3009580934.
          There are     1 degrees of freedom in the 1st order CPHF.  IDoFFX=0 NUNeed=     1.
 LinEq1:  Iter=  0 NonCon=     1 RMS=2.16D-03 Max=4.72D-02 NDo=     1
 AX will form     1 AO Fock derivatives at one time.
 LinEq1:  Iter=  1 NonCon=     1 RMS=5.45D-04 Max=1.01D-02 NDo=     1
 LinEq1:  Iter=  2 NonCon=     1 RMS=1.63D-04 Max=2.82D-03 NDo=     1
 LinEq1:  Iter=  3 NonCon=     1 RMS=4.48D-05 Max=6.90D-04 NDo=     1
 LinEq1:  Iter=  4 NonCon=     1 RMS=1.39D-05 Max=1.87D-04 NDo=     1
 LinEq1:  Iter=  5 NonCon=     1 RMS=4.02D-06 Max=8.84D-05 NDo=     1
 LinEq1:  Iter=  6 NonCon=     1 RMS=1.25D-06 Max=2.28D-05 NDo=     1
 LinEq1:  Iter=  7 NonCon=     1 RMS=4.11D-07 Max=8.68D-06 NDo=     1
 LinEq1:  Iter=  8 NonCon=     1 RMS=7.13D-08 Max=1.68D-06 NDo=     1
 LinEq1:  Iter=  9 NonCon=     1 RMS=1.58D-08 Max=3.40D-07 NDo=     1
 LinEq1:  Iter= 10 NonCon=     1 RMS=3.95D-09 Max=6.97D-08 NDo=     1
 LinEq1:  Iter= 11 NonCon=     1 RMS=9.30D-10 Max=2.01D-08 NDo=     1
 LinEq1:  Iter= 12 NonCon=     1 RMS=1.74D-10 Max=4.30D-09 NDo=     1
 LinEq1:  Iter= 13 NonCon=     1 RMS=4.30D-11 Max=1.09D-09 NDo=     1
 LinEq1:  Iter= 14 NonCon=     0 RMS=9.88D-12 Max=2.19D-10 NDo=     1
 Linear equations converged to 1.000D-10 1.000D-09 after    14 iterations.
 End of Minotr F.D. properties file   721 does not exist.
 End of Minotr F.D. properties file   722 does not exist.
 End of Minotr F.D. properties file   788 does not exist.
 Calling FoFJK, ICntrl=  10002127 FMM=F ISym2X=0 I1Cent= 0 IOpClX= 0 NMat=1 NMatS=1 NMatT=0.
 ***** Axes restored to original set *****
 -------------------------------------------------------------------
 Center     Atomic                   Forces (Hartrees/Bohr)
 Number     Number              X              Y              Z
 -------------------------------------------------------------------
      1        6           0.002756039    0.000056006   -0.013359443
      2        6          -0.006266901   -0.003715958    0.013054585
      3        6           0.006783185    0.000114277   -0.005858370
      4        6           0.003142733   -0.001369931    0.005181336
      5        7           0.001518375   -0.000809402   -0.002745297
      6        6          -0.008045732   -0.000393875    0.005568652
      7        1           0.000901096    0.000226792    0.001550967
      8        1           0.000394999   -0.000114774    0.001157461
      9        1           0.000590672    0.001868467   -0.000945180
     10        1           0.000248893    0.000990316   -0.000831143
     11        1          -0.001834979    0.000599512   -0.000269101
     12        1          -0.000829351   -0.000314645    0.000328029
     13        1           0.000069098    0.000182821    0.000667933
     14        1          -0.000884093   -0.000647543   -0.001803965
     15        6           0.001299551    0.003888066   -0.002360848
     16        1           0.000110698   -0.000082417   -0.000092547
     17        1           0.000796176   -0.000182264   -0.000505391
     18        1          -0.000492011    0.000032018    0.000613176
     19        1          -0.000019966   -0.000307971   -0.000075241
     20        1          -0.000238479   -0.000019495    0.000724388
 -------------------------------------------------------------------
 Cartesian Forces:  Max     0.013359443 RMS     0.003367562

 GradGradGradGradGradGradGradGradGradGradGradGradGradGradGradGradGradGrad
 Berny optimization.
 Using GEDIIS/GDIIS optimizer.
 FormGI is forming the generalized inverse of G from B-inverse, IUseBI=4.
 Internal  Forces:  Max     0.005129993 RMS     0.001083585
 Search for a local minimum.
 Step number   2 out of a maximum of  120
 All quantities printed in internal units (Hartrees-Bohrs-Radians)
 Mixed Optimization -- En-DIIS/RFO-DIIS
 Update second derivatives using D2CorX and points    1    2
 DE= -6.30D-03 DEPred=-6.46D-03 R= 9.75D-01
 TightC=F SS=  1.41D+00  RLast= 3.07D-01 DXNew= 5.0454D-01 9.2095D-01
 Trust test= 9.75D-01 RLast= 3.07D-01 DXMaxT set to 5.05D-01
 ITU=  1  0
 Use linear search instead of GDIIS.
     Eigenvalues ---    0.00435   0.00948   0.00997   0.01258   0.02145
     Eigenvalues ---    0.02211   0.03382   0.03820   0.04576   0.04715
     Eigenvalues ---    0.04871   0.05139   0.05700   0.05838   0.07199
     Eigenvalues ---    0.07237   0.07564   0.08836   0.08892   0.09097
     Eigenvalues ---    0.09336   0.09479   0.09587   0.09799   0.12348
     Eigenvalues ---    0.12710   0.14457   0.15997   0.16000   0.16063
     Eigenvalues ---    0.16310   0.18941   0.21913   0.27657   0.27823
     Eigenvalues ---    0.28832   0.29129   0.29416   0.31847   0.31853
     Eigenvalues ---    0.31871   0.31891   0.31906   0.31915   0.31947
     Eigenvalues ---    0.31958   0.32043   0.32078   0.32109   0.32207
     Eigenvalues ---    0.35150   0.37113   0.401521000.000001000.00000
     Eigenvalues --- 1000.000001000.000001000.000001000.000001000.00000
     Eigenvalues --- 1000.000001000.000001000.000001000.000001000.00000
     Eigenvalues --- 1000.000001000.000001000.000001000.000001000.00000
     Eigenvalues --- 1000.000001000.000001000.000001000.000001000.00000
     Eigenvalues --- 1000.000001000.000001000.000001000.000001000.00000
     Eigenvalues --- 1000.000001000.000001000.000001000.000001000.00000
     Eigenvalues --- 1000.000001000.000001000.000001000.000001000.00000
     Eigenvalues --- 1000.000001000.000001000.000001000.000001000.00000
     Eigenvalues --- 1000.000001000.000001000.000001000.000001000.00000
     Eigenvalues --- 1000.000001000.000001000.000001000.000001000.00000
     Eigenvalues --- 1000.000001000.000001000.000001000.000001000.00000
     Eigenvalues --- 1000.000001000.000001000.00000
 RFO step:  Lambda=-7.66132652D-04 EMin= 4.34532955D-03
 Quartic linear search produced a step of  0.03521.
 Iteration  1 RMS(Cart)=  0.02302906 RMS(Int)=  0.00036069
 Iteration  2 RMS(Cart)=  0.00040751 RMS(Int)=  0.00007662
 Iteration  3 RMS(Cart)=  0.00000007 RMS(Int)=  0.00007662
 Iteration  1 RMS(Cart)=  0.00000016 RMS(Int)=  0.00000024
 Variable       Old X    -DE/DX   Delta X   Delta X   Delta X     New X
                                 (Linear)    (Quad)   (Total)
    R1        2.91637   0.00124   0.00040   0.00514   0.00563   2.92200
    R2        2.88182   0.00072  -0.00055   0.00395   0.00347   2.88529
    R3        2.05844  -0.00023  -0.00185  -0.00073  -0.00257   2.05587
    R4        2.06399  -0.00114  -0.00167  -0.00368  -0.00536   2.05863
    R5        2.91572   0.00098   0.00037   0.00276   0.00314   2.91886
    R6        2.05441  -0.00021  -0.00197  -0.00066  -0.00262   2.05178
    R7        2.06453  -0.00129  -0.00157  -0.00413  -0.00570   2.05883
    R8        2.88054  -0.00004  -0.00066  -0.00161  -0.00235   2.87819
    R9        2.06380  -0.00147  -0.00160  -0.00472  -0.00632   2.05748
   R10        2.05846   0.00024  -0.00181   0.00080  -0.00101   2.05745
   R11        2.73236   0.00418  -0.00052   0.01240   0.01178   2.74414
   R12        2.06081   0.00016  -0.00178   0.00056  -0.00122   2.05959
   R13        2.09403  -0.00126  -0.00054  -0.00406  -0.00460   2.08943
   R14        2.73006   0.00513  -0.00059   0.01312   0.01254   2.74260
   R15        2.73273   0.00360  -0.00067   0.00992   0.00924   2.74197
   R16        2.06075  -0.00003  -0.00176  -0.00008  -0.00183   2.05892
   R17        2.09425  -0.00081  -0.00056  -0.00260  -0.00316   2.09109
   R18        2.05875  -0.00024  -0.00168  -0.00074  -0.00242   2.05633
   R19        2.08267  -0.00017  -0.00086  -0.00054  -0.00141   2.08126
   R20        2.05876  -0.00027  -0.00168  -0.00085  -0.00254   2.05623
    A1        2.02226   0.00011  -0.00038   0.00144   0.00096   2.02322
    A2        1.93981  -0.00118   0.00006  -0.01191  -0.01190   1.92791
    A3        1.88197   0.00045   0.00061   0.00153   0.00214   1.88412
    A4        1.90595  -0.00080  -0.00041  -0.00629  -0.00675   1.89920
    A5        1.86055   0.00109  -0.00011   0.00745   0.00735   1.86789
    A6        1.84291   0.00049   0.00033   0.00981   0.01017   1.85307
    A7        2.04480   0.00152  -0.00017   0.00443   0.00399   2.04879
    A8        1.90717  -0.00142  -0.00049  -0.01544  -0.01603   1.89113
    A9        1.88315   0.00022   0.00043   0.00781   0.00822   1.89137
   A10        1.90891  -0.00168  -0.00037  -0.01537  -0.01582   1.89309
   A11        1.88063   0.00056   0.00037   0.00857   0.00890   1.88953
   A12        1.82643   0.00083   0.00033   0.01200   0.01245   1.83888
   A13        2.01755  -0.00034  -0.00052  -0.00731  -0.00816   2.00939
   A14        1.89571   0.00019   0.00106  -0.00014   0.00096   1.89667
   A15        1.92934  -0.00066  -0.00034  -0.00608  -0.00633   1.92301
   A16        1.87105   0.00050   0.00026   0.00091   0.00127   1.87232
   A17        1.89705  -0.00007  -0.00068   0.00282   0.00212   1.89917
   A18        1.84448   0.00049   0.00038   0.01181   0.01215   1.85663
   A19        1.94534  -0.00010  -0.00080  -0.00868  -0.00989   1.93545
   A20        1.89978   0.00022   0.00010   0.00524   0.00544   1.90523
   A21        1.93680  -0.00001   0.00115  -0.00011   0.00102   1.93782
   A22        1.89362   0.00027  -0.00101   0.00875   0.00792   1.90154
   A23        1.92497  -0.00058   0.00029  -0.01020  -0.00987   1.91510
   A24        1.86068   0.00024   0.00031   0.00616   0.00642   1.86710
   A25        1.87800   0.00030  -0.00101  -0.00487  -0.00610   1.87190
   A26        1.91741   0.00024  -0.00063   0.00491   0.00436   1.92177
   A27        1.91444  -0.00005  -0.00072   0.00112   0.00046   1.91490
   A28        1.95986  -0.00147  -0.00031  -0.00065  -0.00104   1.95881
   A29        1.90683   0.00036   0.00033   0.00240   0.00278   1.90961
   A30        1.92381   0.00057   0.00070  -0.00108  -0.00041   1.92340
   A31        1.90225  -0.00002  -0.00072   0.00362   0.00292   1.90518
   A32        1.90947   0.00066  -0.00022  -0.00694  -0.00714   1.90233
   A33        1.85874  -0.00004   0.00025   0.00293   0.00316   1.86190
   A34        1.91473   0.00034  -0.00051   0.00316   0.00263   1.91737
   A35        1.96196  -0.00071   0.00046  -0.00671  -0.00625   1.95571
   A36        1.91477   0.00029  -0.00050   0.00301   0.00249   1.91726
   A37        1.89321  -0.00019  -0.00012  -0.00335  -0.00347   1.88974
   A38        1.88418   0.00044   0.00082   0.00703   0.00782   1.89201
   A39        1.89320  -0.00013  -0.00012  -0.00270  -0.00282   1.89038
    D1       -0.01159  -0.00325  -0.00000   0.00000   0.00001  -0.01157
    D2       -2.19415  -0.00090   0.00109   0.03107   0.03215  -2.16200
    D3        2.11282  -0.00127   0.00071   0.02069   0.02145   2.13427
    D4       -2.20041  -0.00122   0.00084   0.01786   0.01869  -2.18172
    D5        1.90021   0.00113   0.00193   0.04893   0.05082   1.95103
    D6       -0.07600   0.00076   0.00156   0.03855   0.04012  -0.03589
    D7        2.07072  -0.00144   0.00007   0.01161   0.01168   2.08240
    D8       -0.11185   0.00091   0.00116   0.04268   0.04381  -0.06803
    D9       -2.08806   0.00054   0.00078   0.03230   0.03311  -2.05495
   D10        0.56602   0.00197   0.00034  -0.01980  -0.01947   0.54655
   D11        2.67868   0.00123  -0.00055  -0.01399  -0.01454   2.66414
   D12       -1.56777   0.00173   0.00033  -0.00966  -0.00931  -1.57707
   D13        2.77203  -0.00023  -0.00026  -0.04030  -0.04056   2.73146
   D14       -1.39849  -0.00097  -0.00114  -0.03450  -0.03563  -1.43413
   D15        0.63824  -0.00047  -0.00027  -0.03016  -0.03040   0.60785
   D16       -1.52795   0.00052  -0.00013  -0.02810  -0.02825  -1.55620
   D17        0.58471  -0.00022  -0.00101  -0.02230  -0.02332   0.56140
   D18        2.62145   0.00028  -0.00013  -0.01796  -0.01808   2.60337
   D19        0.04522   0.00229   0.00116   0.03206   0.03324   0.07846
[...]
                         Standard orientation:                         
 ---------------------------------------------------------------------
 Center     Atomic      Atomic             Coordinates (Angstroms)
 Number     Number       Type             X           Y           Z
 ---------------------------------------------------------------------
      1          6           0       -1.148008    1.307607    0.019984
      2          6           0       -1.929336   -0.021844   -0.131816
      3          6           0       -1.105271   -1.323911   -0.110052
      4          6           0        0.317523   -1.135532    0.377329
      5          7           0        0.926636   -0.027674   -0.344530
      6          6           0        0.372630    1.203408    0.193674
      7          1           0       -1.550284    1.878772    0.854610
      8          1           0       -1.334405    1.905685   -0.871295
      9          1           0       -2.508111    0.012732   -1.051596
     10          1           0       -2.662204   -0.071561    0.673596
     11          1           0       -1.035109   -1.719638   -1.123105
     12          1           0       -1.610213   -2.078500    0.493118
     13          1           0        0.893658   -2.041295    0.185188
     14          1           0        0.351239   -0.949330    1.466186
     15          6           0        2.366219   -0.027074   -0.156575
     16          1           0        0.854503    2.048522   -0.298035
     17          1           0        0.629908    1.269870    1.267101
     18          1           0        2.805309    0.814025   -0.691141
     19          1           0        2.646923    0.056363    0.905630
     20          1           0        2.789791   -0.947857   -0.553812
 ---------------------------------------------------------------------
 Rotational constants (GHZ):      4.3533854      2.3172301      1.6566886

 **********************************************************************

            Population analysis using the SCF density.

 **********************************************************************

 Orbital symmetries:
       Occupied  (A) (A) (A) (A) (A) (A) (A) (A) (A) (A) (A) (A)
                 (A) (A) (A) (A) (A) (A) (A) (A) (A) (A) (A) (A)
                 (A) (A) (A) (A)
       Virtual   (A) (A) (A) (A) (A) (A) (A) (A) (A) (A) (A) (A)
                 (A) (A) (A) (A) (A) (A) (A) (A) (A) (A) (A) (A)
                 (A) (A) (A) (A) (A) (A) (A) (A) (A) (A) (A) (A)
                 (A) (A) (A) (A) (A) (A) (A) (A) (A) (A) (A) (A)
                 (A) (A) (A) (A) (A) (A) (A) (A) (A) (A) (A) (A)
                 (A) (A) (A) (A) (A) (A) (A) (A) (A) (A) (A) (A)
                 (A) (A) (A) (A) (A) (A) (A) (A) (A) (A) (A) (A)
                 (A) (A) (A) (A) (A) (A) (A) (A) (A) (A) (A) (A)
                 (A) (A) (A) (A) (A) (A) (A) (A) (A) (A) (A) (A)
                 (A) (A) (A) (A) (A) (A) (A) (A) (A) (A) (A) (A)
                 (A) (A) (A) (A) (A) (A) (A) (A) (A) (A) (A) (A)
                 (A) (A) (A) (A) (A) (A) (A) (A) (A) (A) (A) (A)
                 (A) (A) (A) (A) (A) (A) (A) (A) (A) (A) (A) (A)
                 (A) (A) (A) (A) (A) (A) (A) (A) (A) (A) (A) (A)
                 (A) (A) (A) (A) (A) (A) (A) (A) (A) (A) (A) (A)
                 (A) (A) (A) (A) (A) (A) (A) (A) (A) (A) (A) (A)
                 (A) (A) (A) (A) (A) (A) (A) (A) (A) (A) (A) (A)
                 (A) (A) (A) (A) (A) (A) (A) (A) (A) (A) (A) (A)
                 (A) (A) (A) (A) (A) (A) (A) (A) (A) (A) (A) (A)
                 (A) (A) (A) (A) (A) (A) (A) (A) (A) (A) (A) (A)
                 (A) (A) (A) (A) (A) (A) (A) (A) (A) (A) (A) (A)
                 (A) (A) (A) (A) (A) (A) (A) (A) (A) (A) (A) (A)
                 (A) (A) (A) (A) (A) (A) (A) (A) (A) (A) (A) (A)
                 (A) (A) (A) (A) (A) (A) (A) (A) (A) (A) (A) (A)
                 (A) (A) (A) (A) (A) (A) (A) (A) (A) (A) (A) (A)
                 (A) (A) (A) (A) (A) (A) (A) (A) (A) (A) (A) (A)
                 (A) (A) (A) (A) (A) (A) (A) (A) (A) (A) (A) (A)
                 (A) (A) (A) (A) (A) (A) (A) (A) (A) (A) (A) (A)
                 (A) (A) (A) (A) (A) (A) (A) (A) (A) (A) (A) (A)
                 (A) (A) (A) (A) (A) (A) (A) (A) (A) (A) (A) (A)
                 (A) (A) (A) (A)
 The electronic state is 1-A.
 Alpha  occ. eigenvalues --  -15.53962 -11.23913 -11.23787 -11.23566 -11.21320
 Alpha  occ. eigenvalues --  -11.21264 -11.20980  -1.23406  -1.05873  -1.01128
 Alpha  occ. eigenvalues --   -0.93376  -0.84717  -0.83613  -0.73706  -0.65431
 Alpha  occ. eigenvalues --   -0.64051  -0.62465  -0.60399  -0.57247  -0.54420
 Alpha  occ. eigenvalues --   -0.52873  -0.52537  -0.50342  -0.48657  -0.45342
 Alpha  occ. eigenvalues --   -0.43859  -0.43557  -0.35575
 Alpha virt. eigenvalues --    0.13733   0.15975   0.16773   0.17223   0.19597
 Alpha virt. eigenvalues --    0.20392   0.20671   0.21564   0.23833   0.24301
 Alpha virt. eigenvalues --    0.25326   0.26200   0.27723   0.29237   0.31790
 Alpha virt. eigenvalues --    0.34070   0.35729   0.36661   0.37268   0.39290
 Alpha virt. eigenvalues --    0.41080   0.43864   0.45142   0.46140   0.47173
 Alpha virt. eigenvalues --    0.49808   0.52050   0.52417   0.54486   0.56038
 Alpha virt. eigenvalues --    0.56922   0.57326   0.59176   0.59359   0.60135
 Alpha virt. eigenvalues --    0.61373   0.61696   0.62959   0.63877   0.64499
 Alpha virt. eigenvalues --    0.64977   0.65437   0.66630   0.67674   0.67865
 Alpha virt. eigenvalues --    0.68329   0.69485   0.69536   0.70984   0.73064
 Alpha virt. eigenvalues --    0.75163   0.75703   0.77051   0.80476   0.84025
 Alpha virt. eigenvalues --    0.89556   0.92361   0.93195   0.94255   0.95901
 Alpha virt. eigenvalues --    0.98654   0.99993   1.01200   1.02734   1.04283
 Alpha virt. eigenvalues --    1.07033   1.08554   1.10542   1.12304   1.12929
 Alpha virt. eigenvalues --    1.15614   1.16632   1.19123   1.19503   1.21227
 Alpha virt. eigenvalues --    1.21570   1.23109   1.24199   1.25425   1.27389
 Alpha virt. eigenvalues --    1.28114   1.28888   1.30616   1.31606   1.33245
 Alpha virt. eigenvalues --    1.33761   1.34479   1.35747   1.37062   1.39198
 Alpha virt. eigenvalues --    1.40117   1.40954   1.41469   1.43590   1.44052
 Alpha virt. eigenvalues --    1.45102   1.45617   1.48380   1.48941   1.50263
 Alpha virt. eigenvalues --    1.51516   1.52636   1.54040   1.55128   1.57349
 Alpha virt. eigenvalues --    1.57916   1.58796   1.59834   1.61639   1.62815
 Alpha virt. eigenvalues --    1.64811   1.65756   1.68243   1.69672   1.70441
 Alpha virt. eigenvalues --    1.72230   1.73855   1.75282   1.77106   1.79516
 Alpha virt. eigenvalues --    1.80078   1.81607   1.83242   1.85356   1.88464
 Alpha virt. eigenvalues --    1.90000   1.93121   1.95702   2.01271   2.08141
 Alpha virt. eigenvalues --    2.12694   2.17161   2.18604   2.22289   2.25301
 Alpha virt. eigenvalues --    2.48824   2.55076   2.58723   2.60114   2.61739
 Alpha virt. eigenvalues --    2.63775   2.64158   2.70871   2.72250   2.76328
 Alpha virt. eigenvalues --    2.79514   2.80268   2.81073   2.85048   2.87250
 Alpha virt. eigenvalues --    2.89891   2.91234   2.92107   2.94248   2.95771
 Alpha virt. eigenvalues --    2.99779   3.00991   3.01900   3.03303   3.03821
 Alpha virt. eigenvalues --    3.04718   3.06865   3.07215   3.09281   3.10038
 Alpha virt. eigenvalues --    3.12148   3.12654   3.13788   3.15427   3.18847
 Alpha virt. eigenvalues --    3.19232   3.21433   3.22396   3.25191   3.26210
 Alpha virt. eigenvalues --    3.28024   3.30304   3.30505   3.31527   3.32116
 Alpha virt. eigenvalues --    3.33509   3.33926   3.35952   3.37927   3.38601
 Alpha virt. eigenvalues --    3.38803   3.40616   3.41878   3.42434   3.43693
 Alpha virt. eigenvalues --    3.45872   3.46845   3.47266   3.47757   3.49335
 Alpha virt. eigenvalues --    3.51016   3.51958   3.53488   3.54214   3.55226
 Alpha virt. eigenvalues --    3.56521   3.58315   3.59293   3.60792   3.62022
 Alpha virt. eigenvalues --    3.64888   3.65544   3.66216   3.69432   3.71215
 Alpha virt. eigenvalues --    3.72142   3.73710   3.75379   3.76747   3.78706
 Alpha virt. eigenvalues --    3.79882   3.82339   3.84170   3.85298   3.86475
 Alpha virt. eigenvalues --    3.88445   3.89370   3.90220   3.90926   3.93158
 Alpha virt. eigenvalues --    3.94637   3.96289   3.97735   3.98757   4.00223
 Alpha virt. eigenvalues --    4.01732   4.02457   4.04159   4.04970   4.07335
 Alpha virt. eigenvalues --    4.08453   4.10223   4.10444   4.10961   4.13847
 Alpha virt. eigenvalues --    4.15830   4.16808   4.18882   4.20116   4.22120
 Alpha virt. eigenvalues --    4.24387   4.24981   4.27555   4.28186   4.29319
 Alpha virt. eigenvalues --    4.30048   4.32493   4.33432   4.34476   4.36673
 Alpha virt. eigenvalues --    4.37788   4.38480   4.39257   4.41412   4.42902
 Alpha virt. eigenvalues --    4.43725   4.44706   4.46503   4.46995   4.48224
 Alpha virt. eigenvalues --    4.50086   4.51098   4.53076   4.53642   4.55200
 Alpha virt. eigenvalues --    4.56941   4.58209   4.59485   4.60264   4.62377
 Alpha virt. eigenvalues --    4.64352   4.66552   4.67752   4.69917   4.72472
 Alpha virt. eigenvalues --    4.73396   4.75212   4.76642   4.78641   4.80331
 Alpha virt. eigenvalues --    4.83732   4.85406   4.86709   4.89713   4.90501
 Alpha virt. eigenvalues --    4.91278   4.94389   4.98581   5.01540   5.02592
 Alpha virt. eigenvalues --    5.03981   5.06521   5.11864   5.15248   5.16933
 Alpha virt. eigenvalues --    5.20489   5.23444   5.25802   5.26463   5.28502
 Alpha virt. eigenvalues --    5.30733   5.33116   5.34297   5.36042   5.37987
 Alpha virt. eigenvalues --    5.39183   5.42644   5.42745   5.45998   5.47539
 Alpha virt. eigenvalues --    5.48305   5.50349   5.51516   5.54154   5.55400
 Alpha virt. eigenvalues --    5.56428   5.58363   5.59739   5.61262   5.64173
 Alpha virt. eigenvalues --    5.66509   5.68564   5.70008   5.72318   5.76265
 Alpha virt. eigenvalues --    5.77465   5.80321   5.82535   5.84210   5.88168
 Alpha virt. eigenvalues --    5.89397   5.93318   5.97672   5.99308   6.01911
 Alpha virt. eigenvalues --    6.03396   6.09030   6.10637   6.14217   6.19840
 Alpha virt. eigenvalues --    6.23263   6.24692   6.29145   6.33822   6.35899
 Alpha virt. eigenvalues --    6.37103   6.41494   6.43783   6.45773   6.46657
 Alpha virt. eigenvalues --    6.51889   6.55294  10.86763  11.88508  12.84760
 Alpha virt. eigenvalues --   13.48803  13.75835  14.08836  14.39226
          Condensed to atoms (all electrons):
               1          2          3          4          5          6
     1  C    4.911197   0.319282  -0.037609  -0.002455  -0.033461   0.340259
     2  C    0.319282   4.894426   0.330380  -0.034287  -0.003313  -0.035205
     3  C   -0.037609   0.330380   4.859613   0.365276  -0.047122  -0.005865
     4  C   -0.002455  -0.034287   0.365276   4.765400   0.326058  -0.050514
     5  N   -0.033461  -0.003313  -0.047122   0.326058   6.609151   0.337073
     6  C    0.340259  -0.035205  -0.005865  -0.050514   0.337073   4.749120
     7  H    0.433041  -0.036336   0.004617  -0.000809   0.003496  -0.038667
     8  H    0.428722  -0.043174   0.004655  -0.000678   0.003146  -0.038277
     9  H   -0.035260   0.436236  -0.036343   0.005383  -0.001260   0.003110
    10  H   -0.045762   0.435582  -0.041989   0.002307  -0.000222   0.004892
    11  H    0.002126  -0.039300   0.419421  -0.038423   0.005007   0.000621
    12  H    0.005289  -0.039202   0.431574  -0.039936   0.005101  -0.000595
    13  H   -0.000268   0.005657  -0.031486   0.431907  -0.028396   0.007412
    14  H   -0.006504  -0.000935  -0.052410   0.421586  -0.063070  -0.006349
    15  C    0.005604  -0.000201   0.005752  -0.051112   0.347806  -0.055374
    16  H   -0.028262   0.004933  -0.000818   0.008980  -0.028732   0.428744
    17  H   -0.065991   0.002533  -0.000329  -0.019127  -0.070345   0.442918
    18  H    0.000468  -0.000017  -0.000294   0.008669  -0.034446  -0.008336
    19  H   -0.001569   0.000108  -0.000917  -0.010474  -0.065714  -0.010089
    20  H   -0.000168  -0.000051   0.000454  -0.008710  -0.033548   0.008314
               7          8          9         10         11         12
     1  C    0.433041   0.428722  -0.035260  -0.045762   0.002126   0.005289
     2  C   -0.036336  -0.043174   0.436236   0.435582  -0.039300  -0.039202
     3  C    0.004617   0.004655  -0.036343  -0.041989   0.419421   0.431574
     4  C   -0.000809  -0.000678   0.005383   0.002307  -0.038423  -0.039936
     5  N    0.003496   0.003146  -0.001260  -0.000222   0.005007   0.005101
     6  C   -0.038667  -0.038277   0.003110   0.004892   0.000621  -0.000595
     7  H    0.582075  -0.034546   0.003188  -0.011979  -0.000273  -0.000041
     8  H   -0.034546   0.597070  -0.012775   0.005888   0.000191  -0.000314
     9  H    0.003188  -0.012775   0.584303  -0.036914  -0.012172   0.001240
    10  H   -0.011979   0.005888  -0.036914   0.597274   0.006888  -0.011328
    11  H   -0.000273   0.000191  -0.012172   0.006888   0.598488  -0.031075
    12  H   -0.000041  -0.000314   0.001240  -0.011328  -0.031075   0.584334
    13  H    0.000058   0.000058  -0.000190  -0.000366  -0.010325  -0.003675
    14  H    0.000503   0.000223  -0.000629   0.001444   0.010036  -0.000233
    15  C   -0.000315  -0.000280   0.000044   0.000053   0.000095  -0.000369
    16  H    0.000471  -0.013416  -0.000061  -0.000402  -0.000074   0.000063
    17  H   -0.004870   0.008734  -0.000707   0.000629   0.000425   0.000396
    18  H   -0.000059  -0.000044  -0.000000  -0.000003  -0.000043   0.000015
    19  H    0.000112   0.000062  -0.000020   0.000018   0.000257   0.000119
    20  H    0.000016   0.000020   0.000000  -0.000002  -0.000159  -0.000072
              13         14         15         16         17         18
     1  C   -0.000268  -0.006504   0.005604  -0.028262  -0.065991   0.000468
     2  C    0.005657  -0.000935  -0.000201   0.004933   0.002533  -0.000017
     3  C   -0.031486  -0.052410   0.005752  -0.000818  -0.000329  -0.000294
     4  C    0.431907   0.421586  -0.051112   0.008980  -0.019127   0.008669
     5  N   -0.028396  -0.063070   0.347806  -0.028732  -0.070345  -0.034446
     6  C    0.007412  -0.006349  -0.055374   0.428744   0.442918  -0.008336
     7  H    0.000058   0.000503  -0.000315   0.000471  -0.004870  -0.000059
     8  H    0.000058   0.000223  -0.000280  -0.013416   0.008734  -0.000044
     9  H   -0.000190  -0.000629   0.000044  -0.000061  -0.000707  -0.000000
    10  H   -0.000366   0.001444   0.000053  -0.000402   0.000629  -0.000003
    11  H   -0.010325   0.010036   0.000095  -0.000074   0.000425  -0.000043
    12  H   -0.003675  -0.000233  -0.000369   0.000063   0.000396   0.000015
    13  H    0.584850  -0.042216  -0.009863  -0.000315   0.000043   0.000402
    14  H   -0.042216   0.657692  -0.004918  -0.000184   0.016171  -0.000796
    15  C   -0.009863  -0.004918   4.707912  -0.007636  -0.009087   0.423395
    16  H   -0.000315  -0.000184  -0.007636   0.595026  -0.051018   0.003299
    17  H    0.000043   0.016171  -0.009087  -0.051018   0.683572  -0.002273
    18  H    0.000402  -0.000796   0.423395   0.003299  -0.002273   0.588576
    19  H   -0.002625   0.013806   0.413914  -0.002601   0.018225  -0.047409
    20  H    0.002971  -0.001139   0.423540   0.000202  -0.000629  -0.025696
              19         20
     1  C   -0.001569  -0.000168
     2  C    0.000108  -0.000051
     3  C   -0.000917   0.000454
     4  C   -0.010474  -0.008710
     5  N   -0.065714  -0.033548
     6  C   -0.010089   0.008314
     7  H    0.000112   0.000016
     8  H    0.000062   0.000020
     9  H   -0.000020   0.000000
    10  H    0.000018  -0.000002
    11  H    0.000257  -0.000159
    12  H    0.000119  -0.000072
    13  H   -0.002625   0.002971
    14  H    0.013806  -0.001139
    15  C    0.413914   0.423540
    16  H   -0.002601   0.000202
    17  H    0.018225  -0.000629
    18  H   -0.047409  -0.025696
    19  H    0.686583  -0.046374
    20  H   -0.046374   0.585146
 Mulliken charges:
               1
     1  C   -0.188678
     2  C   -0.197116
     3  C   -0.166558
     4  C   -0.079042
     5  N   -0.227208
     6  C   -0.073192
     7  H    0.100316
     8  H    0.094735
     9  H    0.102827
    10  H    0.093990
    11  H    0.088288
    12  H    0.098709
    13  H    0.096367
    14  H    0.057922
    15  C   -0.188961
    16  H    0.091803
    17  H    0.050729
    18  H    0.094592
    19  H    0.054589
    20  H    0.095885
 Sum of Mulliken charges =  -0.00000
 Mulliken charges with hydrogens summed into heavy atoms:
               1
     1  C    0.006374
     2  C   -0.000299
     3  C    0.020439
     4  C    0.075247
     5  N   -0.227208
     6  C    0.069341
    15  C    0.056106
 Electronic spatial extent (au):  <R**2>=            819.8426
 Charge=              0.0000 electrons
 Dipole moment (field-independent basis, Debye):
    X=              0.0540    Y=              0.0441    Z=              0.6266  Tot=              0.6304
 Quadrupole moment (field-independent basis, Debye-Ang):
   XX=            -45.3177   YY=            -45.0346   ZZ=            -47.3027
   XY=             -0.0875   XZ=             -0.0522   YZ=             -0.3439
 Traceless Quadrupole moment (field-independent basis, Debye-Ang):
   XX=              0.5673   YY=              0.8504   ZZ=             -1.4177
   XY=             -0.0875   XZ=             -0.0522   YZ=             -0.3439
 Octapole moment (field-independent basis, Debye-Ang**2):
  XXX=              5.5845  YYY=             -0.6535  ZZZ=             -0.2708  XYY=              2.6982
  XXY=             -0.4174  XXZ=             -1.7640  XZZ=             -2.1095  YZZ=              0.6151
  YYZ=             -1.8462  XYZ=             -0.1122
 Hexadecapole moment (field-independent basis, Debye-Ang**3):
 XXXX=           -669.9516 YYYY=           -364.5102 ZZZZ=           -109.5549 XXXY=             -0.3813
 XXXZ=             -7.6284 YYYX=             -0.9927 YYYZ=             -2.2797 ZZZX=              1.0701
 ZZZY=              0.3601 XXYY=           -170.2564 XXZZ=           -126.9082 YYZZ=            -77.5980
 XXYZ=             -1.1332 YYXZ=             -4.9800 ZZXY=             -0.0076
 N-N= 3.342935117191D+02 E-N=-1.342394558330D+03  KE= 2.890341448538D+02
 1\1\GINC-C7031\FOpt\RMP2-FC\CC-pVTZ\C6H13N1\ROOT\17-Jul-2018\0\\# opt=
 modredundant mp2/cc-pVTZ\\N-me-piperidine-sofa-eq\\0,1\C,-1.2564260318
 ,-1.1183100177,-0.4366238879\C,-0.0541590076,-1.9355596348,0.099673750
 8\C,1.1635008944,-1.1381782741,0.606056497\C,0.8843935975,0.3383917986
 ,0.8040698323\N,0.2497239308,0.8690691009,-0.3938554907\C,-1.129184292
 6,0.4100134133,-0.399168723\H,-2.1619081977,-1.4003533986,0.0974269045
 \H,-1.4172898583,-1.4070047382,-1.4746972714\H,0.2745187418,-2.6267503
 164,-0.6725938133\H,-0.4138738304,-2.5599165475,0.9176223469\H,1.96557
 33141,-1.2052883141,-0.1287747432\H,1.5406423852,-1.5746515137,1.53095
 63759\H,1.8221068141,0.8693755027,0.9714174157\H,0.2446406826,0.514592
 5289,1.6878611085\C,0.2709087829,2.3206614215,-0.3813115313\H,-1.63781
 87717,0.8394629922,-1.2623380613\H,-1.6387014062,0.803847776,0.4997984
 735\H,-0.2185050048,2.7021261311,-1.2762797824\H,-0.247246656,2.736581
 4566,0.4976435692\H,1.3006039139,2.6738192335,-0.3735971699\\Version=E
 S64L-G09RevE.01\State=1-A\HF=-289.3003506\MP2=-290.553477\RMSD=9.920e-
 09\RMSF=2.096e-03\Dipole=-0.094112,0.0368506,0.1606998\PG=C01 [X(C6H13
 N1)]\\@


 ... UNTIL SCIENCE IS MIXED WITH EMOTION AND APPEALS TO THE HEART AND
 IMAGINATION , IT IS LIKE DEAD INORGANIC MATTER; AND WHEN IT IS SO MIXED
 AND SO TRANSFORMED IT IS LITERATURE.

                                  -- JOHN BURROUGHS
 Job cpu time:       0 days 22 hours 58 minutes 57.4 seconds.
 File lengths (MBytes):  RWF=     81 Int=      0 D2E=      0 Chk=     16 Scr=      1
 Normal termination of Gaussian 09 at Tue Jul 17 16:54:58 2018.
