 Entering Gaussian System, Link 0=g09
 Input=21.gjf
 Output=21.out
 Initial command:
 /usr/local/g09/l1.exe /home/scratch/stylianakis/Gau-21854.inp -scrdir=/home/scratch/stylianakis/
 Entering Link 1 = /usr/local/g09/l1.exe PID=     21855.
  
 Copyright (c) 1988,1990,1992,1993,1995,1998,2003,2009, Gaussian, Inc.
                  All Rights Reserved.
  
 This is part of the Gaussian(R) 09 program.  It is based on
 the Gaussian(R) 03 system (copyright 2003, Gaussian, Inc.),
 the Gaussian(R) 98 system (copyright 1998, Gaussian, Inc.),
 the Gaussian(R) 94 system (copyright 1995, Gaussian, Inc.),
 the Gaussian 92(TM) system (copyright 1992, Gaussian, Inc.),
 the Gaussian 90(TM) system (copyright 1990, Gaussian, Inc.),
 the Gaussian 88(TM) system (copyright 1988, Gaussian, Inc.),
 the Gaussian 86(TM) system (copyright 1986, Carnegie Mellon
 University), and the Gaussian 82(TM) system (copyright 1983,
 Carnegie Mellon University). Gaussian is a federally registered
 trademark of Gaussian, Inc.
  
 This software contains proprietary and confidential information,
 including trade secrets, belonging to Gaussian, Inc.
  
 This software is provided under written license and may be
 used, copied, transmitted, or stored only in accord with that
 written license.
  
 The following legend is applicable only to US Government
 contracts under FAR:
  
                    RESTRICTED RIGHTS LEGEND
  
 Use, reproduction and disclosure by the US Government is
 subject to restrictions as set forth in subparagraphs (a)
 and (c) of the Commercial Computer Software - Restricted
 Rights clause in FAR 52.227-19.
  
 Gaussian, Inc.
 340 Quinnipiac St., Bldg. 40, Wallingford CT 06492
  
  
 ---------------------------------------------------------------
 Warning -- This program may not be used in any manner that
 competes with the business of Gaussian, Inc. or will provide
 assistance to any competitor of Gaussian, Inc.  The licensee
 of this program is prohibited from giving any competitor of
 Gaussian, Inc. access to this program.  By using this program,
 the user acknowledges that Gaussian, Inc. is engaged in the
 business of creating and licensing software in the field of
 computational chemistry and represents and warrants to the
 licensee that it is not a competitor of Gaussian, Inc. and that
 it will not use this program in any manner prohibited above.
 ---------------------------------------------------------------
  

 Cite this work as:
 Gaussian 09, Revision A.01,
 M. J. Frisch, G. W. Trucks, H. B. Schlegel, G. E. Scuseria, 
 M. A. Robb, J. R. Cheeseman, G. Scalmani, V. Barone, B. Mennucci, 
 G. A. Petersson, H. Nakatsuji, M. Caricato, X. Li, H. P. Hratchian, 
 A. F. Izmaylov, J. Bloino, G. Zheng, J. L. Sonnenberg, M. Hada, 
 M. Ehara, K. Toyota, R. Fukuda, J. Hasegawa, M. Ishida, T. Nakajima, 
 Y. Honda, O. Kitao, H. Nakai, T. Vreven, J. A. Montgomery, Jr., 
 J. E. Peralta, F. Ogliaro, M. Bearpark, J. J. Heyd, E. Brothers, 
 K. N. Kudin, V. N. Staroverov, R. Kobayashi, J. Normand, 
 K. Raghavachari, A. Rendell, J. C. Burant, S. S. Iyengar, J. Tomasi, 
 M. Cossi, N. Rega, J. M. Millam, M. Klene, J. E. Knox, J. B. Cross, 
 V. Bakken, C. Adamo, J. Jaramillo, R. Gomperts, R. E. Stratmann, 
 O. Yazyev, A. J. Austin, R. Cammi, C. Pomelli, J. W. Ochterski, 
 R. L. Martin, K. Morokuma, V. G. Zakrzewski, G. A. Voth, 
 P. Salvador, J. J. Dannenberg, S. Dapprich, A. D. Daniels, 
 O. Farkas, J. B. Foresman, J. V. Ortiz, J. Cioslowski, 
 and D. J. Fox, Gaussian, Inc., Wallingford CT, 2009.
 
 ******************************************
 Gaussian 09:  EM64L-G09RevA.01  8-May-2009
                 4-Jun-2016 
 ******************************************
 %mem=8000Mb
 %nproc=8
 Will use up to    8 processors via shared memory.
 -------------
 # mp2/cc-pVTZ
 -------------
 1/38=1/1;
 2/12=2,17=6,18=5,40=1/2;
 3/5=16,6=1,11=9,16=1,25=1,30=1/1,2,3;
 4//1;
 5/5=2,38=5/2;
 8/10=1/1;
 9/16=-3/6;
 6/7=2,8=2,9=2,10=2/1;
 99/5=1,9=1/99;
 --------------------
 N-Me-Acetamide-E.hin
 --------------------
 Symbolic Z-matrix:
 Charge =  0 Multiplicity = 1
 C                    -2.05855  -0.71425   0.61075 
 C                    -1.36384  -0.35298  -0.69095 
 N                    -0.54978   0.76052  -0.7383 
 C                    -0.31007   1.62308   0.39243 
 O                    -1.51818  -1.02988  -1.67921 
 H                    -2.67623  -1.63312   0.48748 
 H                    -1.3118   -0.91588   1.41177 
 H                    -2.73767   0.10663   0.93459 
 H                    -0.11622   0.94097  -1.6471 
 H                    -1.25895   2.08877   0.74267 
 H                     0.1739    1.06102   1.22297 
 H                     0.37992   2.43612   0.07385 
 
                          Input orientation:                          
 ---------------------------------------------------------------------
 Center     Atomic      Atomic             Coordinates (Angstroms)
 Number     Number       Type             X           Y           Z
 ---------------------------------------------------------------------
      1          6           0       -2.058550   -0.714250    0.610750
      2          6           0       -1.363840   -0.352980   -0.690950
      3          7           0       -0.549780    0.760520   -0.738300
      4          6           0       -0.310070    1.623080    0.392430
      5          8           0       -1.518180   -1.029880   -1.679210
      6          1           0       -2.676230   -1.633120    0.487480
      7          1           0       -1.311800   -0.915880    1.411770
      8          1           0       -2.737670    0.106630    0.934590
      9          1           0       -0.116220    0.940970   -1.647100
     10          1           0       -1.258950    2.088770    0.742670
     11          1           0        0.173900    1.061020    1.222970
     12          1           0        0.379920    2.436120    0.073850
 ---------------------------------------------------------------------
                    Distance matrix (angstroms):
                    1          2          3          4          5
     1  C    0.000000
     2  C    1.519066   0.000000
     3  N    2.504250   1.380151   0.000000
     4  C    2.927107   2.487761   1.442228   0.000000
     5  O    2.373929   1.207755   2.242463   3.576230   0.000000
     6  H    1.114023   2.179409   3.428387   4.026237   2.529728
     7  H    1.113518   2.177383   2.830864   2.913561   3.099959
     8  H    1.113517   2.177391   2.830724   2.913211   3.100123
     9  H    3.407387   2.035948   1.022963   2.159290   2.418837
    10  H    2.917822   2.833445   2.111976   1.113512   3.957105
    11  H    2.917230   2.833219   2.112012   1.113524   3.956974
    12  H    4.019854   3.377084   2.081241   1.112930   4.323096
                    6          7          8          9         10
     6  H    0.000000
     7  H    1.797335   0.000000
     8  H    1.797335   1.818332   0.000000
     9  H    4.211416   3.772796   3.772698   0.000000
    10  H    3.990773   3.078703   2.480388   2.886915   0.000000
    11  H    3.990310   2.480138   3.077542   2.887193   1.827571
    12  H    5.105865   3.985957   3.985820   2.333088   1.803848
                   11         12
    11  H    0.000000
    12  H    1.803835   0.000000
 Stoichiometry    C3H7NO
 Framework group  C1[X(C3H7NO)]
 Deg. of freedom    30
 Full point group                 C1      NOp   1
 Largest Abelian subgroup         C1      NOp   1
 Largest concise Abelian subgroup C1      NOp   1
                         Standard orientation:                         
 ---------------------------------------------------------------------
 Center     Atomic      Atomic             Coordinates (Angstroms)
 Number     Number       Type             X           Y           Z
 ---------------------------------------------------------------------
      1          6           0        0.807076    1.326644   -0.000003
      2          6           0        0.597036   -0.177831    0.000017
      3          7           0       -0.687434   -0.682761   -0.000020
      4          6           0       -1.869971    0.142847    0.000010
      5          8           0        1.541258   -0.930902    0.000000
      6          1           0        1.893241    1.574219    0.000230
      7          1           0        0.357563    1.786043   -0.909296
      8          1           0        0.357150    1.786137    0.909036
      9          1           0       -0.750786   -1.703761    0.000004
     10          1           0       -1.908968    0.777669    0.914006
     11          1           0       -1.908613    0.778317   -0.913566
     12          1           0       -2.762460   -0.522041   -0.000419
 ---------------------------------------------------------------------
 Rotational constants (GHZ):      8.6620335      4.1626877      2.9203764
 Standard basis: CC-pVTZ (5D, 7F)
 There are   248 symmetry adapted basis functions of A   symmetry.
 Integral buffers will be    131072 words long.
 Raffenetti 1 integral format.
 Two-electron integral symmetry is turned on.
   248 basis functions,   379 primitive gaussians,   280 cartesian basis functions
    20 alpha electrons       20 beta electrons
       nuclear repulsion energy       179.7446442891 Hartrees.
 NAtoms=   12 NActive=   12 NUniq=   12 SFac= 7.50D-01 NAtFMM=   80 NAOKFM=F Big=F
 One-electron integrals computed using PRISM.
 NBasis=   248 RedAO= T  NBF=   248
 NBsUse=   248 1.00D-06 NBFU=   248
 Harris functional with IExCor=  205 diagonalized for initial guess.
 ExpMin= 1.03D-01 ExpMax= 1.53D+04 ExpMxC= 5.22D+02 IAcc=1 IRadAn=         1 AccDes= 0.00D+00
 HarFok:  IExCor=  205 AccDes= 0.00D+00 IRadAn=         1 IDoV= 1
 ScaDFX=  1.000000  1.000000  1.000000  1.000000
 FoFCou: FMM=F IPFlag=           0 FMFlag=      100000 FMFlg1=           0
         NFxFlg=           0 DoJE=T BraDBF=F KetDBF=T FulRan=T
         Omega=  0.000000  0.000000  1.000000  0.000000  0.000000 ICntrl=     500 IOpCl=  0
         NMat0=    1 NMatS0=    1 NMatT0=    0 NMatD0=    1 NMtDS0=    0 NMtDT0=    0
         I1Cent=           4 NGrid=           0.
 Petite list used in FoFCou.
 Initial guess orbital symmetries:
       Occupied  (A) (A) (A) (A) (A) (A) (A) (A) (A) (A) (A) (A)
                 (A) (A) (A) (A) (A) (A) (A) (A)
       Virtual   (A) (A) (A) (A) (A) (A) (A) (A) (A) (A) (A) (A)
                 (A) (A) (A) (A) (A) (A) (A) (A) (A) (A) (A) (A)
                 (A) (A) (A) (A) (A) (A) (A) (A) (A) (A) (A) (A)
                 (A) (A) (A) (A) (A) (A) (A) (A) (A) (A) (A) (A)
                 (A) (A) (A) (A) (A) (A) (A) (A) (A) (A) (A) (A)
                 (A) (A) (A) (A) (A) (A) (A) (A) (A) (A) (A) (A)
                 (A) (A) (A) (A) (A) (A) (A) (A) (A) (A) (A) (A)
                 (A) (A) (A) (A) (A) (A) (A) (A) (A) (A) (A) (A)
                 (A) (A) (A) (A) (A) (A) (A) (A) (A) (A) (A) (A)
                 (A) (A) (A) (A) (A) (A) (A) (A) (A) (A) (A) (A)
                 (A) (A) (A) (A) (A) (A) (A) (A) (A) (A) (A) (A)
                 (A) (A) (A) (A) (A) (A) (A) (A) (A) (A) (A) (A)
                 (A) (A) (A) (A) (A) (A) (A) (A) (A) (A) (A) (A)
                 (A) (A) (A) (A) (A) (A) (A) (A) (A) (A) (A) (A)
                 (A) (A) (A) (A) (A) (A) (A) (A) (A) (A) (A) (A)
                 (A) (A) (A) (A) (A) (A) (A) (A) (A) (A) (A) (A)
                 (A) (A) (A) (A) (A) (A) (A) (A) (A) (A) (A) (A)
                 (A) (A) (A) (A) (A) (A) (A) (A) (A) (A) (A) (A)
                 (A) (A) (A) (A) (A) (A) (A) (A) (A) (A) (A) (A)
 The electronic state of the initial guess is 1-A.
 Requested convergence on RMS density matrix=1.00D-08 within 128 cycles.
 Requested convergence on MAX density matrix=1.00D-06.
 Requested convergence on             energy=1.00D-06.
 No special actions if energy rises.
 Keep R1 ints in memory in canonical form, NReq=785188994.
 SCF Done:  E(RHF) =  -247.089966554     A.U. after   13 cycles
             Convg  =    0.3155D-08             -V/T =  2.0022
 ExpMin= 1.03D-01 ExpMax= 1.53D+04 ExpMxC= 5.22D+02 IAcc=1 IRadAn=         1 AccDes= 0.00D+00
 HarFok:  IExCor=  205 AccDes= 0.00D+00 IRadAn=         1 IDoV=-2
 ScaDFX=  1.000000  1.000000  1.000000  1.000000
 Range of M.O.s used for correlation:     6   248
 NBasis=   248 NAE=    20 NBE=    20 NFC=     5 NFV=     0
 NROrb=    243 NOA=    15 NOB=    15 NVA=   228 NVB=   228

 **** Warning!!: The largest alpha MO coefficient is  0.10772727D+02

 Fully direct method using O(OVN) memory.
 JobTyp=1 Pass  1:  I=   1 to  15 NPSUse=  8 ParTrn=T ParDer=T DoDerP=F.
 Spin components of T(2) and E(2):
     alpha-alpha T2 =       0.3443239295D-01 E2=     -0.1142526385D+00
     alpha-beta  T2 =       0.2033885860D+00 E2=     -0.7220564081D+00
     beta-beta   T2 =       0.3443239295D-01 E2=     -0.1142526385D+00
 ANorm=    0.1127942096D+01
 E2 =    -0.9505616851D+00 EUMP2 =    -0.24804052823884D+03

 **********************************************************************

            Population analysis using the SCF density.

 **********************************************************************

 Orbital symmetries:
       Occupied  (A) (A) (A) (A) (A) (A) (A) (A) (A) (A) (A) (A)
                 (A) (A) (A) (A) (A) (A) (A) (A)
       Virtual   (A) (A) (A) (A) (A) (A) (A) (A) (A) (A) (A) (A)
                 (A) (A) (A) (A) (A) (A) (A) (A) (A) (A) (A) (A)
                 (A) (A) (A) (A) (A) (A) (A) (A) (A) (A) (A) (A)
                 (A) (A) (A) (A) (A) (A) (A) (A) (A) (A) (A) (A)
                 (A) (A) (A) (A) (A) (A) (A) (A) (A) (A) (A) (A)
                 (A) (A) (A) (A) (A) (A) (A) (A) (A) (A) (A) (A)
                 (A) (A) (A) (A) (A) (A) (A) (A) (A) (A) (A) (A)
                 (A) (A) (A) (A) (A) (A) (A) (A) (A) (A) (A) (A)
                 (A) (A) (A) (A) (A) (A) (A) (A) (A) (A) (A) (A)
                 (A) (A) (A) (A) (A) (A) (A) (A) (A) (A) (A) (A)
                 (A) (A) (A) (A) (A) (A) (A) (A) (A) (A) (A) (A)
                 (A) (A) (A) (A) (A) (A) (A) (A) (A) (A) (A) (A)
                 (A) (A) (A) (A) (A) (A) (A) (A) (A) (A) (A) (A)
                 (A) (A) (A) (A) (A) (A) (A) (A) (A) (A) (A) (A)
                 (A) (A) (A) (A) (A) (A) (A) (A) (A) (A) (A) (A)
                 (A) (A) (A) (A) (A) (A) (A) (A) (A) (A) (A) (A)
                 (A) (A) (A) (A) (A) (A) (A) (A) (A) (A) (A) (A)
                 (A) (A) (A) (A) (A) (A) (A) (A) (A) (A) (A) (A)
                 (A) (A) (A) (A) (A) (A) (A) (A) (A) (A) (A) (A)
 The electronic state is 1-A.
 Alpha  occ. eigenvalues --  -20.50681 -15.57799 -11.34364 -11.27896 -11.24367
 Alpha  occ. eigenvalues --   -1.37916  -1.22151  -0.99691  -0.94283  -0.77539
 Alpha  occ. eigenvalues --   -0.66890  -0.66188  -0.63837  -0.57842  -0.57526
 Alpha  occ. eigenvalues --   -0.55305  -0.54884  -0.51302  -0.41472  -0.38385
 Alpha virt. eigenvalues --    0.12514   0.15594   0.17524   0.18387   0.19166
 Alpha virt. eigenvalues --    0.21107   0.23671   0.27233   0.28403   0.30415
 Alpha virt. eigenvalues --    0.35286   0.38296   0.38680   0.41060   0.42643
 Alpha virt. eigenvalues --    0.48784   0.48861   0.53145   0.53884   0.57435
 Alpha virt. eigenvalues --    0.60057   0.60429   0.61137   0.61412   0.62777
 Alpha virt. eigenvalues --    0.63769   0.65430   0.66205   0.68533   0.71729
 Alpha virt. eigenvalues --    0.73652   0.76937   0.79053   0.80909   0.82738
 Alpha virt. eigenvalues --    0.87662   0.91355   0.92699   0.96684   0.99430
 Alpha virt. eigenvalues --    1.00158   1.02540   1.07444   1.10196   1.11451
 Alpha virt. eigenvalues --    1.13333   1.14704   1.16029   1.17873   1.19454
 Alpha virt. eigenvalues --    1.23904   1.24093   1.27215   1.30261   1.30322
 Alpha virt. eigenvalues --    1.36403   1.37440   1.41482   1.42368   1.42819
 Alpha virt. eigenvalues --    1.47478   1.48549   1.49433   1.51139   1.52117
 Alpha virt. eigenvalues --    1.53870   1.54078   1.57505   1.60540   1.65299
 Alpha virt. eigenvalues --    1.68842   1.73073   1.73926   1.77758   1.78243
 Alpha virt. eigenvalues --    1.86800   1.93514   2.00794   2.07140   2.13699
 Alpha virt. eigenvalues --    2.17436   2.24485   2.35934   2.41632   2.44334
 Alpha virt. eigenvalues --    2.48617   2.54409   2.56582   2.62628   2.64541
 Alpha virt. eigenvalues --    2.73286   2.76568   2.83976   2.85410   2.89852
 Alpha virt. eigenvalues --    2.93085   2.95645   2.99152   2.99387   3.05069
 Alpha virt. eigenvalues --    3.06860   3.07171   3.09358   3.11511   3.14032
 Alpha virt. eigenvalues --    3.16838   3.17236   3.19707   3.21000   3.23099
 Alpha virt. eigenvalues --    3.28734   3.29143   3.30225   3.32078   3.33181
 Alpha virt. eigenvalues --    3.34683   3.37685   3.40241   3.41783   3.42461
 Alpha virt. eigenvalues --    3.49074   3.54759   3.57782   3.57846   3.61233
 Alpha virt. eigenvalues --    3.62630   3.63123   3.64525   3.67305   3.69270
 Alpha virt. eigenvalues --    3.71007   3.71613   3.74159   3.74533   3.76328
 Alpha virt. eigenvalues --    3.77844   3.85718   3.86578   3.89299   3.90725
 Alpha virt. eigenvalues --    3.92108   4.00174   4.01588   4.07078   4.07839
 Alpha virt. eigenvalues --    4.10789   4.11222   4.12465   4.14602   4.16025
 Alpha virt. eigenvalues --    4.20275   4.23337   4.25235   4.30045   4.31077
 Alpha virt. eigenvalues --    4.31141   4.33909   4.36129   4.39943   4.40325
 Alpha virt. eigenvalues --    4.43462   4.44950   4.49526   4.51500   4.52521
 Alpha virt. eigenvalues --    4.55659   4.56879   4.62364   4.64985   4.67678
 Alpha virt. eigenvalues --    4.71354   4.77416   4.88151   4.89951   4.93092
 Alpha virt. eigenvalues --    5.00880   5.03938   5.09629   5.10698   5.12752
 Alpha virt. eigenvalues --    5.17154   5.20964   5.21638   5.27959   5.29961
 Alpha virt. eigenvalues --    5.35780   5.39266   5.40385   5.44847   5.46381
 Alpha virt. eigenvalues --    5.48604   5.51608   5.53331   5.55574   5.60478
 Alpha virt. eigenvalues --    5.62496   5.63769   5.66818   5.67794   5.72482
 Alpha virt. eigenvalues --    5.75448   5.81693   5.86788   6.06479   6.08440
 Alpha virt. eigenvalues --    6.11486   6.16726   6.19076   6.20935   6.25226
 Alpha virt. eigenvalues --    6.29583   6.38539   6.44043   6.51752   6.74775
 Alpha virt. eigenvalues --    6.75324   6.94799   6.96979   7.04616   7.35988
 Alpha virt. eigenvalues --    7.39328   7.59731   7.63483   9.47559  12.75447
 Alpha virt. eigenvalues --   13.73849  13.84751  14.21620
          Condensed to atoms (all electrons):
              1          2          3          4          5          6
     1  C    4.958148   0.327824  -0.096015  -0.008422  -0.081389   0.410464
     2  C    0.327824   4.297435   0.419622  -0.033696   0.779226  -0.028629
     3  N   -0.096015   0.419622   6.489474   0.345273  -0.147096   0.003980
     4  C   -0.008422  -0.033696   0.345273   4.626717   0.001175   0.000222
     5  O   -0.081389   0.779226  -0.147096   0.001175   7.849086   0.004467
     6  H    0.410464  -0.028629   0.003980   0.000222   0.004467   0.516859
     7  H    0.387951  -0.024811   0.003329  -0.002123   0.001626  -0.021396
     8  H    0.387934  -0.024812   0.003327  -0.002114   0.001628  -0.021401
     9  H    0.011031  -0.022094   0.349967  -0.029926   0.014649  -0.000380
    10  H   -0.000844  -0.004645  -0.056179   0.417778   0.000234   0.000045
    11  H   -0.000836  -0.004652  -0.056149   0.417746   0.000234   0.000045
    12  H   -0.000593   0.003577  -0.027149   0.419084  -0.000309   0.000034
              7          8          9         10         11         12
     1  C    0.387951   0.387934   0.011031  -0.000844  -0.000836  -0.000593
     2  C   -0.024811  -0.024812  -0.022094  -0.004645  -0.004652   0.003577
     3  N    0.003329   0.003327   0.349967  -0.056179  -0.056149  -0.027149
     4  C   -0.002123  -0.002114  -0.029926   0.417778   0.417746   0.419084
     5  O    0.001626   0.001628   0.014649   0.000234   0.000234  -0.000309
     6  H   -0.021396  -0.021401  -0.000380   0.000045   0.000045   0.000034
     7  H    0.590504  -0.029209  -0.000594   0.000105  -0.002214   0.000271
     8  H   -0.029209   0.590540  -0.000595  -0.002212   0.000100   0.000271
     9  H   -0.000594  -0.000595   0.492316   0.003135   0.003138  -0.010947
    10  H    0.000105  -0.002212   0.003135   0.648999  -0.059805  -0.027945
    11  H   -0.002214   0.000100   0.003138  -0.059805   0.649001  -0.027930
    12  H    0.000271   0.000271  -0.010947  -0.027945  -0.027930   0.566157
 Mulliken atomic charges:
              1
     1  C   -0.295255
     2  C    0.315656
     3  N   -0.232384
     4  C   -0.151713
     5  O   -0.423531
     6  H    0.135689
     7  H    0.096562
     8  H    0.096543
     9  H    0.190299
    10  H    0.081333
    11  H    0.081321
    12  H    0.105479
 Sum of Mulliken atomic charges =   0.00000
 Mulliken charges with hydrogens summed into heavy atoms:
              1
     1  C    0.033540
     2  C    0.315656
     3  N   -0.042084
     4  C    0.116419
     5  O   -0.423531
 Sum of Mulliken charges with hydrogens summed into heavy atoms =   0.00000
 Electronic spatial extent (au):  <R**2>=            450.1201
 Charge=              0.0000 electrons
 Dipole moment (field-independent basis, Debye):
    X=             -3.6040    Y=              1.9133    Z=              0.0000  Tot=              4.0804
 Quadrupole moment (field-independent basis, Debye-Ang):
   XX=            -33.8159   YY=            -29.8969   ZZ=            -31.1510
   XY=              5.4950   XZ=              0.0002   YZ=             -0.0002
 Traceless Quadrupole moment (field-independent basis, Debye-Ang):
   XX=             -2.1946   YY=              1.7244   ZZ=              0.4703
   XY=              5.4950   XZ=              0.0002   YZ=             -0.0002
 Octapole moment (field-independent basis, Debye-Ang**2):
  XXX=            -10.5895  YYY=             -8.0375  ZZZ=              0.0002  XYY=             -4.5838
  XXY=              4.0300  XXZ=             -0.0006  XZZ=              1.0548  YZZ=              0.6852
  YYZ=             -0.0007  XYZ=             -0.0001
 Hexadecapole moment (field-independent basis, Debye-Ang**3):
 XXXX=           -350.6796 YYYY=           -180.0092 ZZZZ=            -44.0759 XXXY=             16.8511
 XXXZ=              0.0052 YYYX=              8.6570 YYYZ=             -0.0009 ZZZX=             -0.0019
 ZZZY=             -0.0010 XXYY=            -90.2683 XXZZ=            -67.4279 YYZZ=            -37.2808
 XXYZ=              0.0019 YYXZ=              0.0010 ZZXY=             -2.6817
 N-N= 1.797446442891D+02 E-N=-9.386104879642D+02  KE= 2.465476182203D+02
 1\1\GINC-ROCK\SP\RMP2-FC\CC-pVTZ\C3H7N1O1\STYLIANAKIS\04-Jun-2016\0\\#
  mp2/cc-pVTZ\\N-Me-Acetamide-E.hin\\0,1\C,0,-2.05855,-0.71425,0.61075\
 C,0,-1.36384,-0.35298,-0.69095\N,0,-0.54978,0.76052,-0.7383\C,0,-0.310
 07,1.62308,0.39243\O,0,-1.51818,-1.02988,-1.67921\H,0,-2.67623,-1.6331
 2,0.48748\H,0,-1.3118,-0.91588,1.41177\H,0,-2.73767,0.10663,0.93459\H,
 0,-0.11622,0.94097,-1.6471\H,0,-1.25895,2.08877,0.74267\H,0,0.1739,1.0
 6102,1.22297\H,0,0.37992,2.43612,0.07385\\Version=EM64L-G09RevA.01\Sta
 te=1-A\HF=-247.0899666\MP2=-248.0405282\RMSD=3.155e-09\PG=C01 [X(C3H7N
 1O1)]\\@


 SOME THINGS ARE EASY, THEY ARE ONLY HARD TO DO.
            -- A. EINSTEIN TO J. O. HIRSCHFELDER
 THE ONLY TROUBLE WITH A SURE THING IS THE UNCERTAINTY.
     -- FROM A TEABAG (BELONGING TO W.H.?)
 Job cpu time:  0 days  0 hours 17 minutes  7.7 seconds.
 File lengths (MBytes):  RWF=     27 Int=      0 D2E=      0 Chk=      4 Scr=      1
 Normal termination of Gaussian 09 at Sat Jun  4 21:53:37 2016.
