 Entering Gaussian System, Link 0=g09
 Input=2.gjf
 Output=2.out
 Initial command:
 /usr/local/g09/l1.exe /home/scratch/stylianakis/Gau-8835.inp -scrdir=/home/scratch/stylianakis/
 Entering Link 1 = /usr/local/g09/l1.exe PID=      8836.
  
 Copyright (c) 1988,1990,1992,1993,1995,1998,2003,2009, Gaussian, Inc.
                  All Rights Reserved.
  
 This is part of the Gaussian(R) 09 program.  It is based on
 the Gaussian(R) 03 system (copyright 2003, Gaussian, Inc.),
 the Gaussian(R) 98 system (copyright 1998, Gaussian, Inc.),
 the Gaussian(R) 94 system (copyright 1995, Gaussian, Inc.),
 the Gaussian 92(TM) system (copyright 1992, Gaussian, Inc.),
 the Gaussian 90(TM) system (copyright 1990, Gaussian, Inc.),
 the Gaussian 88(TM) system (copyright 1988, Gaussian, Inc.),
 the Gaussian 86(TM) system (copyright 1986, Carnegie Mellon
 University), and the Gaussian 82(TM) system (copyright 1983,
 Carnegie Mellon University). Gaussian is a federally registered
 trademark of Gaussian, Inc.
  
 This software contains proprietary and confidential information,
 including trade secrets, belonging to Gaussian, Inc.
  
 This software is provided under written license and may be
 used, copied, transmitted, or stored only in accord with that
 written license.
  
 The following legend is applicable only to US Government
 contracts under FAR:
  
                    RESTRICTED RIGHTS LEGEND
  
 Use, reproduction and disclosure by the US Government is
 subject to restrictions as set forth in subparagraphs (a)
 and (c) of the Commercial Computer Software - Restricted
 Rights clause in FAR 52.227-19.
  
 Gaussian, Inc.
 340 Quinnipiac St., Bldg. 40, Wallingford CT 06492
  
  
 ---------------------------------------------------------------
 Warning -- This program may not be used in any manner that
 competes with the business of Gaussian, Inc. or will provide
 assistance to any competitor of Gaussian, Inc.  The licensee
 of this program is prohibited from giving any competitor of
 Gaussian, Inc. access to this program.  By using this program,
 the user acknowledges that Gaussian, Inc. is engaged in the
 business of creating and licensing software in the field of
 computational chemistry and represents and warrants to the
 licensee that it is not a competitor of Gaussian, Inc. and that
 it will not use this program in any manner prohibited above.
 ---------------------------------------------------------------
  

 Cite this work as:
 Gaussian 09, Revision A.01,
 M. J. Frisch, G. W. Trucks, H. B. Schlegel, G. E. Scuseria, 
 M. A. Robb, J. R. Cheeseman, G. Scalmani, V. Barone, B. Mennucci, 
 G. A. Petersson, H. Nakatsuji, M. Caricato, X. Li, H. P. Hratchian, 
 A. F. Izmaylov, J. Bloino, G. Zheng, J. L. Sonnenberg, M. Hada, 
 M. Ehara, K. Toyota, R. Fukuda, J. Hasegawa, M. Ishida, T. Nakajima, 
 Y. Honda, O. Kitao, H. Nakai, T. Vreven, J. A. Montgomery, Jr., 
 J. E. Peralta, F. Ogliaro, M. Bearpark, J. J. Heyd, E. Brothers, 
 K. N. Kudin, V. N. Staroverov, R. Kobayashi, J. Normand, 
 K. Raghavachari, A. Rendell, J. C. Burant, S. S. Iyengar, J. Tomasi, 
 M. Cossi, N. Rega, J. M. Millam, M. Klene, J. E. Knox, J. B. Cross, 
 V. Bakken, C. Adamo, J. Jaramillo, R. Gomperts, R. E. Stratmann, 
 O. Yazyev, A. J. Austin, R. Cammi, C. Pomelli, J. W. Ochterski, 
 R. L. Martin, K. Morokuma, V. G. Zakrzewski, G. A. Voth, 
 P. Salvador, J. J. Dannenberg, S. Dapprich, A. D. Daniels, 
 O. Farkas, J. B. Foresman, J. V. Ortiz, J. Cioslowski, 
 and D. J. Fox, Gaussian, Inc., Wallingford CT, 2009.
 
 ******************************************
 Gaussian 09:  EM64L-G09RevA.01  8-May-2009
                 4-Jun-2016 
 ******************************************
 %mem=8000Mb
 %nproc=8
 Will use up to    8 processors via shared memory.
 -------------
 # mp2/cc-pVTZ
 -------------
 1/38=1/1;
 2/12=2,17=6,18=5,40=1/2;
 3/5=16,6=1,11=9,16=1,25=1,30=1/1,2,3;
 4//1;
 5/5=2,38=5/2;
 8/10=1/1;
 9/16=-3/6;
 6/7=2,8=2,9=2,10=2/1;
 99/5=1,9=1/99;
 --------------------
 propene-H-H-anti.hin
 --------------------
 Symbolic Z-matrix:
 Charge =  0 Multiplicity = 1
 C                    -0.35245  -0.83456   0.00632 
 C                    -0.38359   0.66971   0.03652 
 C                     0.70528   1.43659   0.18841 
 H                     0.67862  -1.23894   0.12444 
 H                    -0.97872  -1.24638   0.83016 
 H                    -0.75744  -1.20581  -0.96254 
 H                    -1.37007   1.15274  -0.0744 
 H                     0.62846   2.53606   0.20381 
 H                     1.70765   0.99406   0.30222 
 
                          Input orientation:                          
 ---------------------------------------------------------------------
 Center     Atomic      Atomic             Coordinates (Angstroms)
 Number     Number       Type             X           Y           Z
 ---------------------------------------------------------------------
      1          6           0       -0.352450   -0.834560    0.006320
      2          6           0       -0.383590    0.669710    0.036520
      3          6           0        0.705280    1.436590    0.188410
      4          1           0        0.678620   -1.238940    0.124440
      5          1           0       -0.978720   -1.246380    0.830160
      6          1           0       -0.757440   -1.205810   -0.962540
      7          1           0       -1.370070    1.152740   -0.074400
      8          1           0        0.628460    2.536060    0.203810
      9          1           0        1.707650    0.994060    0.302220
 ---------------------------------------------------------------------
                    Distance matrix (angstroms):
                    1          2          3          4          5
     1  C    0.000000
     2  C    1.504895   0.000000
     3  C    2.511986   1.340453   0.000000
     4  H    1.113814   2.186084   2.676427   0.000000
     5  H    1.113787   2.157648   3.232031   1.801353   0.000000
     6  H    1.113792   2.157651   3.232107   1.801358   1.806761
     7  H    2.234150   1.103976   2.111094   3.155440   2.593677
     8  H    3.516001   2.129670   1.102258   3.776167   4.157186
     9  H    2.770455   2.132858   1.101604   2.465116   3.537637
                    6          7          8          9
     6  H    0.000000
     7  H    2.593620   0.000000
     8  H    4.157245   2.446446   0.000000
     9  H    3.537756   3.104735   1.884701   0.000000
 Stoichiometry    C3H6
 Framework group  C1[X(C3H6)]
 Deg. of freedom    21
 Full point group                 C1      NOp   1
 Largest Abelian subgroup         C1      NOp   1
 Largest concise Abelian subgroup C1      NOp   1
                         Standard orientation:                         
 ---------------------------------------------------------------------
 Center     Atomic      Atomic             Coordinates (Angstroms)
 Number     Number       Type             X           Y           Z
 ---------------------------------------------------------------------
      1          6           0        1.232561    0.164377    0.000001
      2          6           0       -0.133231   -0.467543   -0.000006
      3          6           0       -1.278598    0.228840    0.000002
      4          1           0        1.183993    1.277131   -0.000104
      5          1           0        1.800903   -0.153920    0.903437
      6          1           0        1.800993   -0.154091   -0.903324
      7          1           0       -0.174854   -1.570734    0.000011
      8          1           0       -2.254879   -0.282870    0.000002
      9          1           0       -1.280547    1.330442   -0.000005
 ---------------------------------------------------------------------
 Rotational constants (GHZ):     44.8902188      9.2835830      8.0982299
 Standard basis: CC-pVTZ (5D, 7F)
 There are   174 symmetry adapted basis functions of A   symmetry.
 Integral buffers will be    131072 words long.
 Raffenetti 1 integral format.
 Two-electron integral symmetry is turned on.
   174 basis functions,   258 primitive gaussians,   195 cartesian basis functions
    12 alpha electrons       12 beta electrons
       nuclear repulsion energy        70.1778610808 Hartrees.
 NAtoms=    9 NActive=    9 NUniq=    9 SFac= 7.50D-01 NAtFMM=   80 NAOKFM=F Big=F
 One-electron integrals computed using PRISM.
 NBasis=   174 RedAO= T  NBF=   174
 NBsUse=   174 1.00D-06 NBFU=   174
 Harris functional with IExCor=  205 diagonalized for initial guess.
 ExpMin= 1.03D-01 ExpMax= 8.24D+03 ExpMxC= 2.81D+02 IAcc=1 IRadAn=         1 AccDes= 0.00D+00
 HarFok:  IExCor=  205 AccDes= 0.00D+00 IRadAn=         1 IDoV= 1
 ScaDFX=  1.000000  1.000000  1.000000  1.000000
 FoFCou: FMM=F IPFlag=           0 FMFlag=      100000 FMFlg1=           0
         NFxFlg=           0 DoJE=T BraDBF=F KetDBF=T FulRan=T
         Omega=  0.000000  0.000000  1.000000  0.000000  0.000000 ICntrl=     500 IOpCl=  0
         NMat0=    1 NMatS0=    1 NMatT0=    0 NMatD0=    1 NMtDS0=    0 NMtDT0=    0
         I1Cent=           4 NGrid=           0.
 Petite list used in FoFCou.
 Initial guess orbital symmetries:
       Occupied  (A) (A) (A) (A) (A) (A) (A) (A) (A) (A) (A) (A)
       Virtual   (A) (A) (A) (A) (A) (A) (A) (A) (A) (A) (A) (A)
                 (A) (A) (A) (A) (A) (A) (A) (A) (A) (A) (A) (A)
                 (A) (A) (A) (A) (A) (A) (A) (A) (A) (A) (A) (A)
                 (A) (A) (A) (A) (A) (A) (A) (A) (A) (A) (A) (A)
                 (A) (A) (A) (A) (A) (A) (A) (A) (A) (A) (A) (A)
                 (A) (A) (A) (A) (A) (A) (A) (A) (A) (A) (A) (A)
                 (A) (A) (A) (A) (A) (A) (A) (A) (A) (A) (A) (A)
                 (A) (A) (A) (A) (A) (A) (A) (A) (A) (A) (A) (A)
                 (A) (A) (A) (A) (A) (A) (A) (A) (A) (A) (A) (A)
                 (A) (A) (A) (A) (A) (A) (A) (A) (A) (A) (A) (A)
                 (A) (A) (A) (A) (A) (A) (A) (A) (A) (A) (A) (A)
                 (A) (A) (A) (A) (A) (A) (A) (A) (A) (A) (A) (A)
                 (A) (A) (A) (A) (A) (A) (A) (A) (A) (A) (A) (A)
                 (A) (A) (A) (A) (A) (A)
 The electronic state of the initial guess is 1-A.
 Requested convergence on RMS density matrix=1.00D-08 within 128 cycles.
 Requested convergence on MAX density matrix=1.00D-06.
 Requested convergence on             energy=1.00D-06.
 No special actions if energy rises.
 Keep R1 ints in memory in canonical form, NReq=186505498.
 SCF Done:  E(RHF) =  -117.112820279     A.U. after   11 cycles
             Convg  =    0.8496D-08             -V/T =  2.0032
 ExpMin= 1.03D-01 ExpMax= 8.24D+03 ExpMxC= 2.81D+02 IAcc=1 IRadAn=         1 AccDes= 0.00D+00
 HarFok:  IExCor=  205 AccDes= 0.00D+00 IRadAn=         1 IDoV=-2
 ScaDFX=  1.000000  1.000000  1.000000  1.000000
 Range of M.O.s used for correlation:     4   174
 NBasis=   174 NAE=    12 NBE=    12 NFC=     3 NFV=     0
 NROrb=    171 NOA=     9 NOB=     9 NVA=   162 NVB=   162

 **** Warning!!: The largest alpha MO coefficient is  0.11998601D+02

 Fully in-core method, ICMem=   386656329.
 JobTyp=1 Pass  1 fully in-core, NPsUse=  8.
 Spin components of T(2) and E(2):
     alpha-alpha T2 =       0.1950911534D-01 E2=     -0.5529152773D-01
     alpha-beta  T2 =       0.1305982703D+00 E2=     -0.4003333002D+00
     beta-beta   T2 =       0.1950911534D-01 E2=     -0.5529152773D-01
 ANorm=    0.1081488096D+01
 E2 =    -0.5109163556D+00 EUMP2 =    -0.11762373663505D+03

 **********************************************************************

            Population analysis using the SCF density.

 **********************************************************************

 Orbital symmetries:
       Occupied  (A) (A) (A) (A) (A) (A) (A) (A) (A) (A) (A) (A)
       Virtual   (A) (A) (A) (A) (A) (A) (A) (A) (A) (A) (A) (A)
                 (A) (A) (A) (A) (A) (A) (A) (A) (A) (A) (A) (A)
                 (A) (A) (A) (A) (A) (A) (A) (A) (A) (A) (A) (A)
                 (A) (A) (A) (A) (A) (A) (A) (A) (A) (A) (A) (A)
                 (A) (A) (A) (A) (A) (A) (A) (A) (A) (A) (A) (A)
                 (A) (A) (A) (A) (A) (A) (A) (A) (A) (A) (A) (A)
                 (A) (A) (A) (A) (A) (A) (A) (A) (A) (A) (A) (A)
                 (A) (A) (A) (A) (A) (A) (A) (A) (A) (A) (A) (A)
                 (A) (A) (A) (A) (A) (A) (A) (A) (A) (A) (A) (A)
                 (A) (A) (A) (A) (A) (A) (A) (A) (A) (A) (A) (A)
                 (A) (A) (A) (A) (A) (A) (A) (A) (A) (A) (A) (A)
                 (A) (A) (A) (A) (A) (A) (A) (A) (A) (A) (A) (A)
                 (A) (A) (A) (A) (A) (A) (A) (A) (A) (A) (A) (A)
                 (A) (A) (A) (A) (A) (A)
 The electronic state is 1-A.
 Alpha  occ. eigenvalues --  -11.23761 -11.22974 -11.22195  -1.05886  -0.92480
 Alpha  occ. eigenvalues --   -0.75063  -0.63114  -0.57815  -0.56414  -0.51453
 Alpha  occ. eigenvalues --   -0.48911  -0.35710
 Alpha virt. eigenvalues --    0.14673   0.16269   0.17621   0.18342   0.21756
 Alpha virt. eigenvalues --    0.22169   0.24468   0.30791   0.38393   0.38980
 Alpha virt. eigenvalues --    0.39837   0.44856   0.47019   0.48188   0.51431
 Alpha virt. eigenvalues --    0.58434   0.58605   0.60235   0.62697   0.62912
 Alpha virt. eigenvalues --    0.62956   0.64623   0.66991   0.70730   0.73334
 Alpha virt. eigenvalues --    0.80590   0.82107   0.84023   0.85673   0.89610
 Alpha virt. eigenvalues --    0.92332   1.05672   1.06254   1.08613   1.09972
 Alpha virt. eigenvalues --    1.18219   1.19338   1.19497   1.23294   1.24037
 Alpha virt. eigenvalues --    1.28279   1.29613   1.34754   1.35203   1.38214
 Alpha virt. eigenvalues --    1.41651   1.42875   1.49095   1.50986   1.52955
 Alpha virt. eigenvalues --    1.57200   1.59061   1.60542   1.64530   1.70585
 Alpha virt. eigenvalues --    1.70991   1.73697   1.76453   1.90495   2.06907
 Alpha virt. eigenvalues --    2.36874   2.40500   2.48324   2.53669   2.59151
 Alpha virt. eigenvalues --    2.59263   2.63881   2.67552   2.72465   2.77574
 Alpha virt. eigenvalues --    2.85169   2.91484   2.91547   2.97588   3.02953
 Alpha virt. eigenvalues --    3.06452   3.07082   3.08576   3.11430   3.16444
 Alpha virt. eigenvalues --    3.17253   3.20081   3.20600   3.21451   3.25075
 Alpha virt. eigenvalues --    3.28788   3.29762   3.32819   3.35464   3.36317
 Alpha virt. eigenvalues --    3.41634   3.42137   3.45324   3.49729   3.55593
 Alpha virt. eigenvalues --    3.57123   3.58221   3.62151   3.62286   3.69963
 Alpha virt. eigenvalues --    3.72784   3.73227   3.74587   3.75870   3.83526
 Alpha virt. eigenvalues --    3.90227   3.90919   3.96077   3.98869   4.00699
 Alpha virt. eigenvalues --    4.04266   4.04337   4.08204   4.12692   4.17803
 Alpha virt. eigenvalues --    4.19630   4.22067   4.22656   4.26121   4.31059
 Alpha virt. eigenvalues --    4.32392   4.33474   4.37176   4.40080   4.40183
 Alpha virt. eigenvalues --    4.49995   4.50791   4.55047   4.56649   4.68242
 Alpha virt. eigenvalues --    4.68298   4.73358   4.77800   4.83859   4.93193
 Alpha virt. eigenvalues --    4.99274   5.04145   5.10687   5.11276   5.15369
 Alpha virt. eigenvalues --    5.24000   5.24070   5.30042   5.31986   5.37762
 Alpha virt. eigenvalues --    5.48320   5.49175   5.51710   5.57093   5.59284
 Alpha virt. eigenvalues --    5.61995   5.70901   5.75102   5.94103   6.19364
 Alpha virt. eigenvalues --    6.20352   6.26259   6.32286   6.56721  11.12525
 Alpha virt. eigenvalues --   13.70619  14.40942
          Condensed to atoms (all electrons):
              1          2          3          4          5          6
     1  C    4.719843   0.347647  -0.059181   0.416896   0.417452   0.417454
     2  C    0.347647   4.930410   0.641382  -0.039858  -0.044078  -0.044079
     3  C   -0.059181   0.641382   4.952722  -0.001057   0.000386   0.000389
     4  H    0.416896  -0.039858  -0.001057   0.586425  -0.028745  -0.028745
     5  H    0.417452  -0.044078   0.000386  -0.028745   0.605727  -0.035770
     6  H    0.417454  -0.044079   0.000389  -0.028745  -0.035770   0.605729
     7  H   -0.033681   0.415185  -0.042318   0.004584  -0.002326  -0.002328
     8  H    0.005262  -0.048784   0.424634   0.000075  -0.000274  -0.000274
     9  H   -0.004378  -0.049269   0.413828   0.002387   0.000129   0.000129
              7          8          9
     1  C   -0.033681   0.005262  -0.004378
     2  C    0.415185  -0.048784  -0.049269
     3  C   -0.042318   0.424634   0.413828
     4  H    0.004584   0.000075   0.002387
     5  H   -0.002326  -0.000274   0.000129
     6  H   -0.002328  -0.000274   0.000129
     7  H    0.518308  -0.005775   0.005141
     8  H   -0.005775   0.524626  -0.031244
     9  H    0.005141  -0.031244   0.534615
 Mulliken atomic charges:
              1
     1  C   -0.227313
     2  C   -0.108556
     3  C   -0.330786
     4  H    0.088038
     5  H    0.087498
     6  H    0.087495
     7  H    0.143208
     8  H    0.131755
     9  H    0.128661
 Sum of Mulliken atomic charges =   0.00000
 Mulliken charges with hydrogens summed into heavy atoms:
              1
     1  C    0.035718
     2  C    0.034652
     3  C   -0.070370
 Sum of Mulliken charges with hydrogens summed into heavy atoms =   0.00000
 Electronic spatial extent (au):  <R**2>=            199.1114
 Charge=              0.0000 electrons
 Dipole moment (field-independent basis, Debye):
    X=              0.3678    Y=             -0.0821    Z=              0.0000  Tot=              0.3768
 Quadrupole moment (field-independent basis, Debye-Ang):
   XX=            -19.6165   YY=            -18.9716   ZZ=            -22.2534
   XY=             -0.1673   XZ=              0.0000   YZ=              0.0000
 Traceless Quadrupole moment (field-independent basis, Debye-Ang):
   XX=              0.6640   YY=              1.3089   ZZ=             -1.9729
   XY=             -0.1673   XZ=              0.0000   YZ=              0.0000
 Octapole moment (field-independent basis, Debye-Ang**2):
  XXX=             -2.4269  YYY=              0.2193  ZZZ=              0.0003  XYY=             -0.5576
  XXY=             -0.6505  XXZ=              0.0000  XZZ=              2.9745  YZZ=             -0.2514
  YYZ=             -0.0001  XYZ=              0.0001
 Hexadecapole moment (field-independent basis, Debye-Ang**3):
 XXXX=           -185.6856 YYYY=            -51.7036 ZZZZ=            -33.0624 XXXY=              1.4006
 XXXZ=             -0.0002 YYYX=             -0.2391 YYYZ=             -0.0003 ZZZX=              0.0004
 ZZZY=              0.0001 XXYY=            -41.1432 XXZZ=            -37.8274 YYZZ=            -16.1197
 XXYZ=              0.0002 YYXZ=             -0.0002 ZZXY=             -0.7858
 N-N= 7.017786108075D+01 E-N=-4.122087065194D+02  KE= 1.167429002205D+02
 1\1\GINC-ROCK\SP\RMP2-FC\CC-pVTZ\C3H6\STYLIANAKIS\04-Jun-2016\0\\# mp2
 /cc-pVTZ\\propene-H-H-anti.hin\\0,1\C,0,-0.35245,-0.83456,0.00632\C,0,
 -0.38359,0.66971,0.03652\C,0,0.70528,1.43659,0.18841\H,0,0.67862,-1.23
 894,0.12444\H,0,-0.97872,-1.24638,0.83016\H,0,-0.75744,-1.20581,-0.962
 54\H,0,-1.37007,1.15274,-0.0744\H,0,0.62846,2.53606,0.20381\H,0,1.7076
 5,0.99406,0.30222\\Version=EM64L-G09RevA.01\State=1-A\HF=-117.1128203\
 MP2=-117.6237366\RMSD=8.496e-09\PG=C01 [X(C3H6)]\\@


 DO NOT LET SELFISH MEN OR GREEDY INTERESTS SKIN YOUR COUNTRY OF ITS
 BEAUTY, ITS RICHES, OR ITS ROMANCE. -- THEODORE ROOSEVELT
 Job cpu time:  0 days  0 hours  7 minutes  7.3 seconds.
 File lengths (MBytes):  RWF=     14 Int=      0 D2E=      0 Chk=      2 Scr=      1
 Normal termination of Gaussian 09 at Sat Jun  4 03:09:37 2016.
