 Entering Link 1 = C:\G03W\l1.exe PID=      3424.
  
 Copyright (c) 1988,1990,1992,1993,1995,1998,2003,2004, Gaussian, Inc.
                  All Rights Reserved.
  
 This is the Gaussian(R) 03 program.  It is based on the
 the Gaussian(R) 98 system (copyright 1998, Gaussian, Inc.),
 the Gaussian(R) 94 system (copyright 1995, Gaussian, Inc.),
 the Gaussian 92(TM) system (copyright 1992, Gaussian, Inc.),
 the Gaussian 90(TM) system (copyright 1990, Gaussian, Inc.),
 the Gaussian 88(TM) system (copyright 1988, Gaussian, Inc.),
 the Gaussian 86(TM) system (copyright 1986, Carnegie Mellon
 University), and the Gaussian 82(TM) system (copyright 1983,
 Carnegie Mellon University). Gaussian is a federally registered
 trademark of Gaussian, Inc.
  
 This software contains proprietary and confidential information,
 including trade secrets, belonging to Gaussian, Inc.
  
 This software is provided under written license and may be
 used, copied, transmitted, or stored only in accord with that
 written license.
  
 The following legend is applicable only to US Government
 contracts under FAR:
  
                    RESTRICTED RIGHTS LEGEND
  
 Use, reproduction and disclosure by the US Government is
 subject to restrictions as set forth in subparagraphs (a)
 and (c) of the Commercial Computer Software - Restricted
 Rights clause in FAR 52.227-19.
  
 Gaussian, Inc.
 340 Quinnipiac St., Bldg. 40, Wallingford CT 06492
  
  
 ---------------------------------------------------------------
 Warning -- This program may not be used in any manner that
 competes with the business of Gaussian, Inc. or will provide
 assistance to any competitor of Gaussian, Inc.  The licensee
 of this program is prohibited from giving any competitor of
 Gaussian, Inc. access to this program.  By using this program,
 the user acknowledges that Gaussian, Inc. is engaged in the
 business of creating and licensing software in the field of
 computational chemistry and represents and warrants to the
 licensee that it is not a competitor of Gaussian, Inc. and that
 it will not use this program in any manner prohibited above.
 ---------------------------------------------------------------
  

 Cite this work as:
 Gaussian 03, Revision D.01,
 M. J. Frisch, G. W. Trucks, H. B. Schlegel, G. E. Scuseria, 
 M. A. Robb, J. R. Cheeseman, J. A. Montgomery, Jr., T. Vreven, 
 K. N. Kudin, J. C. Burant, J. M. Millam, S. S. Iyengar, J. Tomasi, 
 V. Barone, B. Mennucci, M. Cossi, G. Scalmani, N. Rega, 
 G. A. Petersson, H. Nakatsuji, M. Hada, M. Ehara, K. Toyota, 
 R. Fukuda, J. Hasegawa, M. Ishida, T. Nakajima, Y. Honda, O. Kitao, 
 H. Nakai, M. Klene, X. Li, J. E. Knox, H. P. Hratchian, J. B. Cross, 
 V. Bakken, C. Adamo, J. Jaramillo, R. Gomperts, R. E. Stratmann, 
 O. Yazyev, A. J. Austin, R. Cammi, C. Pomelli, J. W. Ochterski, 
 P. Y. Ayala, K. Morokuma, G. A. Voth, P. Salvador, J. J. Dannenberg, 
 V. G. Zakrzewski, S. Dapprich, A. D. Daniels, M. C. Strain, 
 O. Farkas, D. K. Malick, A. D. Rabuck, K. Raghavachari, 
 J. B. Foresman, J. V. Ortiz, Q. Cui, A. G. Baboul, S. Clifford, 
 J. Cioslowski, B. B. Stefanov, G. Liu, A. Liashenko, P. Piskorz, 
 I. Komaromi, R. L. Martin, D. J. Fox, T. Keith, M. A. Al-Laham, 
 C. Y. Peng, A. Nanayakkara, M. Challacombe, P. M. W. Gill, 
 B. Johnson, W. Chen, M. W. Wong, C. Gonzalez, and J. A. Pople, 
 Gaussian, Inc., Wallingford CT, 2004.
 
 ******************************************
 Gaussian 03:  IA32W-G03RevD.01 13-Oct-2005
                13-Dec-2007 
 ******************************************
 ---------
 # opt uff
 ---------
 1/6=10,10=10,14=-1,18=4000020,38=1,56=1,64=2/1,3;
 2/9=110,17=6,18=5,40=1/2;
 3/5=30,11=9,16=1,25=1,30=1/1;
 4/20=10,22=1001,24=3/2;
 7/44=-1/16;
 1/6=10,10=10,14=-1,18=4000020,64=2/3(2);
 2/9=110/2;
 99//99;
 2/9=110/2;
 3/5=30,11=9,16=1,25=1,30=1/1;
 4/16=2,20=10,22=1001,24=3/2;
 7/44=-1/16;
 1/6=10,10=10,14=-1,18=4000020,64=2/3(-4);
 2/9=110/2;
 99//99;
 -----------
 muscarine-B
 -----------
 Symbolic Z-matrix:
 Charge =  1 Multiplicity = 1
 O                    -0.21903   0.54021  -0.89323 
 C                     0.07597   0.19121   0.45077 
 C                     1.15997   1.18121   0.90477 
 C                     0.18197   1.88421  -1.12123 
 C                     0.64897   2.45021   0.22477 
 O                     1.67097   3.40321   0.06177 
 C                    -0.96203   2.68121  -1.75923 
 C                     0.53697  -1.27579   0.56577 
 N                    -0.46003  -2.34679   0.39677 
 C                     0.22397  -3.63879   0.53377 
 C                    -1.50003  -2.26179   1.42577 
 C                    -1.08703  -2.29079  -0.92423 
 H                     1.85797   3.77121   0.90777 
 H                    -1.86003   2.69421  -1.09923 
 H                    -1.26203   2.23721  -2.73523 
 H                    -0.48403  -4.49379   0.42377 
 H                     1.01597  -3.76579  -0.24123 
 H                     0.70997  -3.74179   1.53177 
 H                    -2.21703  -3.11279   1.34877 
 H                    -1.06203  -2.28379   2.45077 
 H                    -2.10503  -1.33179   1.33377 
 H                    -1.76803  -3.15879  -1.08823 
 H                    -1.71303  -1.37979  -1.04923 
 H                    -0.32303  -2.30479  -1.73723 
 H                     2.15797   0.88721   0.50177 
 H                     1.22097   1.27721   2.01377 
 H                     1.04797   1.84821  -1.83023 
 H                    -0.19003   2.91321   0.80077 
 H                     1.36597  -1.41879  -0.16723 
 H                     1.00297  -1.37879   1.57477 
 H                    -0.65403   3.73621  -1.94123 
 H                    -0.80903   0.36121   1.06977 
 
 I=    9 IAn=  7 Valence= 4.
          JB=  1 J=    8 IAn=  6 IBT= 1 Dist= 1.47D+00
          JB=  2 J=   10 IAn=  6 IBT= 1 Dist= 1.47D+00
          JB=  3 J=   11 IAn=  6 IBT= 1 Dist= 1.47D+00
          JB=  4 J=   12 IAn=  6 IBT= 1 Dist= 1.46D+00
 Include all MM classes
 MMInit generated parameter data with length LenPar=  3719.

 GradGradGradGradGradGradGradGradGradGradGradGradGradGradGradGradGradGrad
 Berny optimization.
 Initialization pass.
 No Z-matrix variables, so optimization will use Cartesian coordinates.
 Trust Radius=1.00D-01 FncErr=1.00D-07 GrdErr=1.00D-07
 Number of steps in this run=   2 maximum allowed number of steps=   2.
 GradGradGradGradGradGradGradGradGradGradGradGradGradGradGradGradGradGrad

                          Input orientation:                          
 ---------------------------------------------------------------------
 Center     Atomic     Atomic              Coordinates (Angstroms)
 Number     Number      Type              X           Y           Z
 ---------------------------------------------------------------------
    1          8      10081003       -0.219031    0.540206   -0.893227
    2          6      10061003        0.075969    0.191206    0.450773
    3          6      10061003        1.159969    1.181206    0.904773
    4          6      10061003        0.181969    1.884206   -1.121227
    5          6      10061003        0.648969    2.450206    0.224773
    6          8      10081003        1.670969    3.403206    0.061773
    7          6      10061003       -0.962031    2.681206   -1.759227
    8          6      10061003        0.536969   -1.275794    0.565773
    9          7      10071000       -0.460031   -2.346794    0.396773
   10          6      10061003        0.223969   -3.638794    0.533773
   11          6      10061003       -1.500031   -2.261794    1.425773
   12          6      10061003       -1.087031   -2.290794   -0.924227
   13          1      10011000        1.857969    3.771206    0.907773
   14          1      10011000       -1.860031    2.694206   -1.099227
   15          1      10011000       -1.262031    2.237206   -2.735227
   16          1      10011000       -0.484031   -4.493794    0.423773
   17          1      10011000        1.015969   -3.765794   -0.241227
   18          1      10011000        0.709969   -3.741794    1.531773
   19          1      10011000       -2.217031   -3.112794    1.348773
   20          1      10011000       -1.062031   -2.283794    2.450773
   21          1      10011000       -2.105031   -1.331794    1.333773
   22          1      10011000       -1.768031   -3.158794   -1.088227
   23          1      10011000       -1.713031   -1.379794   -1.049227
   24          1      10011000       -0.323031   -2.304794   -1.737227
   25          1      10011000        2.157969    0.887206    0.501773
   26          1      10011000        1.220969    1.277206    2.013773
   27          1      10011000        1.047969    1.848206   -1.830227
   28          1      10011000       -0.190031    2.913206    0.800773
   29          1      10011000        1.365969   -1.418794   -0.167227
   30          1      10011000        1.002969   -1.378794    1.574773
   31          1      10011000       -0.654031    3.736206   -1.941227
   32          1      10011000       -0.809031    0.361206    1.069773
 ---------------------------------------------------------------------
                    Distance matrix (angstroms):
                    1          2          3          4          5
     1  O    0.000000
     2  C    1.419564   0.000000
     3  C    2.354852   1.536643   0.000000
     4  C    1.420958   2.312719   2.356983   0.000000
     5  C    2.377277   2.341471   1.527705   1.533023   0.000000
     6  O    3.561024   3.607255   2.430855   2.433921   1.406862
     7  C    2.426084   3.487355   3.721529   1.533294   2.566113
     8  C    2.449096   1.542023   2.557323   3.599666   3.743247
     9  N    3.171269   2.594544   3.915258   4.540688   4.926528
    10  C    4.438087   3.833757   4.924037   5.765789   6.111630
    11  C    3.856154   3.074347   4.381928   5.148364   5.316347
    12  C    2.961241   3.066516   4.522061   4.368042   5.177932
    13  H    4.242274   4.025018   2.682408   3.238300   1.916562
    14  H    2.715701   3.523578   3.927542   2.196895   2.847384
    15  H    2.713047   4.015838   4.497868   2.194252   3.529715
    16  H    5.210170   4.718427   5.927877   6.596170   7.038638
    17  H    4.526805   4.125568   5.080045   5.778621   6.244237
    18  H    5.007913   4.127833   4.983127   6.242521   6.328731
    19  H    4.728951   4.120761   5.480849   6.068452   6.358011
    20  H    4.457349   3.379448   4.397002   5.628405   5.503940
    21  H    3.467118   2.802852   4.142395   4.647585   4.808110
    22  H    4.014975   4.122057   5.601860   5.406980   6.247138
    23  H    2.437780   2.813994   4.316360   3.774905   4.676646
    24  H    2.969373   3.343136   4.618620   4.264059   5.234907
    25  H    2.777870   2.195846   1.115728   2.744579   2.190155
    26  H    3.326773   2.221124   1.114817   3.358005   2.214415
    27  H    2.047956   2.982179   2.817385   1.119791   2.178217
    28  H    2.915751   2.757270   2.198440   2.211630   1.118064
    29  H    2.622400   2.153630   2.819862   3.636177   3.954354
    30  H    3.356616   2.141870   2.650877   4.311569   4.075421
    31  H    3.391452   4.338386   4.233006   2.191164   2.836047
    32  H    2.057550   1.093291   2.139296   2.846417   2.683973
                    6          7          8          9         10
     6  O    0.000000
     7  C    3.281770   0.000000
     8  C    4.840766   4.828092   0.000000
     9  N    6.141326   5.493735   1.472960   0.000000
    10  C    7.204607   6.826921   2.383854   1.468295   0.000000
    11  C    6.633850   5.904822   2.420984   1.465492   2.379909
    12  C    6.403155   5.043177   2.426459   1.463320   2.379409
    13  H    0.941334   4.031549   5.228213   6.562330   7.597232
    14  H    3.783988   1.114528   4.927346   5.441479   6.864156
    15  H    4.217257   1.113424   5.145306   5.609428   6.886358
    16  H    8.193758   7.514958   3.379072   2.147304   1.115522
    17  H    7.205234   6.912352   2.660975   2.144570   1.115356
    18  H    7.357679   7.408184   2.654099   2.145495   1.114813
    19  H    7.696179   6.693663   3.401790   2.140119   2.626667
    20  H    6.746746   6.510401   2.669474   2.141329   2.676698
    21  H    6.188407   5.193964   2.751931   2.148073   3.374387
    22  H    7.497271   5.933420   3.405059   2.139026   2.613302
    23  H    5.963461   4.190444   2.771559   2.143832   3.370599
    24  H    6.308225   5.026828   2.665005   2.138806   2.690020
    25  H    2.600197   4.250289   2.703758   4.162176   4.921997
    26  H    2.921075   4.579545   3.013697   4.309736   5.229863
    27  H    2.527018   2.176931   3.970052   4.983133   6.031139
    28  H    2.061442   2.683917   4.258107   5.282397   6.570494
    29  H    4.837060   4.976349   1.115786   2.124513   2.593061
    30  H    5.059933   5.608955   1.116175   2.113073   2.607321
    31  H    3.086831   1.114008   5.729195   6.519722   7.828610
    32  H    4.052188   3.661837   2.178417   2.812116   4.165859
                   11         12         13         14         15
    11  C    0.000000
    12  C    2.386192   0.000000
    13  H    6.923986   6.984060   0.000000
    14  H    5.573792   5.047611   4.360218   0.000000
    15  H    6.132827   4.879870   5.035773   1.800819   0.000000
    16  H    2.649167   2.652154   8.604037   7.475309   7.476023
    17  H    3.372115   2.657955   7.670432   7.123141   6.888057
    18  H    2.661905   3.371431   7.625775   7.412770   7.605558
    19  H    1.115446   2.668167   8.011839   6.312005   6.798057
    20  H    1.114878   3.375100   6.897121   6.166019   6.882880
    21  H    1.113278   2.656044   6.475141   4.710434   5.477698
    22  H    2.682653   1.115384   8.071976   5.853733   5.664403
    23  H    2.636080   1.112395   6.566178   4.076958   4.016054
    24  H    3.375166   1.115733   6.976429   5.268720   4.744206
    25  H    4.914361   4.760587   2.927848   4.687513   4.898680
    26  H    4.502678   5.166172   2.801614   4.603392   5.444253
    27  H    5.829746   4.744511   3.442481   3.115532   2.511264
    28  H    5.374695   5.555344   2.223042   2.539067   3.756256
    29  H    3.385595   2.711207   5.322949   5.309658   5.183372
    30  H    2.658364   3.383023   5.262928   5.651228   6.064799
    31  H    6.930253   6.127520   3.798443   1.802544   1.801971
    32  H    2.735753   3.329628   4.332116   3.354408   4.266452
                   16         17         18         19         20
    16  H    0.000000
    17  H    1.795051   0.000000
    18  H    1.794103   1.799372   0.000000
    19  H    2.401265   3.661529   2.999410   0.000000
    20  H    3.054000   3.709619   2.471904   1.798797   0.000000
    21  H    3.667967   4.259768   3.711001   1.784581   1.800512
    22  H    2.391030   2.972627   3.653050   2.478444   3.713298
    23  H    3.657481   3.713933   4.255765   3.001285   3.673012
    24  H    3.080189   2.483034   3.717313   3.709919   4.252753
    25  H    5.995115   4.848363   4.958351   5.988158   4.921610
    26  H    6.224112   5.528010   5.067919   5.615529   4.252503
    27  H    6.902790   5.834633   6.531875   6.736304   6.312882
    28  H    7.422413   6.866530   6.755249   6.381356   5.521928
    29  H    3.636950   2.374107   2.951824   4.243322   3.673872
    30  H    3.638570   2.999299   2.381484   3.664182   2.418807
    31  H    8.564755   7.871398   8.357195   7.757311   7.463011
    32  H    4.908560   4.699093   4.399479   3.758854   2.994528
                   21         22         23         24         25
    21  H    0.000000
    22  H    3.052471   0.000000
    23  H    2.415503   1.780277   0.000000
    24  H    3.681480   1.799595   1.805843   0.000000
    25  H    4.877433   5.857618   4.746528   4.621401   0.000000
    26  H    4.281537   6.183415   5.004995   5.411530   1.821047
    27  H    5.483129   5.792277   4.318920   4.374437   2.755693
    28  H    4.687359   6.551915   4.916490   5.804021   3.115635
    29  H    3.782646   3.701053   3.203074   2.470348   2.528332
    30  H    3.117684   4.235376   3.776511   3.685797   2.760455
    31  H    6.206098   7.036308   5.300057   6.053500   4.689605
    32  H    2.148386   4.238755   2.887639   3.901666   3.066332
                   26         27         28         29         30
    26  H    0.000000
    27  H    3.890026   0.000000
    28  H    2.477657   3.096616   0.000000
    29  H    3.470764   3.679671   4.703656   0.000000
    30  H    2.700848   4.691437   4.521459   1.779869   0.000000
    31  H    5.020392   2.544341   2.900205   5.813906   6.424261
    32  H    2.418903   3.750949   2.639740   3.070699   2.562415
                   31         32
    31  H    0.000000
    32  H    4.525569   0.000000
 Stoichiometry    C9H20NO2(1+)
 Framework group  C1[X(C9H20NO2)]
 Deg. of freedom    90
 Full point group                 C1
 Largest Abelian subgroup         C1      NOp   1
 Largest concise Abelian subgroup C1      NOp   1
                         Standard orientation:                         
 ---------------------------------------------------------------------
 Center     Atomic     Atomic              Coordinates (Angstroms)
 Number     Number      Type              X           Y           Z
 ---------------------------------------------------------------------
    1          8      10081003        0.628153    0.813662   -0.284656
    2          6      10061003        0.124726   -0.384286    0.286872
    3          6      10061003        1.216833   -1.440633    0.057298
    4          6      10061003        2.043256    0.723607   -0.376819
    5          6      10061003        2.457519   -0.584747    0.306377
    6          8      10081003        3.604313   -1.141677   -0.288564
    7          6      10061003        2.697780    1.969031    0.232694
    8          6      10061003       -1.223240   -0.788508   -0.343547
    9          7      10071000       -2.424118   -0.002610   -0.012085
   10          6      10061003       -3.563267   -0.571326   -0.743379
   11          6      10061003       -2.714697   -0.069539    1.422749
   12          6      10061003       -2.272220    1.398612   -0.405544
   13          1      10011000        3.855862   -1.892586    0.220325
   14          1      10011000        2.426443    2.080497    1.307926
   15          1      10011000        2.372418    2.891632   -0.298962
   16          1      10011000       -4.509027   -0.021318   -0.525620
   17          1      10011000       -3.403615   -0.527187   -1.846366
   18          1      10011000       -3.734314   -1.638593   -0.470446
   19          1      10011000       -3.663818    0.462020    1.669393
   20          1      10011000       -2.821232   -1.124151    1.768290
   21          1      10011000       -1.917681    0.410366    2.034178
   22          1      10011000       -3.216339    1.970544   -0.245497
   23          1      10011000       -1.492168    1.916956    0.194672
   24          1      10011000       -2.002439    1.490497   -1.484263
   25          1      10011000        1.193210   -1.811837   -0.994605
   26          1      10011000        1.137267   -2.304305    0.757696
   27          1      10011000        2.294287    0.669800   -1.466783
   28          1      10011000        2.646654   -0.447336    1.399726
   29          1      10011000       -1.078853   -0.800447   -1.449887
   30          1      10011000       -1.399995   -1.850548   -0.049142
   31          1      10011000        3.807783    1.905124    0.163239
   32          1      10011000        0.014513   -0.250005    1.366273
 ---------------------------------------------------------------------
 Rotational constants (GHZ):      1.8907104      0.4760608      0.4246607
 Standard basis: Dummy (5D, 7F)
 There are    32 symmetry adapted basis functions of A   symmetry.
 Integral buffers will be    262144 words long.
 Raffenetti 1 integral format.
 Two-electron integral symmetry is turned on.
    32 basis functions,    32 primitive gaussians,    32 cartesian basis functions
    21 alpha electrons       21 beta electrons
       nuclear repulsion energy       153.3976126067 Hartrees.
 NAtoms=   32 NActive=   32 NUniq=   32 SFac= 7.50D-01 NAtFMM=   80 NAOKFM=F Big=F
 UFF calculation of energy and first derivatives.
 MO and density RWFs will be updated without deorthogonalization.
 NRF= 0 NRA=   0 NVA=  32 HaveQM=F
 Convergence limit is  0.750E-04 MaxStp=  5000 StMxLn= 1.00D-04 StpMin= 1.00D-06.
 Convergence criteria           0.00011250 0.00007500 0.00045000 0.00030000
  Step  NS  ND Rises OKQ   Scale  Max. Force  RMS Force Max. Disp.  RMS Disp.     Energy   Flag
     1   0   0   F    T  1.00D+00 0.04251905 0.01023800 0.04251905 0.01023800    0.0951135 ----
     2   0   0   F    T  3.39D+00 0.01007972 0.00290314 0.00817556 0.00301756    0.0900920 ----
     3   0   0   T    F  4.97D-01 0.01007972 0.00290314 0.02773809 0.01023800    0.0901068 ----
     4   0   0   F    T  1.42D+00 0.00955177 0.00262354 0.00992870 0.00359464    0.0894104 ----
     5   0   0   F    F  6.48D-01 0.00955177 0.00262354 0.01406390 0.00509176    0.0887587 ----
     6   0   0   F    T  2.34D+00 0.00810063 0.00229460 0.00924745 0.00358775    0.0886397 ----
     7   0   0   F    F -3.80D-01 0.00810063 0.00229460 0.02162487 0.00838983    0.0884117 ----
     8   0   0   F    T  2.23D+00 0.00551011 0.00158495 0.00707375 0.00233426    0.0882734 ----
     9   0   0   F    F  4.14D-02 0.00551011 0.00158495 0.01575117 0.00519772    0.0879943 ----
    10   0   0   F    T  2.28D+00 0.00416855 0.00142999 0.00796283 0.00237450    0.0879938 ----
    11   0   0   F    F -1.02D-01 0.00416855 0.00142999 0.01815196 0.00541288    0.0877955 ----
    12   0   0   F    T  2.18D+00 0.00388945 0.00125927 0.00872497 0.00223195    0.0877929 ----
    13   0   0   F    F  1.08D-01 0.00388945 0.00125927 0.01900729 0.00486229    0.0876110 ----
    14   0   0   F    T  2.17D+00 0.00555903 0.00123371 0.01059788 0.00247931    0.0876093 ----
    15   0   0   F    F -5.91D-02 0.00555903 0.00123371 0.02302419 0.00538637    0.0874605 ----
    16   0   0   F    T  2.34D+00 0.00350502 0.00107482 0.00934416 0.00216509    0.0874599 ----
    17   0   0   F    F  2.22D-01 0.00350502 0.00107482 0.02187389 0.00506828    0.0873065 ----
    18   0   0   F    T  2.06D+00 0.00330983 0.00121210 0.01297156 0.00300724    0.0873013 ----
    19   0   0   F    F  1.69D-01 0.00330983 0.00121210 0.02671739 0.00619399    0.0871348 ----
    20   0   0   F    T  1.91D+00 0.00513651 0.00132062 0.01495829 0.00379182    0.0871312 ----
    21   0   0   F    F  3.07D-01 0.00513651 0.00132062 0.02855623 0.00723880    0.0869337 ----
    22   0   0   F    T  1.95D+00 0.00494266 0.00146519 0.01747366 0.00485598    0.0869222 ----
    23   0   0   F    F  1.81D-01 0.00494266 0.00146519 0.03404227 0.00946045    0.0866910 ----
    24   0   0   F    T  3.09D+00 0.00420464 0.00122386 0.01306840 0.00361271    0.0866854 ----
    25   0   0   F    F -2.05D-01 0.00420464 0.00122386 0.04043177 0.01117721    0.0865207 ----
    26   0   0   F    T  3.18D+00 0.00344374 0.00103149 0.00976751 0.00279775    0.0865090 ----
    27   0   0   F    F -1.96D-01 0.00344374 0.00103149 0.03102322 0.00888612    0.0863865 ----
    28   0   0   F    T  2.94D+00 0.00246660 0.00092064 0.00857966 0.00243189    0.0863788 ----
    29   0   0   F    F -2.03D-02 0.00246660 0.00092064 0.02519919 0.00714266    0.0862617 ----
    30   0   0   F    T  2.74D+00 0.00243222 0.00091160 0.00904484 0.00255697    0.0862616 ----
    31   0   0   F    F -1.02D-01 0.00243222 0.00091160 0.02475210 0.00699740    0.0861649 ----
    32   0   0   F    T  2.27D+00 0.00418424 0.00092292 0.00903735 0.00277266    0.0861636 ----
    33   0   0   F    F -2.38D-01 0.00418424 0.00092292 0.02047671 0.00628227    0.0860999 ----
    34   0   0   F    T  2.31D+00 0.00273274 0.00076769 0.00648148 0.00206763    0.0860931 ----
    35   0   0   F    T  2.55D+00 0.00287427 0.00070661 0.00607202 0.00187697    0.0860271 ----
    36   0   0   F    F -1.38D-01 0.00287427 0.00070661 0.01548363 0.00478626    0.0859755 ----
    37   0   0   F    T  2.41D+00 0.00192069 0.00064619 0.00556739 0.00171302    0.0859741 ----
    38   0   0   F    F  2.94D-01 0.00192069 0.00064619 0.01340128 0.00412340    0.0859149 ----
    39   0   0   F    T  2.41D+00 0.00301138 0.00071701 0.00759530 0.00221519    0.0859117 ----
    40   0   0   F    F -9.63D-02 0.00301138 0.00071701 0.01830046 0.00533739    0.0858587 ----
    41   0   0   F    T  2.29D+00 0.00313717 0.00067748 0.00730851 0.00210484    0.0858580 ----
    42   0   0   F    F  1.62D-01 0.00313717 0.00067748 0.01674843 0.00482352    0.0858006 ----
    43   0   0   F    T  2.78D+00 0.00221036 0.00064334 0.00677528 0.00201876    0.0857994 ----
    44   0   0   T    F  4.56D-01 0.00221036 0.00064334 0.01880679 0.00560366    0.0858101 ----
    45   0   0   F    T  2.46D+00 0.00172654 0.00043943 0.00326957 0.00104005    0.0857743 ----
    46   0   0   F    F  1.57D-01 0.00172654 0.00043943 0.00803022 0.00255441    0.0857484 ----
    47   0   0   F    T  3.50D+00 0.00100647 0.00037480 0.00315884 0.00084375    0.0857479 ----
    48   0   0   F    F -1.73D-01 0.00100647 0.00037480 0.01106790 0.00295631    0.0857293 ----
    49   0   0   F    T  2.42D+00 0.00135223 0.00039426 0.00410350 0.00101159    0.0857284 ----
    50   0   0   F    F -1.59D-01 0.00135223 0.00039426 0.00991361 0.00244389    0.0857138 ----
    51   0   0   F    T  1.93D+00 0.00127210 0.00039062 0.00449301 0.00106631    0.0857132 ----
    52   0   0   F    F  1.73D-01 0.00127210 0.00039062 0.00865927 0.00205506    0.0856971 ----
    53   0   0   F    T  4.09D+00 0.00081246 0.00027304 0.00236554 0.00058880    0.0856967 ----
    54   0   0   F    F -1.68D-02 0.00081246 0.00027304 0.00968069 0.00240958    0.0856823 ----
    55   0   0   F    T  2.35D+00 0.00128182 0.00034604 0.00374052 0.00100729    0.0856823 ----
    56   0   0   F    F  8.19D-02 0.00128182 0.00034604 0.00879746 0.00236909    0.0856678 ----
    57   0   0   F    T  1.49D+00 0.00223523 0.00044474 0.00598586 0.00172278    0.0856677 ----
    58   0   0   F    F  5.82D-01 0.00223523 0.00044474 0.00890526 0.00256300    0.0856483 ----
    59   0   0   F    T  2.55D+00 0.00157114 0.00041948 0.00540227 0.00158763    0.0856453 ----
    60   0   0   F    F -2.00D-01 0.00157114 0.00041948 0.01379993 0.00405556    0.0856291 ----
    61   0   0   F    T  2.90D+00 0.00119095 0.00034381 0.00387467 0.00111842    0.0856281 ----
    62   0   0   F    F  2.57D-01 0.00119095 0.00034381 0.01124169 0.00324489    0.0856082 ----
    63   0   0   F    T  2.36D+00 0.00109054 0.00042017 0.00519172 0.00172663    0.0856074 ----
    64   0   0   F    F -2.62D-01 0.00109054 0.00042017 0.01226714 0.00407974    0.0855944 ----
    65   0   0   F    T  2.99D+00 0.00109518 0.00031279 0.00276931 0.00100641    0.0855926 ----
    66   0   0   F    F -3.89D-01 0.00109518 0.00031279 0.00828989 0.00301267    0.0855875 ----
    67   0   0   F    T  1.62D+00 0.00101923 0.00032598 0.00334405 0.00113866    0.0855840 ----
    68   0   0   F    F  1.23D+00 0.00101923 0.00032598 0.00540244 0.00183955    0.0855712 ----
    69   0   0   F    T  3.38D+00 0.00109129 0.00033037 0.00349270 0.00121658    0.0855656 ----
    70   0   0   F    F -4.41D-01 0.00109129 0.00033037 0.01179166 0.00410727    0.0855619 ----
    71   0   0   F    T  3.43D+00 0.00064162 0.00023685 0.00196190 0.00066999    0.0855557 ----
    72   0   0   F    F -5.86D-02 0.00064162 0.00023685 0.00672769 0.00229752    0.0855471 ----
    73   0   0   F    T  2.57D+00 0.00082855 0.00025901 0.00254552 0.00084109    0.0855470 ----
    74   0   0   F    F -8.84D-02 0.00082855 0.00025901 0.00654581 0.00216287    0.0855396 ----
    75   0   0   F    T  2.95D+00 0.00062577 0.00022396 0.00223473 0.00066808    0.0855395 ----
    76   0   0   F    F -2.45D-01 0.00062577 0.00022396 0.00659499 0.00197161    0.0855347 ----
    77   0   0   F    T  2.48D+00 0.00057388 0.00020577 0.00193979 0.00060042    0.0855341 ----
    78   0   0   F    F -1.14D-01 0.00057388 0.00020577 0.00480770 0.00148813    0.0855297 ----
    79   0   0   F    T  1.74D+00 0.00071784 0.00022585 0.00271280 0.00075651    0.0855297 ----
    80   0   0   F    F  2.46D-01 0.00071784 0.00022585 0.00472962 0.00131894    0.0855245 ----
    81   0   0   F    T  2.85D+00 0.00074643 0.00019135 0.00204356 0.00057571    0.0855243 ----
    82   0   0   F    F -2.50D-01 0.00074643 0.00019135 0.00583421 0.00164362    0.0855210 ----
    83   0   0   F    T  2.04D+00 0.00058982 0.00019090 0.00208433 0.00060456    0.0855206 ----
    84   0   0   F    F  7.84D-01 0.00058982 0.00019090 0.00425145 0.00123313    0.0855154 ----
    85   0   0   F    T  2.10D+00 0.00066565 0.00024775 0.00366564 0.00104770    0.0855142 ----
    86   0   0   F    F  1.55D-01 0.00066565 0.00024775 0.00769675 0.00219985    0.0855072 ----
    87   0   0   F    T  2.23D+00 0.00104244 0.00025520 0.00421191 0.00113983    0.0855071 ----
    88   0   0   F    F -1.45D-01 0.00104244 0.00025520 0.00938558 0.00253992    0.0855013 ----
    89   0   0   F    T  2.96D+00 0.00056564 0.00020023 0.00271792 0.00073298    0.0855011 ----
    90   0   0   F    F -2.88D-01 0.00056564 0.00020023 0.00805457 0.00217220    0.0854977 ----
    91   0   0   F    T  2.33D+00 0.00060180 0.00018651 0.00243462 0.00066377    0.0854971 ----
    92   0   0   F    F  2.09D-01 0.00060180 0.00018651 0.00567163 0.00154630    0.0854925 ----
    93   0   0   F    T  1.91D+00 0.00096762 0.00022371 0.00350259 0.00098004    0.0854923 ----
    94   0   0   F    F -9.68D-02 0.00096762 0.00022371 0.00668308 0.00186995    0.0854883 ----
    95   0   0   F    T  4.80D+00 0.00042932 0.00012966 0.00111741 0.00035213    0.0854882 ----
    96   0   0   T    F  4.27D-01 0.00042932 0.00012966 0.00535962 0.00168898    0.0854895 ----
    97   0   0   F    T  2.23D+00 0.00027887 0.00011992 0.00095778 0.00032422    0.0854866 ----
    98   0   0   F    F  1.51D+00 0.00027887 0.00011992 0.00213110 0.00072141    0.0854841 ----
    99   0   0   F    T  2.45D+00 0.00059869 0.00017845 0.00215952 0.00074050    0.0854827 ----
   100   0   0   F    F -4.48D-01 0.00059869 0.00017845 0.00529008 0.00181399    0.0854820 ----
   101   0   0   F    T  4.84D+00 0.00026012 0.00008966 0.00057460 0.00020703    0.0854806 ---+
   102   0   0   F    F -2.35D-01 0.00026012 0.00008966 0.00277885 0.00100122    0.0854793 ----
   103   0   0   F    T  1.95D+00 0.00059823 0.00012045 0.00107673 0.00039236    0.0854792 ----
   104   0   0   F    T  1.46D+00 0.00044623 0.00013465 0.00151878 0.00052473    0.0854779 ----
   105   0   0   F    F  8.95D-01 0.00044623 0.00013465 0.00221775 0.00076622    0.0854761 ----
   106   0   0   F    T  6.82D+00 0.00036394 0.00009545 0.00068401 0.00021291    0.0854756 ---+
   107   0   0   T    F  3.08D-01 0.00036394 0.00009545 0.00466567 0.00145227    0.0854793 ----
   108   0   0   F    T  2.30D+00 0.00024695 0.00008582 0.00065197 0.00019413    0.0854747 ---+
   109   0   0   F    F  1.29D-01 0.00024695 0.00008582 0.00150042 0.00044677    0.0854738 ----
   110   0   0   F    T  1.62D+00 0.00057576 0.00010557 0.00106145 0.00031216    0.0854738 ----
   111   0   0   F    F  1.91D-01 0.00057576 0.00010557 0.00171534 0.00050446    0.0854728 ----
   112   0   0   F    T  2.23D+00 0.00030965 0.00009498 0.00092955 0.00026995    0.0854727 ---+
   113   0   0   F    F  4.95D-01 0.00030965 0.00009498 0.00206955 0.00060101    0.0854715 ----
   114   0   0   F    T  2.79D+00 0.00028081 0.00010109 0.00106488 0.00032191    0.0854713 ----
   115   0   0   F    F  6.65D-02 0.00028081 0.00010109 0.00297292 0.00089871    0.0854699 ----
   116   0   0   F    T  2.44D+00 0.00038875 0.00010937 0.00128029 0.00039227    0.0854698 ----
   117   0   0   F    F -2.75D-01 0.00038875 0.00010937 0.00312836 0.00095852    0.0854690 ----
   118   0   0   F    T  1.72D+00 0.00038456 0.00010881 0.00134500 0.00040314    0.0854688 ----
   119   0   0   F    F  5.19D-01 0.00038456 0.00010881 0.00231963 0.00069527    0.0854675 ----
   120   0   0   F    T  2.63D+00 0.00030368 0.00010672 0.00139349 0.00040213    0.0854673 ----
   121   0   0   F    T  1.81D+00 0.00043322 0.00012601 0.00207615 0.00058405    0.0854659 ----
   122   0   0   F    F  3.70D-01 0.00043322 0.00012601 0.00375423 0.00105612    0.0854642 ----
   123   0   0   F    T  2.55D+00 0.00044353 0.00012652 0.00202308 0.00056754    0.0854641 ----
   124   0   0   F    F  2.92D-01 0.00044353 0.00012652 0.00515773 0.00144691    0.0854617 ----
   125   0   0   F    T  2.52D+00 0.00042108 0.00014138 0.00263028 0.00074015    0.0854616 ----
   126   0   0   F    F -1.75D-01 0.00042108 0.00014138 0.00664122 0.00186880    0.0854597 ----
   127   0   0   F    T  2.31D+00 0.00060473 0.00013301 0.00231113 0.00066814    0.0854596 ----
   128   0   0   F    F -3.01D-01 0.00060473 0.00013301 0.00533203 0.00154148    0.0854585 ----
   129   0   0   F    T  2.41D+00 0.00029123 0.00010715 0.00142115 0.00044654    0.0854582 ----
   130   0   0   F    F  6.10D-01 0.00029123 0.00010715 0.00342715 0.00107685    0.0854564 ----
   131   0   0   F    T  1.96D+00 0.00055234 0.00014962 0.00263273 0.00088337    0.0854561 ----
   132   0   0   F    F -1.38D-01 0.00055234 0.00014962 0.00516783 0.00173398    0.0854543 ----
   133   0   0   F    T  2.63D+00 0.00039119 0.00011869 0.00159994 0.00056792    0.0854542 ----
   134   0   0   F    F -5.93D-02 0.00039119 0.00011869 0.00421102 0.00149476    0.0854526 ----
   135   0   0   F    T  3.16D+00 0.00033281 0.00010367 0.00121687 0.00044546    0.0854526 ----
   136   0   0   F    F -1.57D-01 0.00033281 0.00010367 0.00384105 0.00140608    0.0854512 ----
   137   0   0   F    T  2.34D+00 0.00031153 0.00010931 0.00137482 0.00050710    0.0854512 ----
   138   0   0   F    F -3.52D-02 0.00031153 0.00010931 0.00321406 0.00118549    0.0854499 ----
   139   0   0   F    T  1.70D+00 0.00038243 0.00012470 0.00186002 0.00067136    0.0854499 ----
   140   0   0   F    F  3.45D-01 0.00038243 0.00012470 0.00316883 0.00114377    0.0854483 ----
   141   0   0   F    T  2.05D+00 0.00053899 0.00013096 0.00211920 0.00075163    0.0854482 ----
   142   0   0   F    F  6.95D-01 0.00053899 0.00013096 0.00433827 0.00153868    0.0854458 ----
   143   0   0   F    T  3.10D+00 0.00054696 0.00013762 0.00230611 0.00084104    0.0854453 ----
   144   0   0   F    F -4.21D-01 0.00054696 0.00013762 0.00715179 0.00260827    0.0854446 ----
   145   0   0   F    T  2.59D+00 0.00038648 0.00011370 0.00154800 0.00058444    0.0854437 ----
   146   0   0   F    F -9.80D-02 0.00038648 0.00011370 0.00400339 0.00151147    0.0854423 ----
   147   0   0   F    T  1.68D+00 0.00061725 0.00013317 0.00217862 0.00081253    0.0854423 ----
   148   0   0   F    F  5.92D-01 0.00061725 0.00013317 0.00365533 0.00136328    0.0854403 ----
   149   0   0   F    T  2.34D+00 0.00045669 0.00014152 0.00251061 0.00092789    0.0854400 ----
   150   0   0   F    F -1.64D-01 0.00045669 0.00014152 0.00587098 0.00216983    0.0854382 ----
   151   0   0   F    T  2.91D+00 0.00052246 0.00011493 0.00170285 0.00062238    0.0854381 ----
   152   0   0   F    F -1.67D-01 0.00052246 0.00011493 0.00496119 0.00181328    0.0854366 ----
   153   0   0   F    T  2.96D+00 0.00035630 0.00010286 0.00141505 0.00050941    0.0854366 ----
   154   0   0   F    F -1.58D-01 0.00035630 0.00010286 0.00419352 0.00150964    0.0854353 ----
   155   0   0   F    T  2.09D+00 0.00039054 0.00011147 0.00177936 0.00060914    0.0854353 ----
   156   0   0   F    F  3.17D-01 0.00039054 0.00011147 0.00371233 0.00127088    0.0854338 ----
   157   0   0   F    T  1.63D+00 0.00055728 0.00014384 0.00307051 0.00102513    0.0854337 ----
   158   0   0   F    F  1.60D-01 0.00055728 0.00014384 0.00501364 0.00167387    0.0854318 ----
   159   0   0   F    T  2.83D+00 0.00038083 0.00011689 0.00208758 0.00068667    0.0854318 ----
   160   0   0   F    F  5.32D-02 0.00038083 0.00011689 0.00590149 0.00194118    0.0854298 ----
   161   0   0   F    T  1.92D+00 0.00044957 0.00014489 0.00323021 0.00106581    0.0854298 ----
   162   0   0   F    F  8.70D-01 0.00044957 0.00014489 0.00619621 0.00204444    0.0854270 ----
   163   0   0   F    T  2.97D+00 0.00059665 0.00015873 0.00397625 0.00128940    0.0854262 ----
   164   0   0   F    F -4.04D-01 0.00059665 0.00015873 0.01179150 0.00382370    0.0854251 ----
   165   0   0   F    T  2.35D+00 0.00047666 0.00013730 0.00309391 0.00097026    0.0854241 ----
   166   0   0   F    F  7.84D-02 0.00047666 0.00013730 0.00726524 0.00227841    0.0854218 ----
   167   0   0   F    T  2.20D+00 0.00054703 0.00014683 0.00364957 0.00111908    0.0854218 ----
   168   0   0   F    F -1.20D-01 0.00054703 0.00014683 0.00801315 0.00245709    0.0854198 ----
   169   0   0   F    T  2.04D+00 0.00061581 0.00014210 0.00351848 0.00105884    0.0854198 ----
   170   0   0   F    F  1.29D-01 0.00061581 0.00014210 0.00718698 0.00216284    0.0854176 ----
   171   0   0   F    T  3.80D+00 0.00035634 0.00010995 0.00216331 0.00064317    0.0854175 ----
   172   0   0   F    F -3.28D-01 0.00035634 0.00010995 0.00821488 0.00244235    0.0854164 ----
   173   0   0   F    T  2.11D+00 0.00040159 0.00012005 0.00259158 0.00077749    0.0854161 ----
   174   0   0   F    F  7.00D-02 0.00040159 0.00012005 0.00547014 0.00164109    0.0854145 ----
   175   0   0   F    T  1.91D+00 0.00051295 0.00012972 0.00299547 0.00091887    0.0854145 ----
   176   0   0   F    F  7.17D-02 0.00051295 0.00012972 0.00572414 0.00175589    0.0854129 ----
   177   0   0   F    T  2.87D+00 0.00040654 0.00010905 0.00210247 0.00065673    0.0854128 ----
   178   0   0   F    F  4.51D-02 0.00040654 0.00010905 0.00602438 0.00188177    0.0854111 ----
   179   0   0   F    T  2.02D+00 0.00044059 0.00013209 0.00312513 0.00097144    0.0854111 ----
   180   0   0   F    F -5.01D-02 0.00044059 0.00013209 0.00632653 0.00196659    0.0854095 ----
   181   0   0   F    T  2.51D+00 0.00034681 0.00011490 0.00243275 0.00074461    0.0854095 ----
   182   0   0   F    F  5.21D-02 0.00034681 0.00011490 0.00610352 0.00186815    0.0854079 ----
   183   0   0   F    T  2.73D+00 0.00044857 0.00011234 0.00233560 0.00072056    0.0854079 ----
   184   0   0   F    F -2.77D-01 0.00044857 0.00011234 0.00637071 0.00196545    0.0854068 ----
   185   0   0   F    T  2.16D+00 0.00039419 0.00010653 0.00207192 0.00065752    0.0854067 ----
   186   0   0   F    F  3.87D-01 0.00039419 0.00010653 0.00447923 0.00142147    0.0854052 ----
   187   0   0   F    T  1.71D+00 0.00053477 0.00014060 0.00357446 0.00115543    0.0854050 ----
   188   0   0   F    F  1.67D-01 0.00053477 0.00014060 0.00609894 0.00197147    0.0854032 ----
   189   0   0   F    T  2.73D+00 0.00049683 0.00011929 0.00245328 0.00084149    0.0854031 ----
   190   0   0   F    F -2.46D-01 0.00049683 0.00011929 0.00670502 0.00229985    0.0854019 ----
   191   0   0   F    T  2.63D+00 0.00028669 0.00010493 0.00200667 0.00065911    0.0854017 ----
   192   0   0   F    F  5.79D-01 0.00028669 0.00010493 0.00527904 0.00173395    0.0853998 ----
   193   0   0   F    T  2.62D+00 0.00045397 0.00013169 0.00315207 0.00104537    0.0853995 ----
   194   0   0   F    F -2.19D-01 0.00045397 0.00013169 0.00825706 0.00273842    0.0853980 ----
   195   0   0   F    T  1.98D+00 0.00042147 0.00013340 0.00321182 0.00107867    0.0853978 ----
   196   0   0   F    F  2.26D-01 0.00042147 0.00013340 0.00636750 0.00213848    0.0853958 ----
   197   0   0   F    T  1.96D+00 0.00049165 0.00014816 0.00393340 0.00133615    0.0853958 ----
   198   0   0   F    F  3.25D-01 0.00049165 0.00014816 0.00771500 0.00262074    0.0853932 ----
   199   0   0   F    T  1.66D+00 0.00083378 0.00018517 0.00607853 0.00209224    0.0853930 ----
   200   0   0   F    F  1.07D+00 0.00083378 0.00018517 0.01008635 0.00347174    0.0853889 ----
   201   0   0   F    T  2.23D+00 0.00069982 0.00022924 0.00929778 0.00322335    0.0853874 ----
   202   0   0   F    F -1.67D-02 0.00069982 0.00022924 0.02070086 0.00717657    0.0853819 ----
   203   0   0   F    T  3.04D+00 0.00067658 0.00019342 0.00667085 0.00232377    0.0853819 ----
   204   0   0   F    F  1.74D-01 0.00067658 0.00019342 0.02025731 0.00705658    0.0853756 ----
   205   0   0   F    T  2.12D+00 0.00089644 0.00025134 0.01121750 0.00390576    0.0853754 ----
   206   0   0   F    F -2.42D-01 0.00089644 0.00025134 0.02379980 0.00828673    0.0853711 ----
   207   0   0   F    T  1.99D+00 0.00081902 0.00022710 0.00902524 0.00315337    0.0853706 ----
   208   0   0   F    F  4.36D-01 0.00081902 0.00022710 0.01796631 0.00627732    0.0853641 ----
   209   0   0   F    T  4.27D+00 0.00076122 0.00018754 0.00590314 0.00211137    0.0853635 ----
   210   0   0   F    F -4.55D-01 0.00076122 0.00018754 0.02520138 0.00901375    0.0853623 ----
   211   0   0   F    T  4.01D+00 0.00062690 0.00014280 0.00344877 0.00122368    0.0853595 ----
   212   0   0   T    F  3.86D-01 0.00062690 0.00014280 0.01384109 0.00491105    0.0853619 ----
   213   0   0   F    T  1.77D+00 0.00054588 0.00013315 0.00310034 0.00107280    0.0853580 ----
   214   0   0   F    F  4.10D-01 0.00054588 0.00013315 0.00547694 0.00189517    0.0853561 ----
   215   0   0   F    T  2.69D+00 0.00048346 0.00012747 0.00288165 0.00099447    0.0853559 ----
   216   0   0   F    F  1.74D-01 0.00048346 0.00012747 0.00774443 0.00267264    0.0853535 ----
   217   0   0   F    T  2.27D+00 0.00053586 0.00014948 0.00390651 0.00138156    0.0853534 ----
   218   0   0   F    F -1.89D-01 0.00053586 0.00014948 0.00887151 0.00313747    0.0853516 ----
   219   0   0   F    T  3.05D+00 0.00040570 0.00011530 0.00233796 0.00083443    0.0853515 ----
   220   0   0   F    F  4.04D-02 0.00040570 0.00011530 0.00713129 0.00254518    0.0853495 ----
   221   0   0   F    T  2.22D+00 0.00042910 0.00013746 0.00343576 0.00119452    0.0853494 ----
   222   0   0   F    F  8.12D-02 0.00042910 0.00013746 0.00761613 0.00264793    0.0853473 ----
   223   0   0   F    T  2.59D+00 0.00047343 0.00013205 0.00323333 0.00110754    0.0853473 ----
   224   0   0   F    F -4.37D-01 0.00047343 0.00013205 0.00835823 0.00286302    0.0853468 ----
   225   0   0   F    T  2.67D+00 0.00024502 0.00009692 0.00178302 0.00060393    0.0853461 ----
   226   0   0   F    F  2.75D-01 0.00024502 0.00009692 0.00475521 0.00161064    0.0853446 ----
   227   0   0   F    T  1.85D+00 0.00045447 0.00013090 0.00330671 0.00110945    0.0853445 ----
   228   0   0   F    F  9.76D-02 0.00045447 0.00013090 0.00611916 0.00205307    0.0853429 ----
   229   0   0   F    T  3.73D+00 0.00045867 0.00009586 0.00179041 0.00060460    0.0853429 ----
   230   0   0   T    F  4.17D-01 0.00045867 0.00009586 0.00667321 0.00225345    0.0853435 ----
   231   0   0   F    T  2.57D+00 0.00022405 0.00007371 0.00103593 0.00036545    0.0853422 -+--
   232   0   0   F    F  4.41D-01 0.00022405 0.00007371 0.00266433 0.00093990    0.0853413 -+--
   233   0   0   F    T  2.32D+00 0.00028509 0.00009253 0.00159218 0.00058314    0.0853412 ----
   234   0   0   F    F -7.18D-02 0.00028509 0.00009253 0.00369674 0.00135395    0.0853403 ----
   235   0   0   F    T  2.16D+00 0.00038445 0.00009195 0.00156489 0.00058285    0.0853403 ----
   236   0   0   F    F -1.45D-01 0.00038445 0.00009195 0.00337414 0.00125671    0.0853396 ----
   237   0   0   F    T  2.83D+00 0.00020130 0.00007349 0.00101028 0.00037924    0.0853396 -+--
   238   0   0   F    F -1.40D-01 0.00020130 0.00007349 0.00286366 0.00107497    0.0853390 -+--
   239   0   0   F    T  2.19D+00 0.00027132 0.00007698 0.00109604 0.00042316    0.0853389 ----
   240   0   0   F    F -5.09D-02 0.00027132 0.00007698 0.00239499 0.00092466    0.0853383 ----
   241   0   0   F    T  3.30D+00 0.00016680 0.00006021 0.00071815 0.00026564    0.0853383 -+-+
   242   0   0   F    F -3.48D-01 0.00016680 0.00006021 0.00237259 0.00087763    0.0853381 -+--
   243   0   0   F    T  2.48D+00 0.00016104 0.00005525 0.00065076 0.00023035    0.0853380 -+-+
   244   0   0   F    F  8.38D-02 0.00016104 0.00005525 0.00161560 0.00057187    0.0853376 -+--
   245   0   0   F    T  1.88D+00 0.00027610 0.00006536 0.00094947 0.00032894    0.0853376 -+--
   246   0   0   F    F -1.63D-01 0.00027610 0.00006536 0.00178895 0.00061977    0.0853373 -+--
   247   0   0   F    T  3.10D+00 0.00015195 0.00004571 0.00049583 0.00016722    0.0853373 -+-+
   248   0   0   F    F -1.95D-01 0.00015195 0.00004571 0.00153820 0.00051878    0.0853370 -+--
   249   0   0   F    T  2.18D+00 0.00015685 0.00004818 0.00057463 0.00019197    0.0853370 -+-+
   250   0   0   F    F  4.97D-01 0.00015685 0.00004818 0.00125074 0.00041785    0.0853367 -+--
   251   0   0   F    T  3.87D+00 0.00017233 0.00004336 0.00047579 0.00016148    0.0853366 -+-+
   252   0   0   F    F -4.48D-01 0.00017233 0.00004336 0.00184317 0.00062555    0.0853366 -+--
   253   0   0   F    T  2.89D+00 0.00010530 0.00003643 0.00034003 0.00011963    0.0853364 ====
 Energy=    0.085336445292 NIter=   0.
 Dipole moment=       0.000000       0.000000       0.000000
 ***** Axes restored to original set *****
 -------------------------------------------------------------------
 Center     Atomic                   Forces (Hartrees/Bohr)
 Number     Number              X              Y              Z
 -------------------------------------------------------------------
    1          8           0.000016410    0.000033841    0.000033245
    2          6          -0.000003242    0.000047637   -0.000007900
    3          6          -0.000079368    0.000050010    0.000014583
    4          6          -0.000045598   -0.000044207   -0.000045525
    5          6           0.000073138   -0.000029174    0.000031712
    6          8           0.000000608   -0.000010918   -0.000062038
    7          6           0.000036562    0.000028636   -0.000002035
    8          6          -0.000006606   -0.000075116   -0.000002624
    9          7           0.000051298    0.000114431    0.000092051
   10          6          -0.000047526    0.000009462   -0.000018994
   11          6          -0.000025004    0.000006879   -0.000070119
   12          6          -0.000042624   -0.000052814   -0.000088968
   13          1          -0.000023584   -0.000002555    0.000000505
   14          1           0.000020992    0.000042320    0.000020932
   15          1           0.000017558   -0.000014226    0.000014989
   16          1           0.000007967   -0.000064085    0.000017987
   17          1           0.000040325    0.000000957    0.000011355
   18          1          -0.000016724    0.000008675    0.000009794
   19          1           0.000021516   -0.000015675    0.000038657
   20          1           0.000001071    0.000014600   -0.000009271
   21          1           0.000029079   -0.000052371    0.000002815
   22          1           0.000001020    0.000027055    0.000010471
   23          1          -0.000001648   -0.000044307    0.000009916
   24          1          -0.000003241   -0.000009355   -0.000001664
   25          1          -0.000007251    0.000033521    0.000001983
   26          1           0.000039968   -0.000067816   -0.000019165
   27          1           0.000018762   -0.000025012   -0.000029211
   28          1          -0.000041445    0.000038041    0.000042995
   29          1           0.000019199    0.000028473   -0.000038912
   30          1          -0.000034863    0.000026100   -0.000011110
   31          1           0.000015827    0.000015478    0.000004801
   32          1          -0.000032574   -0.000018488    0.000048746
 -------------------------------------------------------------------
 Cartesian Forces:  Max     0.000114431 RMS     0.000036429

 GradGradGradGradGradGradGradGradGradGradGradGradGradGradGradGradGradGrad
 Berny optimization.
 Search for a local minimum.
 Step number   1 out of a maximum of   2
 All quantities printed in internal units (Hartrees-Bohrs-Radians)
 Second derivative matrix not updated -- unit matrix used.
 RFO step:  Lambda=-1.27397611D-07.
 Linear search not attempted -- first point.
 TrRot=  0.000000  0.000000  0.000000  0.000000  0.000000  0.000000
 Variable       Old X    -DE/DX   Delta X   Delta X   Delta X     New X
                                 (Linear)    (Quad)   (Total)
    X1       -0.47490   0.00002   0.00000   0.00002   0.00002  -0.47489
    Y1        1.00964   0.00003   0.00000   0.00003   0.00003   1.00968
    Z1       -1.74028   0.00003   0.00000   0.00003   0.00003  -1.74025
    X2       -0.03406   0.00000   0.00000   0.00000   0.00000  -0.03406
    Y2        0.39180   0.00005   0.00000   0.00005   0.00005   0.39184
    Z2        0.81972  -0.00001   0.00000  -0.00001  -0.00001   0.81971
    X3        1.80761  -0.00008   0.00000  -0.00008  -0.00008   1.80753
    Y3        2.31960   0.00005   0.00000   0.00005   0.00005   2.31965
    Z3        1.90472   0.00001   0.00000   0.00001   0.00001   1.90474
    X4        0.43856  -0.00005   0.00000  -0.00005  -0.00005   0.43851
    Y4        3.47982  -0.00004   0.00000  -0.00004  -0.00004   3.47977
    Z4       -2.16399  -0.00005   0.00000  -0.00005  -0.00005  -2.16404
    X5        1.25645   0.00007   0.00000   0.00007   0.00007   1.25652
    Y5        4.62457  -0.00003   0.00000  -0.00003  -0.00003   4.62454
    Z5        0.35047   0.00003   0.00000   0.00003   0.00003   0.35050
    X6        3.41505   0.00000   0.00000   0.00000   0.00000   3.41505
    Y6        6.13611  -0.00001   0.00000  -0.00001  -0.00001   6.13610
    Z6        0.04987  -0.00006   0.00000  -0.00006  -0.00006   0.04981
    X7       -1.59634   0.00004   0.00000   0.00004   0.00004  -1.59630
    Y7        5.06426   0.00003   0.00000   0.00003   0.00003   5.06429
    Z7       -3.46313   0.00000   0.00000   0.00000   0.00000  -3.46314
    X8        1.02162  -0.00001   0.00000  -0.00001  -0.00001   1.02161
    Y8       -2.33599  -0.00008   0.00000  -0.00008  -0.00008  -2.33607
    Z8        1.05535   0.00000   0.00000   0.00000   0.00000   1.05535
    X9       -0.86578   0.00005   0.00000   0.00005   0.00005  -0.86573
    Y9       -4.42399   0.00011   0.00000   0.00011   0.00011  -4.42387
    Z9        0.77368   0.00009   0.00000   0.00009   0.00009   0.77377
   X10        0.53041  -0.00005   0.00000  -0.00005  -0.00005   0.53036
   Y10       -6.85303   0.00001   0.00000   0.00001   0.00001  -6.85302
   Z10        0.77037  -0.00002   0.00000  -0.00002  -0.00002   0.77035
   X11       -2.66837  -0.00003   0.00000  -0.00003  -0.00003  -2.66839
   Y11       -4.44871   0.00001   0.00000   0.00001   0.00001  -4.44871
   Z11        2.91930  -0.00007   0.00000  -0.00007  -0.00007   2.91923
   X12       -2.28441  -0.00004   0.00000  -0.00004  -0.00004  -2.28445
   Y12       -4.21586  -0.00005   0.00000  -0.00005  -0.00005  -4.21591
   Z12       -1.63010  -0.00009   0.00000  -0.00009  -0.00009  -1.63019
   X13        3.67606  -0.00002   0.00000  -0.00002  -0.00002   3.67604
   Y13        7.01850   0.00000   0.00000   0.00000   0.00000   7.01850
   Z13        1.68472   0.00000   0.00000   0.00000   0.00000   1.68472
   X14       -3.33075   0.00002   0.00000   0.00002   0.00002  -3.33073
   Y14        5.14205   0.00004   0.00000   0.00004   0.00004   5.14209
   Z14       -2.28213   0.00002   0.00000   0.00002   0.00002  -2.28211
   X15       -2.08487   0.00002   0.00000   0.00002   0.00002  -2.08485
   Y15        4.20811  -0.00001   0.00000  -0.00001  -0.00001   4.20809
   Z15       -5.31596   0.00001   0.00000   0.00001   0.00001  -5.31595
   X16       -0.78005   0.00001   0.00000   0.00001   0.00001  -0.78004
   Y16       -8.49032  -0.00006   0.00000  -0.00006  -0.00006  -8.49038
   Z16        0.59899   0.00002   0.00000   0.00002   0.00002   0.59900
   X17        1.87808   0.00004   0.00000   0.00004   0.00004   1.87812
   Y17       -6.95129   0.00000   0.00000   0.00000   0.00000  -6.95129
   Z17       -0.84242   0.00001   0.00000   0.00001   0.00001  -0.84241
   X18        1.62774  -0.00002   0.00000  -0.00002  -0.00002   1.62772
   Y18       -7.09801   0.00001   0.00000   0.00001   0.00001  -7.09800
   Z18        2.54898   0.00001   0.00000   0.00001   0.00001   2.54899
   X19       -3.90480   0.00002   0.00000   0.00002   0.00002  -3.90478
   Y19       -6.14939  -0.00002   0.00000  -0.00002  -0.00002  -6.14941
   Z19        2.84344   0.00004   0.00000   0.00004   0.00004   2.84348
   X20       -1.65421   0.00000   0.00000   0.00000   0.00000  -1.65421
   Y20       -4.47419   0.00001   0.00000   0.00001   0.00001  -4.47418
   Z20        4.76138  -0.00001   0.00000  -0.00001  -0.00001   4.76137
   X21       -3.94913   0.00003   0.00000   0.00003   0.00003  -3.94910
   Y21       -2.78884  -0.00005   0.00000  -0.00005  -0.00005  -2.78889
   Z21        2.89284   0.00000   0.00000   0.00000   0.00000   2.89284
   X22       -3.48857   0.00000   0.00000   0.00000   0.00000  -3.48857
   Y22       -5.91204   0.00003   0.00000   0.00003   0.00003  -5.91201
   Z22       -1.94596   0.00001   0.00000   0.00001   0.00001  -1.94595
   X23       -3.57550   0.00000   0.00000   0.00000   0.00000  -3.57550
   Y23       -2.55916  -0.00004   0.00000  -0.00004  -0.00004  -2.55920
   Z23       -1.62297   0.00001   0.00000   0.00001   0.00001  -1.62296
   X24       -0.97296   0.00000   0.00000   0.00000   0.00000  -0.97297
   Y24       -4.03914  -0.00001   0.00000  -0.00001  -0.00001  -4.03915
   Z24       -3.26476   0.00000   0.00000   0.00000   0.00000  -3.26476
   X25        3.80052  -0.00001   0.00000  -0.00001  -0.00001   3.80051
   Y25        1.70911   0.00003   0.00000   0.00003   0.00003   1.70914
   Z25        1.60659   0.00000   0.00000   0.00000   0.00000   1.60659
   X26        1.46622   0.00004   0.00000   0.00004   0.00004   1.46626
   Y26        2.66203  -0.00007   0.00000  -0.00007  -0.00007   2.66196
   Z26        3.94991  -0.00002   0.00000  -0.00002  -0.00002   3.94989
   X27        2.09702   0.00002   0.00000   0.00002   0.00002   2.09703
   Y27        3.34270  -0.00003   0.00000  -0.00003  -0.00003   3.34268
   Z27       -3.45118  -0.00003   0.00000  -0.00003  -0.00003  -3.45121
   X28       -0.31304  -0.00004   0.00000  -0.00004  -0.00004  -0.31308
   Y28        5.72301   0.00004   0.00000   0.00004   0.00004   5.72305
   Z28        1.23423   0.00004   0.00000   0.00004   0.00004   1.23427
   X29        2.54436   0.00002   0.00000   0.00002   0.00002   2.54438
   Y29       -2.54082   0.00003   0.00000   0.00003   0.00003  -2.54080
   Z29       -0.38637  -0.00004   0.00000  -0.00004  -0.00004  -0.38641
   X30        1.97524  -0.00003   0.00000  -0.00003  -0.00003   1.97521
   Y30       -2.51639   0.00003   0.00000   0.00003   0.00003  -2.51636
   Z30        2.92612  -0.00001   0.00000  -0.00001  -0.00001   2.92611
   X31       -0.89434   0.00002   0.00000   0.00002   0.00002  -0.89433
   Y31        7.01524   0.00002   0.00000   0.00002   0.00002   7.01526
   Z31       -3.79079   0.00000   0.00000   0.00000   0.00000  -3.79078
   X32       -1.83812  -0.00003   0.00000  -0.00003  -0.00003  -1.83816
   Y32        0.59203  -0.00002   0.00000  -0.00002  -0.00002   0.59201
   Z32        1.86551   0.00005   0.00000   0.00005   0.00005   1.86555
         Item               Value     Threshold  Converged?
 Maximum Force            0.000114     0.000450     YES
 RMS     Force            0.000036     0.000300     YES
 Maximum Displacement     0.000114     0.001800     YES
 RMS     Displacement     0.000036     0.001200     YES
 Predicted change in Energy=-6.369879D-08
 Optimization completed.
    -- Stationary point found.
 GradGradGradGradGradGradGradGradGradGradGradGradGradGradGradGradGradGrad

                          Input orientation:                          
 ---------------------------------------------------------------------
 Center     Atomic     Atomic              Coordinates (Angstroms)
 Number     Number      Type              X           Y           Z
 ---------------------------------------------------------------------
    1          8      10081003       -0.251308    0.534281   -0.920916
    2          6      10061003       -0.018023    0.207330    0.433777
    3          6      10061003        0.956546    1.227481    1.007936
    4          6      10061003        0.232074    1.841440   -1.145136
    5          6      10061003        0.664883    2.447219    0.185459
    6          8      10081003        1.807164    3.247091    0.026392
    7          6      10061003       -0.844747    2.679891   -1.832612
    8          6      10061003        0.540618   -1.236154    0.558470
    9          7      10071000       -0.458149   -2.341074    0.409411
   10          6      10061003        0.280681   -3.626465    0.407664
   11          6      10061003       -1.412039   -2.354157    1.544827
   12          6      10061003       -1.208855   -2.230937   -0.862612
   13          1      10011000        1.945287    3.714033    0.891514
   14          1      10011000       -1.762555    2.721057   -1.207653
   15          1      10011000       -1.103265    2.226835   -2.813086
   16          1      10011000       -0.412784   -4.492881    0.316970
   17          1      10011000        0.993839   -3.678462   -0.445792
   18          1      10011000        0.861364   -3.756106    1.348862
   19          1      10011000       -2.066333   -3.254118    1.504683
   20          1      10011000       -0.875371   -2.367642    2.519614
   21          1      10011000       -2.089789   -1.475791    1.530825
   22          1      10011000       -1.846073   -3.128518   -1.029758
   23          1      10011000       -1.892073   -1.354247   -0.858837
   24          1      10011000       -0.514871   -2.137420   -1.727637
   25          1      10011000        2.011149    0.904421    0.850172
   26          1      10011000        0.775888    1.408684    2.090202
   27          1      10011000        1.109693    1.768883   -1.826286
   28          1      10011000       -0.165653    3.028489    0.653126
   29          1      10011000        1.346419   -1.344547   -0.204459
   30          1      10011000        1.045253   -1.331615    1.548435
   31          1      10011000       -0.473265    3.712307   -2.005997
   32          1      10011000       -0.972694    0.313290    0.987183
 ---------------------------------------------------------------------
                    Distance matrix (angstroms):
                    1          2          3          4          5
     1  O    0.000000
     2  C    1.412980   0.000000
     3  C    2.379056   1.523204   0.000000
     4  C    1.411594   2.286008   2.353195   0.000000
     5  C    2.392238   2.354808   1.499765   1.524721   0.000000
     6  O    3.534691   3.568952   2.401209   2.414382   1.403533
     7  C    2.405618   3.454497   3.663723   1.528125   2.530954
     8  C    2.439296   1.552827   2.538604   3.531155   3.704296
     9  N    3.174937   2.586246   3.885123   4.515136   4.923322
    10  C    4.399994   3.845502   4.937399   5.684324   6.089878
    11  C    3.971179   3.120726   4.327421   5.248052   5.405062
    12  C    2.926898   3.007300   4.488716   4.329014   5.147280
    13  H    4.268577   4.044882   2.678452   3.254173   1.934623
    14  H    2.673588   3.472248   3.812232   2.180867   2.812153
    15  H    2.677849   3.974703   4.454407   2.171109   3.488006
    16  H    5.179845   4.718206   5.922419   6.532781   7.024503
    17  H    4.418522   4.110583   5.116932   5.615932   6.166900
    18  H    4.979694   4.161673   4.996141   6.160240   6.314534
    19  H    4.850754   4.162215   5.428561   6.186189   6.457951
    20  H    4.543992   3.422900   4.308827   5.689745   5.568082
    21  H    3.664893   2.885936   4.106245   4.853436   4.978778
    22  H    3.996400   4.075730   5.566111   5.388181   6.234620
    23  H    2.502499   2.760694   4.273732   3.847907   4.698906
    24  H    2.803257   3.227448   4.579409   4.090057   5.105944
    25  H    2.896976   2.185603   1.114202   2.832732   2.152789
    26  H    3.299477   2.194833   1.112102   3.309142   2.172308
    27  H    2.048478   2.969525   2.889531   1.113304   2.169128
    28  H    2.950596   2.833522   2.151477   2.191122   1.116412
    29  H    2.568275   2.162722   2.870057   3.503877   3.872210
    30  H    3.355641   2.177468   2.617055   4.240856   4.035091
    31  H    3.365489   4.294719   4.159630   2.176862   2.774583
    32  H    2.051847   1.108549   2.134980   2.886779   2.806789
                    6          7          8          9         10
     6  O    0.000000
     7  C    3.287894   0.000000
     8  C    4.689001   4.792902   0.000000
     9  N    6.042014   5.512369   1.496864   0.000000
    10  C    7.051332   6.786424   2.409128   1.482600   0.000000
    11  C    6.636482   6.088559   2.456766   1.482986   2.403582
    12  C    6.316288   5.018935   2.463681   1.481125   2.404125
    13  H    0.992748   4.034179   5.156390   6.532476   7.542409
    14  H    3.813460   1.111144   4.907474   5.471886   6.861129
    15  H    4.192154   1.110594   5.105098   5.627296   6.822731
    16  H    8.057281   7.500397   3.401995   2.154270   1.113462
    17  H    6.989116   6.762568   2.679333   2.151337   1.113411
    18  H    7.189453   7.379339   2.660406   2.150813   1.113487
    19  H    7.710709   6.916810   3.429823   2.149307   2.617358
    20  H    6.703534   6.664862   2.670464   2.151217   2.716878
    21  H    6.305171   5.489310   2.814594   2.160679   3.392052
    22  H    7.423609   5.948515   3.435083   2.148862   2.614807
    23  H    5.969949   4.280117   2.817922   2.153698   3.389374
    24  H    6.120573   4.829733   2.674438   2.147479   2.722070
    25  H    2.491651   4.301833   2.613353   4.101822   4.870242
    26  H    2.950014   4.430676   3.065408   4.290524   5.331875
    27  H    2.470624   2.156342   3.878293   4.934392   5.898099
    28  H    2.081487   2.600304   4.323766   5.383044   6.674419
    29  H    4.620467   4.862940   1.114955   2.150900   2.591842
    30  H    4.884840   5.576356   1.115258   2.139299   2.674372
    31  H    3.089886   1.110831   5.664955   6.517504   7.762202
    32  H    4.154264   3.683532   2.207868   2.764820   4.174741
                   11         12         13         14         15
    11  C    0.000000
    12  C    2.419138   0.000000
    13  H    6.965729   6.954728   0.000000
    14  H    5.784186   4.994785   4.374997   0.000000
    15  H    6.330264   4.866953   5.022896   1.804531   0.000000
    16  H    2.660881   2.672365   8.558273   7.495816   7.445039
    17  H    3.391843   2.668507   7.572491   7.009421   6.698840
    18  H    2.678100   3.391543   7.562210   7.441394   7.548321
    19  H    1.113392   2.717765   8.063758   6.569000   7.043541
    20  H    1.112836   3.401375   6.898810   6.369809   7.042644
    21  H    1.109535   2.659855   6.604909   5.021939   5.792429
    22  H    2.723327   1.113389   8.055196   5.852875   5.693138
    23  H    2.647235   1.111479   6.593673   4.092255   4.155172
    24  H    3.400133   1.112937   6.866719   5.043004   4.535541
    25  H    4.776933   4.809629   2.810688   4.666439   4.986764
    26  H    4.386734   5.089711   2.849382   4.363698   5.314397
    27  H    5.892623   4.722595   3.445035   3.088552   2.465903
    28  H    5.596560   5.572010   2.232234   2.471256   3.679183
    29  H    3.418831   2.783573   5.210473   5.215481   5.055754
    30  H    2.661558   3.420955   5.167220   5.648358   6.025077
    31  H    7.091660   6.096768   3.774251   1.811684   1.804139
    32  H    2.760302   3.154458   4.482054   3.352391   4.256847
                   16         17         18         19         20
    16  H    0.000000
    17  H    1.795458   0.000000
    18  H    1.797524   1.801211   0.000000
    19  H    2.383154   3.653638   2.974504   0.000000
    20  H    3.095525   3.742436   2.512915   1.798420   0.000000
    21  H    3.659047   4.274054   3.733932   1.778674   1.802196
    22  H    2.393633   2.951026   3.658129   2.547092   3.757557
    23  H    3.663583   3.728413   4.268989   3.037449   3.670774
    24  H    3.120743   2.508813   3.738851   3.755254   4.268735
    25  H    5.940592   4.870038   4.826097   5.860690   4.671769
    26  H    6.275809   5.688395   5.218424   5.492065   4.143874
    27  H    6.791257   5.620744   6.377205   6.812711   6.319665
    28  H    7.532933   6.894580   6.897067   6.618828   5.753755
    29  H    3.643994   2.372703   2.909244   4.267845   3.661099
    30  H    3.692694   3.080143   2.439632   3.657854   2.388585
    31  H    8.527893   7.694811   8.295391   7.962024   7.590035
    32  H    4.884872   4.674907   4.478232   3.766996   3.089533
                   21         22         23         24         25
    21  H    0.000000
    22  H    3.057366   0.000000
    23  H    2.400906   1.783077   0.000000
    24  H    3.679089   1.800391   1.806892   0.000000
    25  H    4.790239   5.888709   4.822596   4.720029   0.000000
    26  H    4.104291   6.098773   4.842379   5.368129   1.821490
    27  H    5.659929   5.775426   4.438525   4.231801   2.953532
    28  H    4.976062   6.600351   4.947215   5.698824   3.047780
    29  H    3.851748   3.749090   3.303957   2.532413   2.571375
    30  H    3.138405   4.270328   3.797808   3.716981   2.533847
    31  H    6.483720   7.045178   5.385069   5.856494   4.713199
    32  H    2.178133   4.083734   2.652118   3.685896   3.044918
                   26         27         28         29         30
    26  H    0.000000
    27  H    3.947157   0.000000
    28  H    2.361240   3.059510   0.000000
    29  H    3.629223   3.518495   4.705874   0.000000
    30  H    2.806298   4.583228   4.612849   1.778624   0.000000
    31  H    4.862706   2.512957   2.762819   5.668206   6.354607
    32  H    2.339674   3.790870   2.852229   3.089776   2.663236
                   31         32
    31  H    0.000000
    32  H    4.556520   0.000000
 Stoichiometry    C9H20NO2(1+)
 Framework group  C1[X(C9H20NO2)]
 Deg. of freedom    90
 Full point group                 C1
 Largest Abelian subgroup         C1      NOp   1
 Largest concise Abelian subgroup C1      NOp   1
                         Standard orientation:                         
 ---------------------------------------------------------------------
 Center     Atomic     Atomic              Coordinates (Angstroms)
 Number     Number      Type              X           Y           Z
 ---------------------------------------------------------------------
    1          8      10081003        0.635071    0.864932   -0.223396
    2          6      10061003        0.126777   -0.326425    0.341243
    3          6      10061003        1.204701   -1.397894    0.240335
    4          6      10061003        2.031676    0.719514   -0.368124
    5          6      10061003        2.466308   -0.588144    0.284488
    6          8      10081003        3.496416   -1.198136   -0.448104
    7          6      10061003        2.742939    1.927266    0.240650
    8          6      10061003       -1.172159   -0.765110   -0.387862
    9          7      10071000       -2.412166   -0.005750   -0.032396
   10          6      10061003       -3.499861   -0.462685   -0.930300
   11          6      10061003       -2.819933   -0.276164    1.367550
   12          6      10061003       -2.232251    1.452452   -0.219505
   13          1      10011000        3.820327   -1.957936    0.102653
   14          1      10011000        2.485442    2.027578    1.316881
   15          1      10011000        2.428490    2.852512   -0.287044
   16          1      10011000       -4.458671    0.055536   -0.702426
   17          1      10011000       -3.253678   -0.256438   -1.996387
   18          1      10011000       -3.674237   -1.557246   -0.823617
   19          1      10011000       -3.812087    0.178429    1.588043
   20          1      10011000       -2.897346   -1.369702    1.558820
   21          1      10011000       -2.109009    0.157664    2.100659
   22          1      10011000       -3.196080    1.994232   -0.088582
   23          1      10011000       -1.527208    1.876043    0.528072
   24          1      10011000       -1.847772    1.678548   -1.239155
   25          1      10011000        1.135450   -1.943401   -0.728723
   26          1      10011000        1.150237   -2.120300    1.084097
   27          1      10011000        2.260782    0.688397   -1.457155
   28          1      10011000        2.774562   -0.426543    1.345262
   29          1      10011000       -0.977589   -0.687138   -1.482936
   30          1      10011000       -1.337705   -1.849299   -0.185554
   31          1      10011000        3.843254    1.816095    0.136279
   32          1      10011000       -0.063083   -0.148006    1.418741
 ---------------------------------------------------------------------
 Rotational constants (GHZ):      1.8680976      0.4798915      0.4290396
 1|1|UNPC-UNK|FOpt|UFF|ZDO|C9H20N1O2(1+)|PCUSER|13-Dec-2007|0||# opt uf
 f||muscarine-B||1,1|O,-0.2513078094,0.5342809362,-0.920916337|C,-0.018
 0232397,0.2073300674,0.4337767623|C,0.9565457541,1.2274808002,1.007936
 461|C,0.2320743568,1.84144047,-1.1451360847|C,0.6648825629,2.447218619
 5,0.1854594356|O,1.8071640532,3.2470908892,0.0263923499|C,-0.844747006
 4,2.6798906182,-1.8326120444|C,0.5406175338,-1.236153591,0.5584695061|
 N,-0.4581492431,-2.3410742403,0.4094112489|C,0.2806810848,-3.626464813
 5,0.4076641385|C,-1.4120387435,-2.3541570462,1.5448273708|C,-1.2088554
 788,-2.2309374493,-0.8626115602|H,1.9452869613,3.7140326194,0.89151420
 62|H,-1.7625549655,2.7210565766,-1.2076529149|H,-1.1032649117,2.226834
 9633,-2.8130857773|H,-0.412783742,-4.4928814602,0.3169695282|H,0.99383
 86791,-3.6784624436,-0.4457921007|H,0.8613635156,-3.7561058017,1.34886
 20676|H,-2.0663326055,-3.254118086,1.5046825095|H,-0.8753711289,-2.367
 6416362,2.5196140163|H,-2.0897889174,-1.4757911634,1.5308250741|H,-1.8
 460729039,-3.1285176403,-1.0297575443|H,-1.8920725662,-1.3542473002,-0
 .8588365756|H,-0.5148705663,-2.1374199833,-1.7276365053|H,2.0111491521
 ,0.9044210335,0.8501723718|H,0.775887635,1.4086843648,2.0902021269|H,1
 .1096931578,1.7688831732,-1.8262864166|H,-0.165653164,3.0284889158,0.6
 531259341|H,1.3464188631,-1.3445465898,-0.204458942|H,1.0452528998,-1.
 3316145117,1.5484345685|H,-0.473265408,3.7123073428,-2.0059973284|H,-0
 .972693569,0.3132904467,0.9871828552||Version=IA32W-G03RevD.01|HF=0.08
 53364|RMSD=0.000e+000|RMSF=3.643e-005|Thermal=0.|Dipole=0.,0.,0.|PG=C0
 1 [X(C9H20N1O2)]||@


 DEMOCRATS BUY MOST OF THE BOOKS THAT HAVE BEEN
 BANNED; REPUBLICANS FORM CENSORSHIP COMMITTEES AND
 READ THEM AS A GROUP.
 Job cpu time:  0 days  0 hours  0 minutes  3.0 seconds.
 File lengths (MBytes):  RWF=     11 Int=      0 D2E=      0 Chk=      4 Scr=      1
 Normal termination of Gaussian 03 at Thu Dec 13 11:51:52 2007.
