 Entering Gaussian System, Link 0=g09
 Input=2_methylcyclohexanone_ax.gjf
 Output=2_methylcyclohexanone_ax.out
 Initial command:
 /usr/local/g09/l1.exe /home/scratch/stylianakis/Gau-951.inp -scrdir=/home/scratch/stylianakis/
 Entering Link 1 = /usr/local/g09/l1.exe PID=       952.
  
 Copyright (c) 1988,1990,1992,1993,1995,1998,2003,2009, Gaussian, Inc.
                  All Rights Reserved.
  
 This is part of the Gaussian(R) 09 program.  It is based on
 the Gaussian(R) 03 system (copyright 2003, Gaussian, Inc.),
 the Gaussian(R) 98 system (copyright 1998, Gaussian, Inc.),
 the Gaussian(R) 94 system (copyright 1995, Gaussian, Inc.),
 the Gaussian 92(TM) system (copyright 1992, Gaussian, Inc.),
 the Gaussian 90(TM) system (copyright 1990, Gaussian, Inc.),
 the Gaussian 88(TM) system (copyright 1988, Gaussian, Inc.),
 the Gaussian 86(TM) system (copyright 1986, Carnegie Mellon
 University), and the Gaussian 82(TM) system (copyright 1983,
 Carnegie Mellon University). Gaussian is a federally registered
 trademark of Gaussian, Inc.
  
 This software contains proprietary and confidential information,
 including trade secrets, belonging to Gaussian, Inc.
  
 This software is provided under written license and may be
 used, copied, transmitted, or stored only in accord with that
 written license.
  
 The following legend is applicable only to US Government
 contracts under FAR:
  
                    RESTRICTED RIGHTS LEGEND
  
 Use, reproduction and disclosure by the US Government is
 subject to restrictions as set forth in subparagraphs (a)
 and (c) of the Commercial Computer Software - Restricted
 Rights clause in FAR 52.227-19.
  
 Gaussian, Inc.
 340 Quinnipiac St., Bldg. 40, Wallingford CT 06492
  
  
 ---------------------------------------------------------------
 Warning -- This program may not be used in any manner that
 competes with the business of Gaussian, Inc. or will provide
 assistance to any competitor of Gaussian, Inc.  The licensee
 of this program is prohibited from giving any competitor of
 Gaussian, Inc. access to this program.  By using this program,
 the user acknowledges that Gaussian, Inc. is engaged in the
 business of creating and licensing software in the field of
 computational chemistry and represents and warrants to the
 licensee that it is not a competitor of Gaussian, Inc. and that
 it will not use this program in any manner prohibited above.
 ---------------------------------------------------------------
  

 Cite this work as:
 Gaussian 09, Revision A.01,
 M. J. Frisch, G. W. Trucks, H. B. Schlegel, G. E. Scuseria, 
 M. A. Robb, J. R. Cheeseman, G. Scalmani, V. Barone, B. Mennucci, 
 G. A. Petersson, H. Nakatsuji, M. Caricato, X. Li, H. P. Hratchian, 
 A. F. Izmaylov, J. Bloino, G. Zheng, J. L. Sonnenberg, M. Hada, 
 M. Ehara, K. Toyota, R. Fukuda, J. Hasegawa, M. Ishida, T. Nakajima, 
 Y. Honda, O. Kitao, H. Nakai, T. Vreven, J. A. Montgomery, Jr., 
 J. E. Peralta, F. Ogliaro, M. Bearpark, J. J. Heyd, E. Brothers, 
 K. N. Kudin, V. N. Staroverov, R. Kobayashi, J. Normand, 
 K. Raghavachari, A. Rendell, J. C. Burant, S. S. Iyengar, J. Tomasi, 
 M. Cossi, N. Rega, J. M. Millam, M. Klene, J. E. Knox, J. B. Cross, 
 V. Bakken, C. Adamo, J. Jaramillo, R. Gomperts, R. E. Stratmann, 
 O. Yazyev, A. J. Austin, R. Cammi, C. Pomelli, J. W. Ochterski, 
 R. L. Martin, K. Morokuma, V. G. Zakrzewski, G. A. Voth, 
 P. Salvador, J. J. Dannenberg, S. Dapprich, A. D. Daniels, 
 O. Farkas, J. B. Foresman, J. V. Ortiz, J. Cioslowski, 
 and D. J. Fox, Gaussian, Inc., Wallingford CT, 2009.
 
 ******************************************
 Gaussian 09:  EM64L-G09RevA.01  8-May-2009
                13-Mar-2016 
 ******************************************
 %mem=16000Mb
 %nproc=8
 Will use up to    8 processors via shared memory.
 -------------
 # mp2/cc-pVTZ
 -------------
 1/38=1/1;
 2/12=2,17=6,18=5,40=1/2;
 3/5=16,6=1,11=9,16=1,25=1,30=1/1,2,3;
 4//1;
 5/5=2,38=5/2;
 8/10=1/1;
 9/16=-3/6;
 6/7=2,8=2,9=2,10=2/1;
 99/5=1,9=1/99;
 -------------------------------------
 2_methylcyclohexanone_ax_single_point
 -------------------------------------
 Symbolic Z-matrix:
 Charge =  0 Multiplicity = 1
 c
 c                    1    cc2
 c                    2    cc3      1    ccc3
 c                    3    cc4      2    ccc4     1    dih4     0
 c                    4    cc5      3    ccc5     2    dih5     0
 c                    5    cc6      4    ccc6     3    dih6     0
 o                    2    oc7      3    occ7     4    dih7     0
 c                    1    cc8      2    ccc8     3    dih8     0
 h                    3    hc9      4    hcc9     5    dih9     0
 h                    3    hc10     4    hcc10    5    dih10    0
 h                    4    hc11     3    hcc11    2    dih11    0
 h                    4    hc12     3    hcc12    2    dih12    0
 h                    5    hc13     4    hcc13    3    dih13    0
 h                    5    hc14     4    hcc14    3    dih14    0
 h                    6    hc15     5    hcc15    4    dih15    0
 h                    6    hc16     5    hcc16    4    dih16    0
 h                    1    hc17     2    hcc17    3    dih17    0
 h                    8    hc18     1    hcc18    2    dih18    0
 h                    8    hc19     1    hcc19    2    dih19    0
 h                    8    hc20     1    hcc20    2    dih20    0
       Variables:
  cc2                   1.53012                  
  cc3                   1.52266                  
  ccc3                116.736                    
  cc4                   1.54297                  
  ccc4                112.167                    
  dih4                 47.567                    
  cc5                   1.53501                  
  ccc5                111.454                    
  dih5                -51.776                    
  cc6                   1.53658                  
  ccc6                110.991                    
  dih6                 56.38                     
  oc7                   1.2207                   
  occ7                121.784                    
  dih7               -133.248                    
  cc8                   1.54516                  
  ccc8                109.92                     
  dih8                 79.815                    
  hc9                   1.09341                  
  hcc9                112.27                     
  dih9               -173.939                    
  hc10                  1.10023                  
  hcc10               108.982                    
  dih10                67.17                     
  hc11                  1.09613                  
  hcc11               109.563                    
  dih11              -174.743                    
  hc12                  1.09872                  
  hcc12               109.074                    
  dih12                69.016                    
  hc13                  1.09839                  
  hcc13               109.596                    
  dih13               -65.655                    
  hc14                  1.09653                  
  hcc14               110.018                    
  dih14               177.839                    
  hc15                  1.09736                  
  hcc15               110.596                    
  dih15              -178.687                    
  hc16                  1.09866                  
  hcc16               108.594                    
  dih16                64.921                    
  hc17                  1.09548                  
  hcc17               105.901                    
  dih17              -164.097                    
  hc18                  1.09458                  
  hcc18               110.82                     
  dih18                56.652                    
  hc19                  1.09553                  
  hcc19               109.791                    
  dih19               175.834                    
  hc20                  1.09472                  
  hcc20               112.46                     
  dih20               -64.337                    
 
                          Input orientation:                          
 ---------------------------------------------------------------------
 Center     Atomic      Atomic             Coordinates (Angstroms)
 Number     Number       Type             X           Y           Z
 ---------------------------------------------------------------------
      1          6           0        0.000000    0.000000    0.000000
      2          6           0        0.000000    0.000000    1.530120
      3          6           0        1.359872    0.000000    2.215135
      4          6           0        2.313548    1.054640    1.615986
      5          6           0        2.403361    0.927277    0.088913
      6          6           0        1.012168    1.032448   -0.554974
      7          8           0       -1.040995   -0.014759    2.167478
      8          6           0        0.256878   -1.429816   -0.526447
      9          1           0        1.203146    0.144723    3.287534
     10          1           0        1.799774   -0.999128    2.078257
     11          1           0        3.304691    0.955242    2.073438
     12          1           0        1.948580    2.057775    1.876165
     13          1           0        2.872865   -0.030296   -0.173905
     14          1           0        3.055640    1.710523   -0.315358
     15          1           0        1.081176    0.917309   -1.644095
     16          1           0        0.617916    2.041884   -0.374268
     17          1           0       -1.013240    0.288686   -0.300135
     18          1           0       -0.485738   -2.129551   -0.130226
     19          1           0        0.182901   -1.441544   -1.619411
     20          1           0        1.250321   -1.802501   -0.257017
 ---------------------------------------------------------------------
                    Distance matrix (angstroms):
                    1          2          3          4          5
     1  C    0.000000
     2  C    1.530120   0.000000
     3  C    2.599245   1.522661   0.000000
     4  C    3.012670   2.544041   1.542966   0.000000
     5  C    2.577575   2.951790   2.543528   1.535005   0.000000
     6  C    1.548687   2.537331   2.976634   2.531235   1.536577
     7  O    2.404548   1.220702   2.401385   3.563807   4.131761
     8  C    1.545156   2.517901   3.282871   3.872006   3.246836
     9  H    3.503767   2.134715   1.093411   2.203410   3.504866
    10  H    2.925165   2.130234   1.100230   2.166938   2.834227
    11  H    4.016543   3.482624   2.171380   1.096133   2.179798
    12  H    3.398735   2.855022   2.167006   1.098715   2.163128
    13  H    2.878283   3.340356   2.828000   2.166480   1.098387
    14  H    3.516003   3.958360   3.493554   2.170478   1.096530
    15  H    2.171047   3.476498   3.976529   3.487940   2.179814
    16  H    2.165915   2.859686   3.380059   2.794804   2.155157
    17  H    1.095480   2.111831   3.470099   3.914809   3.497473
    18  H    2.188125   2.743661   3.666331   4.585230   4.211783
    19  H    2.175774   3.468580   4.262283   4.608513   3.668804
    20  H    2.208703   2.829517   3.061461   3.577967   2.983430
                    6          7          8          9         10
     6  C    0.000000
     7  O    3.567053   0.000000
     8  C    2.575660   3.308185   0.000000
     9  H    3.948341   2.513191   4.233326   0.000000
    10  H    3.417825   3.007808   3.057858   1.768251   0.000000
    11  H    3.488578   4.453621   4.662303   2.558801   2.466650
    12  H    2.799750   3.649359   4.560449   2.491466   3.067188
    13  H    2.176427   4.560770   2.987696   3.847097   2.676265
    14  H    2.166328   5.091512   4.211812   4.343305   3.827375
    15  H    1.097362   4.460991   2.727197   4.993268   4.247942
    16  H    1.098658   3.666366   3.493739   4.165395   4.081595
    17  H    2.172649   2.486356   2.148876   4.219534   3.902340
    18  H    3.524539   3.171766   1.094577   4.439114   3.373250
    19  H    2.818040   4.227785   1.095528   5.256925   4.059896
    20  H    2.860495   3.784748   1.094721   4.044471   2.529982
                   11         12         13         14         15
    11  H    0.000000
    12  H    1.758845   0.000000
    13  H    2.491649   3.068735   0.000000
    14  H    2.517702   2.479706   1.756094   0.000000
    15  H    4.331918   3.800695   2.503910   2.508633   0.000000
    16  H    3.793523   2.614454   3.069018   2.460847   1.758333
    17  H    4.972191   4.079012   3.901218   4.310179   2.566704
    18  H    5.360918   5.242634   3.960934   5.227026   3.745714
    19  H    5.396971   5.251848   3.364077   4.459676   2.524222
    20  H    4.154107   4.465396   2.404219   3.950180   3.057771
                   16         17         18         19         20
    16  H    0.000000
    17  H    2.395802   0.000000
    18  H    4.321861   2.480927   0.000000
    19  H    3.724767   2.482929   1.771470   0.000000
    20  H    3.897817   3.081985   1.771140   1.767991   0.000000
 Stoichiometry    C7H12O
 Framework group  C1[X(C7H12O)]
 Deg. of freedom    54
 Full point group                 C1      NOp   1
 Largest Abelian subgroup         C1      NOp   1
 Largest concise Abelian subgroup C1      NOp   1
                         Standard orientation:                         
 ---------------------------------------------------------------------
 Center     Atomic      Atomic             Coordinates (Angstroms)
 Number     Number       Type             X           Y           Z
 ---------------------------------------------------------------------
      1          6           0        0.749699    0.786180   -0.379945
      2          6           0        0.867252   -0.721400   -0.146170
      3          6           0       -0.259127   -1.383197    0.636000
      4          6           0       -1.651249   -0.963736    0.119479
      5          6           0       -1.783728    0.563455    0.039619
      6          6           0       -0.678815    1.166471   -0.841634
      7          8           0        1.826025   -1.356897   -0.554839
      8          6           0        1.190516    1.551475    0.887932
      9          1           0       -0.112113   -2.466022    0.598240
     10          1           0       -0.159113   -1.073500    1.686995
     11          1           0       -2.426485   -1.387911    0.768010
     12          1           0       -1.808731   -1.394878   -0.878765
     13          1           0       -1.739514    0.990428    1.050655
     14          1           0       -2.765945    0.834338   -0.365658
     15          1           0       -0.765628    2.259873   -0.875382
     16          1           0       -0.820115    0.812274   -1.871987
     17          1           0        1.462982    1.022824   -1.177004
     18          1           0        2.209320    1.273394    1.175696
     19          1           0        1.176460    2.629628    0.694099
     20          1           0        0.533395    1.359235    1.742127
 ---------------------------------------------------------------------
 Rotational constants (GHZ):      2.5148782      2.0964377      1.4460370
 Standard basis: CC-pVTZ (5D, 7F)
 There are   408 symmetry adapted basis functions of A   symmetry.
 Integral buffers will be    131072 words long.
 Raffenetti 1 integral format.
 Two-electron integral symmetry is turned on.
   408 basis functions,   620 primitive gaussians,   460 cartesian basis functions
    31 alpha electrons       31 beta electrons
       nuclear repulsion energy       391.4692900526 Hartrees.
 NAtoms=   20 NActive=   20 NUniq=   20 SFac= 7.50D-01 NAtFMM=   80 NAOKFM=F Big=F
 One-electron integrals computed using PRISM.
 NBasis=   408 RedAO= T  NBF=   408
 NBsUse=   408 1.00D-06 NBFU=   408
 Harris functional with IExCor=  205 diagonalized for initial guess.
 ExpMin= 1.03D-01 ExpMax= 1.53D+04 ExpMxC= 5.22D+02 IAcc=1 IRadAn=         1 AccDes= 0.00D+00
 HarFok:  IExCor=  205 AccDes= 0.00D+00 IRadAn=         1 IDoV= 1
 ScaDFX=  1.000000  1.000000  1.000000  1.000000
 FoFCou: FMM=F IPFlag=           0 FMFlag=      100000 FMFlg1=           0
         NFxFlg=           0 DoJE=T BraDBF=F KetDBF=T FulRan=T
         Omega=  0.000000  0.000000  1.000000  0.000000  0.000000 ICntrl=     500 IOpCl=  0
         NMat0=    1 NMatS0=    1 NMatT0=    0 NMatD0=    1 NMtDS0=    0 NMtDT0=    0
         I1Cent=           4 NGrid=           0.
 Petite list used in FoFCou.
 Initial guess orbital symmetries:
       Occupied  (A) (A) (A) (A) (A) (A) (A) (A) (A) (A) (A) (A)
                 (A) (A) (A) (A) (A) (A) (A) (A) (A) (A) (A) (A)
                 (A) (A) (A) (A) (A) (A) (A)
       Virtual   (A) (A) (A) (A) (A) (A) (A) (A) (A) (A) (A) (A)
                 (A) (A) (A) (A) (A) (A) (A) (A) (A) (A) (A) (A)
                 (A) (A) (A) (A) (A) (A) (A) (A) (A) (A) (A) (A)
                 (A) (A) (A) (A) (A) (A) (A) (A) (A) (A) (A) (A)
                 (A) (A) (A) (A) (A) (A) (A) (A) (A) (A) (A) (A)
                 (A) (A) (A) (A) (A) (A) (A) (A) (A) (A) (A) (A)
                 (A) (A) (A) (A) (A) (A) (A) (A) (A) (A) (A) (A)
                 (A) (A) (A) (A) (A) (A) (A) (A) (A) (A) (A) (A)
                 (A) (A) (A) (A) (A) (A) (A) (A) (A) (A) (A) (A)
                 (A) (A) (A) (A) (A) (A) (A) (A) (A) (A) (A) (A)
                 (A) (A) (A) (A) (A) (A) (A) (A) (A) (A) (A) (A)
                 (A) (A) (A) (A) (A) (A) (A) (A) (A) (A) (A) (A)
                 (A) (A) (A) (A) (A) (A) (A) (A) (A) (A) (A) (A)
                 (A) (A) (A) (A) (A) (A) (A) (A) (A) (A) (A) (A)
                 (A) (A) (A) (A) (A) (A) (A) (A) (A) (A) (A) (A)
                 (A) (A) (A) (A) (A) (A) (A) (A) (A) (A) (A) (A)
                 (A) (A) (A) (A) (A) (A) (A) (A) (A) (A) (A) (A)
                 (A) (A) (A) (A) (A) (A) (A) (A) (A) (A) (A) (A)
                 (A) (A) (A) (A) (A) (A) (A) (A) (A) (A) (A) (A)
                 (A) (A) (A) (A) (A) (A) (A) (A) (A) (A) (A) (A)
                 (A) (A) (A) (A) (A) (A) (A) (A) (A) (A) (A) (A)
                 (A) (A) (A) (A) (A) (A) (A) (A) (A) (A) (A) (A)
                 (A) (A) (A) (A) (A) (A) (A) (A) (A) (A) (A) (A)
                 (A) (A) (A) (A) (A) (A) (A) (A) (A) (A) (A) (A)
                 (A) (A) (A) (A) (A) (A) (A) (A) (A) (A) (A) (A)
                 (A) (A) (A) (A) (A) (A) (A) (A) (A) (A) (A) (A)
                 (A) (A) (A) (A) (A) (A) (A) (A) (A) (A) (A) (A)
                 (A) (A) (A) (A) (A) (A) (A) (A) (A) (A) (A) (A)
                 (A) (A) (A) (A) (A) (A) (A) (A) (A) (A) (A) (A)
                 (A) (A) (A) (A) (A) (A) (A) (A) (A) (A) (A) (A)
                 (A) (A) (A) (A) (A) (A) (A) (A) (A) (A) (A) (A)
                 (A) (A) (A) (A) (A)
 The electronic state of the initial guess is 1-A.
 Requested convergence on RMS density matrix=1.00D-08 within 128 cycles.
 Requested convergence on MAX density matrix=1.00D-06.
 Requested convergence on             energy=1.00D-06.
 No special actions if energy rises.
 Integral accuracy reduced to 1.0D-05 until final iterations.
 Initial convergence to 1.0D-05 achieved.  Increase integral accuracy.
 SCF Done:  E(RHF) =  -347.054791020     A.U. after   13 cycles
             Convg  =    0.9566D-08             -V/T =  2.0018
 ExpMin= 1.03D-01 ExpMax= 1.53D+04 ExpMxC= 5.22D+02 IAcc=1 IRadAn=         1 AccDes= 0.00D+00
 HarFok:  IExCor=  205 AccDes= 0.00D+00 IRadAn=         1 IDoV=-2
 ScaDFX=  1.000000  1.000000  1.000000  1.000000
 Range of M.O.s used for correlation:     9   408
 NBasis=   408 NAE=    31 NBE=    31 NFC=     8 NFV=     0
 NROrb=    400 NOA=    23 NOB=    23 NVA=   377 NVB=   377

 **** Warning!!: The largest alpha MO coefficient is  0.12843123D+02

 Fully direct method using O(OVN) memory.
 JobTyp=1 Pass  1:  I=   1 to  23 NPSUse=  8 ParTrn=T ParDer=T DoDerP=F.
 Spin components of T(2) and E(2):
     alpha-alpha T2 =       0.5440131494D-01 E2=     -0.1678409088D+00
     alpha-beta  T2 =       0.3218087590D+00 E2=     -0.1082757830D+01
     beta-beta   T2 =       0.5440131494D-01 E2=     -0.1678409088D+00
 ANorm=    0.1196081682D+01
 E2 =    -0.1418439647D+01 EUMP2 =    -0.34847323066759D+03

 **********************************************************************

            Population analysis using the SCF density.

 **********************************************************************

 Orbital symmetries:
       Occupied  (A) (A) (A) (A) (A) (A) (A) (A) (A) (A) (A) (A)
                 (A) (A) (A) (A) (A) (A) (A) (A) (A) (A) (A) (A)
                 (A) (A) (A) (A) (A) (A) (A)
       Virtual   (A) (A) (A) (A) (A) (A) (A) (A) (A) (A) (A) (A)
                 (A) (A) (A) (A) (A) (A) (A) (A) (A) (A) (A) (A)
                 (A) (A) (A) (A) (A) (A) (A) (A) (A) (A) (A) (A)
                 (A) (A) (A) (A) (A) (A) (A) (A) (A) (A) (A) (A)
                 (A) (A) (A) (A) (A) (A) (A) (A) (A) (A) (A) (A)
                 (A) (A) (A) (A) (A) (A) (A) (A) (A) (A) (A) (A)
                 (A) (A) (A) (A) (A) (A) (A) (A) (A) (A) (A) (A)
                 (A) (A) (A) (A) (A) (A) (A) (A) (A) (A) (A) (A)
                 (A) (A) (A) (A) (A) (A) (A) (A) (A) (A) (A) (A)
                 (A) (A) (A) (A) (A) (A) (A) (A) (A) (A) (A) (A)
                 (A) (A) (A) (A) (A) (A) (A) (A) (A) (A) (A) (A)
                 (A) (A) (A) (A) (A) (A) (A) (A) (A) (A) (A) (A)
                 (A) (A) (A) (A) (A) (A) (A) (A) (A) (A) (A) (A)
                 (A) (A) (A) (A) (A) (A) (A) (A) (A) (A) (A) (A)
                 (A) (A) (A) (A) (A) (A) (A) (A) (A) (A) (A) (A)
                 (A) (A) (A) (A) (A) (A) (A) (A) (A) (A) (A) (A)
                 (A) (A) (A) (A) (A) (A) (A) (A) (A) (A) (A) (A)
                 (A) (A) (A) (A) (A) (A) (A) (A) (A) (A) (A) (A)
                 (A) (A) (A) (A) (A) (A) (A) (A) (A) (A) (A) (A)
                 (A) (A) (A) (A) (A) (A) (A) (A) (A) (A) (A) (A)
                 (A) (A) (A) (A) (A) (A) (A) (A) (A) (A) (A) (A)
                 (A) (A) (A) (A) (A) (A) (A) (A) (A) (A) (A) (A)
                 (A) (A) (A) (A) (A) (A) (A) (A) (A) (A) (A) (A)
                 (A) (A) (A) (A) (A) (A) (A) (A) (A) (A) (A) (A)
                 (A) (A) (A) (A) (A) (A) (A) (A) (A) (A) (A) (A)
                 (A) (A) (A) (A) (A) (A) (A) (A) (A) (A) (A) (A)
                 (A) (A) (A) (A) (A) (A) (A) (A) (A) (A) (A) (A)
                 (A) (A) (A) (A) (A) (A) (A) (A) (A) (A) (A) (A)
                 (A) (A) (A) (A) (A) (A) (A) (A) (A) (A) (A) (A)
                 (A) (A) (A) (A) (A) (A) (A) (A) (A) (A) (A) (A)
                 (A) (A) (A) (A) (A) (A) (A) (A) (A) (A) (A) (A)
                 (A) (A) (A) (A) (A)
 The electronic state is 1-A.
 Alpha  occ. eigenvalues --  -20.53738 -11.32135 -11.24072 -11.23678 -11.23496
 Alpha  occ. eigenvalues --  -11.23435 -11.23245 -11.22951  -1.37289  -1.12287
 Alpha  occ. eigenvalues --   -1.04506  -0.99663  -0.92047  -0.84263  -0.81184
 Alpha  occ. eigenvalues --   -0.71269  -0.66391  -0.63397  -0.63230  -0.59655
 Alpha  occ. eigenvalues --   -0.58762  -0.56821  -0.56111  -0.55111  -0.52008
 Alpha  occ. eigenvalues --   -0.49849  -0.48938  -0.47318  -0.45992  -0.45528
 Alpha  occ. eigenvalues --   -0.39116
 Alpha virt. eigenvalues --    0.12512   0.14168   0.15129   0.16653   0.17270
 Alpha virt. eigenvalues --    0.19115   0.20691   0.20879   0.21635   0.22618
 Alpha virt. eigenvalues --    0.23361   0.24938   0.25768   0.29548   0.30471
 Alpha virt. eigenvalues --    0.32890   0.34551   0.35954   0.36517   0.37775
 Alpha virt. eigenvalues --    0.39568   0.40168   0.41174   0.42637   0.43859
 Alpha virt. eigenvalues --    0.45852   0.47742   0.49230   0.51735   0.54621
 Alpha virt. eigenvalues --    0.56732   0.57356   0.57922   0.58235   0.59133
 Alpha virt. eigenvalues --    0.59297   0.60329   0.60852   0.61865   0.62429
 Alpha virt. eigenvalues --    0.62979   0.63508   0.64628   0.65921   0.66793
 Alpha virt. eigenvalues --    0.67466   0.68160   0.68595   0.68755   0.69220
 Alpha virt. eigenvalues --    0.70019   0.71489   0.74555   0.78021   0.79903
 Alpha virt. eigenvalues --    0.81294   0.84772   0.85954   0.86892   0.90246
 Alpha virt. eigenvalues --    0.92030   0.93813   0.94308   0.96386   0.98478
 Alpha virt. eigenvalues --    0.99549   1.00218   1.05337   1.06457   1.09045
 Alpha virt. eigenvalues --    1.10593   1.11453   1.13291   1.14089   1.15695
 Alpha virt. eigenvalues --    1.16097   1.17399   1.18601   1.20766   1.21923
 Alpha virt. eigenvalues --    1.22791   1.22990   1.26031   1.27697   1.28192
 Alpha virt. eigenvalues --    1.30186   1.30819   1.31750   1.31977   1.33998
 Alpha virt. eigenvalues --    1.35341   1.36902   1.37407   1.39734   1.40015
 Alpha virt. eigenvalues --    1.41180   1.44028   1.44864   1.45513   1.45711
 Alpha virt. eigenvalues --    1.46739   1.48066   1.49336   1.50270   1.51504
 Alpha virt. eigenvalues --    1.52203   1.53849   1.54458   1.56670   1.59057
 Alpha virt. eigenvalues --    1.59995   1.60102   1.62106   1.63550   1.64038
 Alpha virt. eigenvalues --    1.65252   1.66964   1.67129   1.68623   1.70578
 Alpha virt. eigenvalues --    1.71771   1.73738   1.75174   1.77429   1.78496
 Alpha virt. eigenvalues --    1.79524   1.82717   1.83361   1.86264   1.89332
 Alpha virt. eigenvalues --    1.92206   1.96081   1.98795   2.02033   2.06521
 Alpha virt. eigenvalues --    2.10383   2.17393   2.27104   2.39534   2.45380
 Alpha virt. eigenvalues --    2.48719   2.50309   2.56283   2.58268   2.59863
 Alpha virt. eigenvalues --    2.63268   2.66800   2.69407   2.72364   2.75153
 Alpha virt. eigenvalues --    2.76128   2.76346   2.77048   2.79123   2.79772
 Alpha virt. eigenvalues --    2.82436   2.84714   2.85710   2.86893   2.89015
 Alpha virt. eigenvalues --    2.91625   2.92712   2.93357   2.93707   2.95947
 Alpha virt. eigenvalues --    2.97448   2.98344   2.99256   2.99721   3.00366
 Alpha virt. eigenvalues --    3.02030   3.02832   3.03882   3.08646   3.11269
 Alpha virt. eigenvalues --    3.12039   3.13129   3.16138   3.18295   3.18793
 Alpha virt. eigenvalues --    3.20887   3.21801   3.22545   3.23521   3.26560
 Alpha virt. eigenvalues --    3.27568   3.28925   3.29970   3.31635   3.32312
 Alpha virt. eigenvalues --    3.36506   3.37759   3.38287   3.39303   3.40438
 Alpha virt. eigenvalues --    3.41317   3.42000   3.43863   3.44628   3.45221
 Alpha virt. eigenvalues --    3.45985   3.46539   3.47838   3.48533   3.49312
 Alpha virt. eigenvalues --    3.50082   3.51623   3.52876   3.53670   3.55489
 Alpha virt. eigenvalues --    3.59080   3.59499   3.61270   3.63308   3.64185
 Alpha virt. eigenvalues --    3.65190   3.66778   3.68249   3.69929   3.70905
 Alpha virt. eigenvalues --    3.72292   3.74571   3.75824   3.77568   3.78353
 Alpha virt. eigenvalues --    3.81341   3.82743   3.82898   3.84212   3.86484
 Alpha virt. eigenvalues --    3.89136   3.90772   3.92954   3.93993   3.95735
 Alpha virt. eigenvalues --    3.95806   3.97863   3.98985   4.00477   4.00830
 Alpha virt. eigenvalues --    4.02125   4.04146   4.05124   4.05516   4.06806
 Alpha virt. eigenvalues --    4.08503   4.09353   4.11645   4.13052   4.13739
 Alpha virt. eigenvalues --    4.15116   4.17551   4.18911   4.20247   4.21853
 Alpha virt. eigenvalues --    4.22668   4.23975   4.25233   4.27616   4.30185
 Alpha virt. eigenvalues --    4.31165   4.31593   4.33201   4.33651   4.34551
 Alpha virt. eigenvalues --    4.37083   4.38346   4.40038   4.41259   4.41781
 Alpha virt. eigenvalues --    4.42989   4.44532   4.45852   4.46014   4.47002
 Alpha virt. eigenvalues --    4.48804   4.49451   4.51073   4.52131   4.54566
 Alpha virt. eigenvalues --    4.55947   4.56997   4.59333   4.60338   4.61264
 Alpha virt. eigenvalues --    4.62020   4.62737   4.64147   4.67562   4.68749
 Alpha virt. eigenvalues --    4.70564   4.72767   4.73220   4.75455   4.76502
 Alpha virt. eigenvalues --    4.79113   4.81041   4.82520   4.85616   4.88717
 Alpha virt. eigenvalues --    4.92289   4.95019   4.98926   4.99945   5.01789
 Alpha virt. eigenvalues --    5.05608   5.08058   5.09273   5.14210   5.15852
 Alpha virt. eigenvalues --    5.16996   5.18630   5.20737   5.23136   5.24626
 Alpha virt. eigenvalues --    5.26640   5.29932   5.30838   5.33100   5.34884
 Alpha virt. eigenvalues --    5.35908   5.37515   5.37869   5.41796   5.43516
 Alpha virt. eigenvalues --    5.44689   5.48568   5.49882   5.54153   5.55766
 Alpha virt. eigenvalues --    5.58899   5.59150   5.61926   5.62754   5.64742
 Alpha virt. eigenvalues --    5.66864   5.68598   5.69704   5.70951   5.74389
 Alpha virt. eigenvalues --    5.74828   5.76187   5.78067   5.80171   5.81474
 Alpha virt. eigenvalues --    5.82955   5.85950   5.87962   5.94657   5.98736
 Alpha virt. eigenvalues --    6.01519   6.08690   6.09524   6.19835   6.25493
 Alpha virt. eigenvalues --    6.29924   6.30047   6.36021   6.40630   6.45710
 Alpha virt. eigenvalues --    6.47634   6.71566   6.75719   6.94487   7.00807
 Alpha virt. eigenvalues --    7.09948   7.38402   7.57078   7.58292  10.18811
 Alpha virt. eigenvalues --   12.42783  12.89663  13.19287  13.43204  13.47564
 Alpha virt. eigenvalues --   13.63476  14.19862
          Condensed to atoms (all electrons):
              1          2          3          4          5          6
     1  C    5.098448   0.334763  -0.114880   0.017916  -0.036263   0.313104
     2  C    0.334763   4.513471   0.338074  -0.034280   0.001617  -0.031942
     3  C   -0.114880   0.338074   5.039989   0.305774  -0.041312   0.011956
     4  C    0.017916  -0.034280   0.305774   4.914020   0.333227  -0.052714
     5  C   -0.036263   0.001617  -0.041312   0.333227   4.907170   0.328672
     6  C    0.313104  -0.031942   0.011956  -0.052714   0.328672   4.931389
     7  O   -0.094147   0.710223  -0.089597   0.004740  -0.000793   0.004955
     8  C    0.328813  -0.042472   0.007298  -0.001406  -0.001398  -0.051513
     9  H    0.008645  -0.033286   0.412747  -0.025828   0.005321  -0.001817
    10  H    0.005687  -0.029436   0.401106  -0.038168  -0.002169  -0.000219
    11  H   -0.001728   0.004457  -0.031095   0.429747  -0.034003   0.006717
    12  H    0.001103  -0.001115  -0.040842   0.421808  -0.037465  -0.002399
    13  H   -0.001031  -0.000894  -0.000634  -0.038885   0.421200  -0.035613
    14  H    0.005476  -0.000649   0.005846  -0.033502   0.431053  -0.032901
    15  H   -0.029225   0.004233  -0.001750   0.006849  -0.035201   0.424348
    16  H   -0.044291  -0.000492   0.000746  -0.003099  -0.036828   0.432130
    17  H    0.413880  -0.034005   0.010246  -0.002404   0.006228  -0.031494
    18  H   -0.040411   0.001432   0.000814   0.000004  -0.000378   0.006869
    19  H   -0.032016   0.005141  -0.000806   0.000157   0.000140  -0.005244
    20  H   -0.031964  -0.003095   0.001041  -0.000594   0.000731  -0.002327
              7          8          9         10         11         12
     1  C   -0.094147   0.328813   0.008645   0.005687  -0.001728   0.001103
     2  C    0.710223  -0.042472  -0.033286  -0.029436   0.004457  -0.001115
     3  C   -0.089597   0.007298   0.412747   0.401106  -0.031095  -0.040842
     4  C    0.004740  -0.001406  -0.025828  -0.038168   0.429747   0.421808
     5  C   -0.000793  -0.001398   0.005321  -0.002169  -0.034003  -0.037465
     6  C    0.004955  -0.051513  -0.001817  -0.000219   0.006717  -0.002399
     7  O    7.825359   0.000377   0.006874   0.001728  -0.000231   0.000721
     8  C    0.000377   4.855636  -0.000368  -0.001275   0.000008   0.000039
     9  H    0.006874  -0.000368   0.524692  -0.021559  -0.004852  -0.003211
    10  H    0.001728  -0.001275  -0.021559   0.581717  -0.006543   0.006824
    11  H   -0.000231   0.000008  -0.004852  -0.006543   0.560727  -0.030506
    12  H    0.000721   0.000039  -0.003211   0.006824  -0.030506   0.580959
    13  H    0.000008  -0.000924  -0.000063   0.001398  -0.004685   0.006603
    14  H    0.000005  -0.000200  -0.000215  -0.000110  -0.004358  -0.005079
    15  H   -0.000235  -0.006117   0.000114  -0.000030  -0.000305  -0.000011
    16  H    0.000523   0.007095  -0.000080  -0.000009  -0.000048   0.001985
    17  H    0.007995  -0.025336  -0.000414  -0.000416   0.000122  -0.000214
    18  H    0.003202   0.420374  -0.000132  -0.000355   0.000005  -0.000006
    19  H   -0.000339   0.416162   0.000039   0.000342  -0.000010   0.000015
    20  H    0.000117   0.412008   0.000067  -0.002484   0.000033  -0.000081
             13         14         15         16         17         18
     1  C   -0.001031   0.005476  -0.029225  -0.044291   0.413880  -0.040411
     2  C   -0.000894  -0.000649   0.004233  -0.000492  -0.034005   0.001432
     3  C   -0.000634   0.005846  -0.001750   0.000746   0.010246   0.000814
     4  C   -0.038885  -0.033502   0.006849  -0.003099  -0.002404   0.000004
     5  C    0.421200   0.431053  -0.035201  -0.036828   0.006228  -0.000378
     6  C   -0.035613  -0.032901   0.424348   0.432130  -0.031494   0.006869
     7  O    0.000008   0.000005  -0.000235   0.000523   0.007995   0.003202
     8  C   -0.000924  -0.000200  -0.006117   0.007095  -0.025336   0.420374
     9  H   -0.000063  -0.000215   0.000114  -0.000080  -0.000414  -0.000132
    10  H    0.001398  -0.000110  -0.000030  -0.000009  -0.000416  -0.000355
    11  H   -0.004685  -0.004358  -0.000305  -0.000048   0.000122   0.000005
    12  H    0.006603  -0.005079  -0.000011   0.001985  -0.000214  -0.000006
    13  H    0.588944  -0.030773  -0.004003   0.006274  -0.000301   0.000055
    14  H   -0.030773   0.556902  -0.004419  -0.006005  -0.000230   0.000030
    15  H   -0.004003  -0.004419   0.564495  -0.027988  -0.003915  -0.000133
    16  H    0.006274  -0.006005  -0.027988   0.565095  -0.006254  -0.000243
    17  H   -0.000301  -0.000230  -0.003915  -0.006254   0.539931  -0.002932
    18  H    0.000055   0.000030  -0.000133  -0.000243  -0.002932   0.546590
    19  H    0.000413  -0.000072   0.002964   0.000001  -0.007040  -0.025242
    20  H   -0.002926   0.000092   0.000471  -0.000370   0.005475  -0.029934
             19         20
     1  C   -0.032016  -0.031964
     2  C    0.005141  -0.003095
     3  C   -0.000806   0.001041
     4  C    0.000157  -0.000594
     5  C    0.000140   0.000731
     6  C   -0.005244  -0.002327
     7  O   -0.000339   0.000117
     8  C    0.416162   0.412008
     9  H    0.000039   0.000067
    10  H    0.000342  -0.002484
    11  H   -0.000010   0.000033
    12  H    0.000015  -0.000081
    13  H    0.000413  -0.002926
    14  H   -0.000072   0.000092
    15  H    0.002964   0.000471
    16  H    0.000001  -0.000370
    17  H   -0.007040   0.005475
    18  H   -0.025242  -0.029934
    19  H    0.571408  -0.032112
    20  H   -0.032112   0.593303
 Mulliken atomic charges:
              1
     1  C   -0.101878
     2  C    0.298255
     3  C   -0.214723
     4  C   -0.203360
     5  C   -0.209548
     6  C   -0.211958
     7  O   -0.381483
     8  C   -0.316799
     9  H    0.133327
    10  H    0.103971
    11  H    0.116550
    12  H    0.100871
    13  H    0.095836
    14  H    0.119111
    15  H    0.109857
    16  H    0.111857
    17  H    0.131079
    18  H    0.120387
    19  H    0.106099
    20  H    0.092550
 Sum of Mulliken atomic charges =   0.00000
 Mulliken charges with hydrogens summed into heavy atoms:
              1
     1  C    0.029201
     2  C    0.298255
     3  C    0.022574
     4  C    0.014061
     5  C    0.005399
     6  C    0.009755
     7  O   -0.381483
     8  C    0.002237
 Sum of Mulliken charges with hydrogens summed into heavy atoms =   0.00000
 Electronic spatial extent (au):  <R**2>=            959.7270
 Charge=              0.0000 electrons
 Dipole moment (field-independent basis, Debye):
    X=             -2.7959    Y=              1.9276    Z=              1.0929  Tot=              3.5676
 Quadrupole moment (field-independent basis, Debye-Ang):
   XX=            -55.7343   YY=            -52.1054   ZZ=            -49.8274
   XY=              5.6170   XZ=              2.2854   YZ=             -2.0494
 Traceless Quadrupole moment (field-independent basis, Debye-Ang):
   XX=             -3.1786   YY=              0.4503   ZZ=              2.7283
   XY=              5.6170   XZ=              2.2854   YZ=             -2.0494
 Octapole moment (field-independent basis, Debye-Ang**2):
  XXX=             -7.0113  YYY=              0.3879  ZZZ=             -1.4246  XYY=             -5.2454
  XXY=              8.9574  XXZ=              3.8700  XZZ=              0.1477  YZZ=             -1.4808
  YYZ=              1.4241  XYZ=             -3.2586
 Hexadecapole moment (field-independent basis, Debye-Ang**3):
 XXXX=           -600.0307 YYYY=           -491.9974 ZZZZ=           -198.1898 XXXY=             13.4539
 XXXZ=              7.6249 YYYX=              5.1723 YYYZ=             -4.3667 ZZZX=             -4.4734
 ZZZY=              1.3397 XXYY=           -195.6517 XXZZ=           -131.4954 YYZZ=           -120.0640
 XXYZ=             -7.6073 YYXZ=              2.0299 ZZXY=              0.1100
 N-N= 3.914692900526D+02 E-N=-1.593131043735D+03  KE= 3.464326124862D+02
 1\1\GINC-ROCK\SP\RMP2-FC\CC-pVTZ\C7H12O1\STYLIANAKIS\13-Mar-2016\0\\# 
 mp2/cc-pVTZ\\2_methylcyclohexanone_ax_single_point\\0,1\C\C,1,1.53012\
 C,2,1.522661,1,116.736\C,3,1.542966,2,112.167,1,47.567,0\C,4,1.535005,
 3,111.454,2,-51.776,0\C,5,1.536577,4,110.991,3,56.38,0\O,2,1.220702,3,
 121.784,4,-133.248,0\C,1,1.545156,2,109.92,3,79.815,0\H,3,1.093411,4,1
 12.27,5,-173.939,0\H,3,1.10023,4,108.982,5,67.17,0\H,4,1.096133,3,109.
 563,2,-174.743,0\H,4,1.098715,3,109.074,2,69.016,0\H,5,1.098387,4,109.
 596,3,-65.655,0\H,5,1.09653,4,110.018,3,177.839,0\H,6,1.097362,5,110.5
 96,4,-178.687,0\H,6,1.098658,5,108.594,4,64.921,0\H,1,1.09548,2,105.90
 1,3,-164.097,0\H,8,1.094577,1,110.82,2,56.652,0\H,8,1.095528,1,109.791
 ,2,175.834,0\H,8,1.094721,1,112.46,2,-64.337,0\\Version=EM64L-G09RevA.
 01\State=1-A\HF=-347.054791\MP2=-348.4732307\RMSD=9.566e-09\PG=C01 [X(
 C7H12O1)]\\@


 ON A TOMBSTONE, "HERE LIES LESTER MOORE,
 FOUR SLUGS FROM A 44, NO LES, NO MORE".
 Job cpu time:  0 days  2 hours 38 minutes 31.9 seconds.
 File lengths (MBytes):  RWF=     93 Int=      0 D2E=      0 Chk=      8 Scr=      1
 Normal termination of Gaussian 09 at Sun Mar 13 01:37:39 2016.
