 Entering Gaussian System, Link 0=g09
 Input=2_propanol_g.gjf
 Output=2_propanol_g.out
 Initial command:
 /usr/local/g09/l1.exe /home/scratch/stylianakis/Gau-1939.inp -scrdir=/home/scratch/stylianakis/
 Entering Link 1 = /usr/local/g09/l1.exe PID=      1940.
  
 Copyright (c) 1988,1990,1992,1993,1995,1998,2003,2009, Gaussian, Inc.
                  All Rights Reserved.
  
 This is part of the Gaussian(R) 09 program.  It is based on
 the Gaussian(R) 03 system (copyright 2003, Gaussian, Inc.),
 the Gaussian(R) 98 system (copyright 1998, Gaussian, Inc.),
 the Gaussian(R) 94 system (copyright 1995, Gaussian, Inc.),
 the Gaussian 92(TM) system (copyright 1992, Gaussian, Inc.),
 the Gaussian 90(TM) system (copyright 1990, Gaussian, Inc.),
 the Gaussian 88(TM) system (copyright 1988, Gaussian, Inc.),
 the Gaussian 86(TM) system (copyright 1986, Carnegie Mellon
 University), and the Gaussian 82(TM) system (copyright 1983,
 Carnegie Mellon University). Gaussian is a federally registered
 trademark of Gaussian, Inc.
  
 This software contains proprietary and confidential information,
 including trade secrets, belonging to Gaussian, Inc.
  
 This software is provided under written license and may be
 used, copied, transmitted, or stored only in accord with that
 written license.
  
 The following legend is applicable only to US Government
 contracts under FAR:
  
                    RESTRICTED RIGHTS LEGEND
  
 Use, reproduction and disclosure by the US Government is
 subject to restrictions as set forth in subparagraphs (a)
 and (c) of the Commercial Computer Software - Restricted
 Rights clause in FAR 52.227-19.
  
 Gaussian, Inc.
 340 Quinnipiac St., Bldg. 40, Wallingford CT 06492
  
  
 ---------------------------------------------------------------
 Warning -- This program may not be used in any manner that
 competes with the business of Gaussian, Inc. or will provide
 assistance to any competitor of Gaussian, Inc.  The licensee
 of this program is prohibited from giving any competitor of
 Gaussian, Inc. access to this program.  By using this program,
 the user acknowledges that Gaussian, Inc. is engaged in the
 business of creating and licensing software in the field of
 computational chemistry and represents and warrants to the
 licensee that it is not a competitor of Gaussian, Inc. and that
 it will not use this program in any manner prohibited above.
 ---------------------------------------------------------------
  

 Cite this work as:
 Gaussian 09, Revision A.01,
 M. J. Frisch, G. W. Trucks, H. B. Schlegel, G. E. Scuseria, 
 M. A. Robb, J. R. Cheeseman, G. Scalmani, V. Barone, B. Mennucci, 
 G. A. Petersson, H. Nakatsuji, M. Caricato, X. Li, H. P. Hratchian, 
 A. F. Izmaylov, J. Bloino, G. Zheng, J. L. Sonnenberg, M. Hada, 
 M. Ehara, K. Toyota, R. Fukuda, J. Hasegawa, M. Ishida, T. Nakajima, 
 Y. Honda, O. Kitao, H. Nakai, T. Vreven, J. A. Montgomery, Jr., 
 J. E. Peralta, F. Ogliaro, M. Bearpark, J. J. Heyd, E. Brothers, 
 K. N. Kudin, V. N. Staroverov, R. Kobayashi, J. Normand, 
 K. Raghavachari, A. Rendell, J. C. Burant, S. S. Iyengar, J. Tomasi, 
 M. Cossi, N. Rega, J. M. Millam, M. Klene, J. E. Knox, J. B. Cross, 
 V. Bakken, C. Adamo, J. Jaramillo, R. Gomperts, R. E. Stratmann, 
 O. Yazyev, A. J. Austin, R. Cammi, C. Pomelli, J. W. Ochterski, 
 R. L. Martin, K. Morokuma, V. G. Zakrzewski, G. A. Voth, 
 P. Salvador, J. J. Dannenberg, S. Dapprich, A. D. Daniels, 
 O. Farkas, J. B. Foresman, J. V. Ortiz, J. Cioslowski, 
 and D. J. Fox, Gaussian, Inc., Wallingford CT, 2009.
 
 ******************************************
 Gaussian 09:  EM64L-G09RevA.01  8-May-2009
                13-Mar-2016 
 ******************************************
 %mem=16000Mb
 %nproc=8
 Will use up to    8 processors via shared memory.
 -------------
 # mp2/cc-pVTZ
 -------------
 1/38=1/1;
 2/12=2,17=6,18=5,40=1/2;
 3/5=16,6=1,11=9,16=1,25=1,30=1/1,2,3;
 4//1;
 5/5=2,38=5/2;
 8/10=1/1;
 9/16=-3/6;
 6/7=2,8=2,9=2,10=2/1;
 99/5=1,9=1/99;
 -------------------------
 2_propanol_g_single_point
 -------------------------
 Symbolic Z-matrix:
 Charge =  0 Multiplicity = 1
 c
 c                    1    cc2
 o                    2    oc3      1    occ3
 c                    2    cc4      3    cco4     1    dih4     0
 h                    1    hc5      2    hcc5     4    dih5     0
 h                    1    hc6      2    hcc6     4    dih6     0
 h                    1    hc7      2    hcc7     4    dih7     0
 h                    2    hc8      1    hcc8     5    dih8     0
 h                    4    hc9      2    hcc9     1    dih9     0
 h                    4    hc10     2    hcc10    1    dih10    0
 h                    4    hc11     2    hcc11    1    dih11    0
 h                    3    ho12     2    hoc12    1    dih12    0
       Variables:
  cc2                   1.52351                  
  oc3                   1.43742                  
  occ3                106.274                    
  cc4                   1.52962                  
  cco4                111.153                    
  dih4                122.999                    
  hc5                   1.09388                  
  hcc5                110.387                    
  dih5               -178.927                    
  hc6                   1.0954                   
  hcc6                110.283                    
  dih6                -59.34                     
  hc7                   1.09499                  
  hcc7                110.64                     
  dih7                 60.861                    
  hc8                   1.10216                  
  hcc8                108.768                    
  dih8                 60.17                     
  hc9                   1.09702                  
  hcc9                111.191                    
  dih9                179.306                    
  hc10                  1.09593                  
  hcc10               110.859                    
  dih10               -61.13                     
  hc11                  1.09543                  
  hcc11               110.375                    
  dih11                59.204                    
  ho12                  0.96615                  
  hoc12               108.903                    
  dih12              -179.154                    
 
                          Input orientation:                          
 ---------------------------------------------------------------------
 Center     Atomic      Atomic             Coordinates (Angstroms)
 Number     Number       Type             X           Y           Z
 ---------------------------------------------------------------------
      1          6           0        0.000000    0.000000    0.000000
      2          6           0        0.000000    0.000000    1.523512
      3          8           0        1.379829    0.000000    1.926323
      4          6           0       -0.747584   -1.196423    2.114637
      5          1           0        0.559532    0.859233   -0.381062
      6          1           0        0.471900   -0.912694   -0.379727
      7          1           0       -1.023434    0.051132   -0.385980
      8          1           0       -0.475351    0.929004    1.878117
      9          1           0       -0.721440   -1.177962    3.211191
     10          1           0       -1.800114   -1.188465    1.809396
     11          1           0       -0.293582   -2.134466    1.777120
     12          1           0        1.424173   -0.013496    2.891358
 ---------------------------------------------------------------------
                    Distance matrix (angstroms):
                    1          2          3          4          5
     1  C    0.000000
     2  C    1.523512   0.000000
     3  O    2.369525   1.437423   0.000000
     4  C    2.542046   1.529620   2.448014   0.000000
     5  H    1.093876   2.163044   2.595225   3.487518   0.000000
     6  H    1.095396   2.162873   2.641062   2.790967   1.774092
     7  H    1.094994   2.167070   3.335421   2.808126   1.777310
     8  H    2.148565   1.102158   2.075347   2.155804   2.485908
     9  H    3.495686   2.180901   2.730167   1.097021   4.323810
    10  H    2.815452   2.175911   3.396787   1.095927   3.815639
    11  H    2.792900   2.169436   2.716341   1.095427   3.787847
    12  H    3.223104   1.974703   0.966148   2.592130   3.495424
                    6          7          8          9         10
     6  H    0.000000
     7  H    1.779051   0.000000
     8  H    3.063821   2.489416   0.000000
     9  H    3.793300   3.813333   2.505385   0.000000
    10  H    3.167074   2.638088   2.498678   1.768807   0.000000
    11  H    2.594356   3.160463   3.070520   1.776097   1.779213
    12  H    3.523546   4.090954   2.350140   2.462099   3.598225
                   11         12
    11  H    0.000000
    12  H    2.948003   0.000000
 Stoichiometry    C3H8O
 Framework group  C1[X(C3H8O)]
 Deg. of freedom    30
 Full point group                 C1      NOp   1
 Largest Abelian subgroup         C1      NOp   1
 Largest concise Abelian subgroup C1      NOp   1
                         Standard orientation:                         
 ---------------------------------------------------------------------
 Center     Atomic      Atomic             Coordinates (Angstroms)
 Number     Number       Type             X           Y           Z
 ---------------------------------------------------------------------
      1          6           0       -1.328796   -0.557244   -0.089738
      2          6           0       -0.001898    0.037970    0.364300
      3          8           0        0.041586    1.374417   -0.163150
      4          6           0        1.203483   -0.779459   -0.103251
      5          1           0       -2.161649    0.066136    0.248371
      6          1           0       -1.364875   -0.614787   -1.183027
      7          1           0       -1.459399   -1.565070    0.317990
      8          1           0        0.005926    0.088332    1.465279
      9          1           0        2.144615   -0.322392    0.226623
     10          1           0        1.168589   -1.795383    0.306305
     11          1           0        1.219257   -0.844483   -1.196632
     12          1           0        0.878114    1.784714    0.092424
 ---------------------------------------------------------------------
 Rotational constants (GHZ):      8.6103369      7.9861179      4.7294289
 Standard basis: CC-pVTZ (5D, 7F)
 There are   232 symmetry adapted basis functions of A   symmetry.
 Integral buffers will be    131072 words long.
 Raffenetti 1 integral format.
 Two-electron integral symmetry is turned on.
   232 basis functions,   344 primitive gaussians,   260 cartesian basis functions
    17 alpha electrons       17 beta electrons
       nuclear repulsion energy       134.2677399011 Hartrees.
 NAtoms=   12 NActive=   12 NUniq=   12 SFac= 7.50D-01 NAtFMM=   80 NAOKFM=F Big=F
 One-electron integrals computed using PRISM.
 NBasis=   232 RedAO= T  NBF=   232
 NBsUse=   232 1.00D-06 NBFU=   232
 Harris functional with IExCor=  205 diagonalized for initial guess.
 ExpMin= 1.03D-01 ExpMax= 1.53D+04 ExpMxC= 5.22D+02 IAcc=1 IRadAn=         1 AccDes= 0.00D+00
 HarFok:  IExCor=  205 AccDes= 0.00D+00 IRadAn=         1 IDoV= 1
 ScaDFX=  1.000000  1.000000  1.000000  1.000000
 FoFCou: FMM=F IPFlag=           0 FMFlag=      100000 FMFlg1=           0
         NFxFlg=           0 DoJE=T BraDBF=F KetDBF=T FulRan=T
         Omega=  0.000000  0.000000  1.000000  0.000000  0.000000 ICntrl=     500 IOpCl=  0
         NMat0=    1 NMatS0=    1 NMatT0=    0 NMatD0=    1 NMtDS0=    0 NMtDT0=    0
         I1Cent=           4 NGrid=           0.
 Petite list used in FoFCou.
 Initial guess orbital symmetries:
       Occupied  (A) (A) (A) (A) (A) (A) (A) (A) (A) (A) (A) (A)
                 (A) (A) (A) (A) (A)
       Virtual   (A) (A) (A) (A) (A) (A) (A) (A) (A) (A) (A) (A)
                 (A) (A) (A) (A) (A) (A) (A) (A) (A) (A) (A) (A)
                 (A) (A) (A) (A) (A) (A) (A) (A) (A) (A) (A) (A)
                 (A) (A) (A) (A) (A) (A) (A) (A) (A) (A) (A) (A)
                 (A) (A) (A) (A) (A) (A) (A) (A) (A) (A) (A) (A)
                 (A) (A) (A) (A) (A) (A) (A) (A) (A) (A) (A) (A)
                 (A) (A) (A) (A) (A) (A) (A) (A) (A) (A) (A) (A)
                 (A) (A) (A) (A) (A) (A) (A) (A) (A) (A) (A) (A)
                 (A) (A) (A) (A) (A) (A) (A) (A) (A) (A) (A) (A)
                 (A) (A) (A) (A) (A) (A) (A) (A) (A) (A) (A) (A)
                 (A) (A) (A) (A) (A) (A) (A) (A) (A) (A) (A) (A)
                 (A) (A) (A) (A) (A) (A) (A) (A) (A) (A) (A) (A)
                 (A) (A) (A) (A) (A) (A) (A) (A) (A) (A) (A) (A)
                 (A) (A) (A) (A) (A) (A) (A) (A) (A) (A) (A) (A)
                 (A) (A) (A) (A) (A) (A) (A) (A) (A) (A) (A) (A)
                 (A) (A) (A) (A) (A) (A) (A) (A) (A) (A) (A) (A)
                 (A) (A) (A) (A) (A) (A) (A) (A) (A) (A) (A) (A)
                 (A) (A) (A) (A) (A) (A) (A) (A) (A) (A) (A)
 The electronic state of the initial guess is 1-A.
 Requested convergence on RMS density matrix=1.00D-08 within 128 cycles.
 Requested convergence on MAX density matrix=1.00D-06.
 Requested convergence on             energy=1.00D-06.
 No special actions if energy rises.
 Keep R1 ints in memory in canonical form, NReq=584754019.
 SCF Done:  E(RHF) =  -193.194056068     A.U. after   11 cycles
             Convg  =    0.7755D-08             -V/T =  2.0017
 ExpMin= 1.03D-01 ExpMax= 1.53D+04 ExpMxC= 5.22D+02 IAcc=1 IRadAn=         1 AccDes= 0.00D+00
 HarFok:  IExCor=  205 AccDes= 0.00D+00 IRadAn=         1 IDoV=-2
 ScaDFX=  1.000000  1.000000  1.000000  1.000000
 Range of M.O.s used for correlation:     5   232
 NBasis=   232 NAE=    17 NBE=    17 NFC=     4 NFV=     0
 NROrb=    228 NOA=    13 NOB=    13 NVA=   215 NVB=   215

 **** Warning!!: The largest alpha MO coefficient is  0.11747478D+02

 Fully in-core method, ICMem=  1193467056.
 JobTyp=1 Pass  1 fully in-core, NPsUse=  8.
 Spin components of T(2) and E(2):
     alpha-alpha T2 =       0.2675177922D-01 E2=     -0.8878059988D-01
     alpha-beta  T2 =       0.1675788439D+00 E2=     -0.6003173414D+00
     beta-beta   T2 =       0.2675177922D-01 E2=     -0.8878059988D-01
 ANorm=    0.1105025974D+01
 E2 =    -0.7778785411D+00 EUMP2 =    -0.19397193460895D+03

 **********************************************************************

            Population analysis using the SCF density.

 **********************************************************************

 Orbital symmetries:
       Occupied  (A) (A) (A) (A) (A) (A) (A) (A) (A) (A) (A) (A)
                 (A) (A) (A) (A) (A)
       Virtual   (A) (A) (A) (A) (A) (A) (A) (A) (A) (A) (A) (A)
                 (A) (A) (A) (A) (A) (A) (A) (A) (A) (A) (A) (A)
                 (A) (A) (A) (A) (A) (A) (A) (A) (A) (A) (A) (A)
                 (A) (A) (A) (A) (A) (A) (A) (A) (A) (A) (A) (A)
                 (A) (A) (A) (A) (A) (A) (A) (A) (A) (A) (A) (A)
                 (A) (A) (A) (A) (A) (A) (A) (A) (A) (A) (A) (A)
                 (A) (A) (A) (A) (A) (A) (A) (A) (A) (A) (A) (A)
                 (A) (A) (A) (A) (A) (A) (A) (A) (A) (A) (A) (A)
                 (A) (A) (A) (A) (A) (A) (A) (A) (A) (A) (A) (A)
                 (A) (A) (A) (A) (A) (A) (A) (A) (A) (A) (A) (A)
                 (A) (A) (A) (A) (A) (A) (A) (A) (A) (A) (A) (A)
                 (A) (A) (A) (A) (A) (A) (A) (A) (A) (A) (A) (A)
                 (A) (A) (A) (A) (A) (A) (A) (A) (A) (A) (A) (A)
                 (A) (A) (A) (A) (A) (A) (A) (A) (A) (A) (A) (A)
                 (A) (A) (A) (A) (A) (A) (A) (A) (A) (A) (A) (A)
                 (A) (A) (A) (A) (A) (A) (A) (A) (A) (A) (A) (A)
                 (A) (A) (A) (A) (A) (A) (A) (A) (A) (A) (A) (A)
                 (A) (A) (A) (A) (A) (A) (A) (A) (A) (A) (A)
 The electronic state is 1-A.
 Alpha  occ. eigenvalues --  -20.54705 -11.28057 -11.21852 -11.21146  -1.34858
 Alpha  occ. eigenvalues --   -1.03921  -0.93698  -0.79668  -0.68933  -0.62391
 Alpha  occ. eigenvalues --   -0.60110  -0.54458  -0.53218  -0.52487  -0.50864
 Alpha  occ. eigenvalues --   -0.47071  -0.43470
 Alpha virt. eigenvalues --    0.13368   0.17252   0.18195   0.19242   0.20831
 Alpha virt. eigenvalues --    0.22207   0.24273   0.26185   0.29607   0.33437
 Alpha virt. eigenvalues --    0.36068   0.37587   0.39322   0.44718   0.46094
 Alpha virt. eigenvalues --    0.49760   0.52214   0.54824   0.56074   0.59619
 Alpha virt. eigenvalues --    0.62099   0.63043   0.64023   0.65036   0.65493
 Alpha virt. eigenvalues --    0.66583   0.66950   0.69067   0.74387   0.75086
 Alpha virt. eigenvalues --    0.79211   0.82722   0.83391   0.89051   0.92282
 Alpha virt. eigenvalues --    0.92706   0.97135   0.99913   1.02717   1.05826
 Alpha virt. eigenvalues --    1.08022   1.12197   1.13304   1.16765   1.20104
 Alpha virt. eigenvalues --    1.21024   1.22110   1.25736   1.27986   1.29439
 Alpha virt. eigenvalues --    1.33826   1.34454   1.35341   1.36860   1.40499
 Alpha virt. eigenvalues --    1.42926   1.44849   1.46611   1.49490   1.50981
 Alpha virt. eigenvalues --    1.53820   1.55417   1.57320   1.58513   1.60979
 Alpha virt. eigenvalues --    1.63537   1.64901   1.69959   1.72091   1.77581
 Alpha virt. eigenvalues --    1.80731   1.82594   1.85397   1.91759   2.12696
 Alpha virt. eigenvalues --    2.24758   2.25220   2.38715   2.41531   2.51145
 Alpha virt. eigenvalues --    2.58180   2.63643   2.65056   2.66887   2.74571
 Alpha virt. eigenvalues --    2.75263   2.79119   2.81754   2.85087   2.87609
 Alpha virt. eigenvalues --    2.93174   2.97150   2.98106   3.01746   3.04568
 Alpha virt. eigenvalues --    3.10339   3.12528   3.13811   3.15119   3.17667
 Alpha virt. eigenvalues --    3.22229   3.23975   3.25095   3.27343   3.31661
 Alpha virt. eigenvalues --    3.35260   3.36562   3.37109   3.38286   3.39562
 Alpha virt. eigenvalues --    3.43226   3.43926   3.45604   3.47102   3.49700
 Alpha virt. eigenvalues --    3.55344   3.57330   3.62221   3.63453   3.66383
 Alpha virt. eigenvalues --    3.66879   3.70067   3.73399   3.74090   3.78117
 Alpha virt. eigenvalues --    3.79544   3.80688   3.81329   3.84359   3.90210
 Alpha virt. eigenvalues --    3.90982   3.92951   3.98661   4.01949   4.05758
 Alpha virt. eigenvalues --    4.07579   4.10296   4.12193   4.13436   4.14060
 Alpha virt. eigenvalues --    4.16400   4.20246   4.21055   4.23619   4.26614
 Alpha virt. eigenvalues --    4.26885   4.29259   4.31365   4.32678   4.34781
 Alpha virt. eigenvalues --    4.38438   4.40204   4.41457   4.46070   4.46744
 Alpha virt. eigenvalues --    4.48137   4.49652   4.52200   4.60119   4.62146
 Alpha virt. eigenvalues --    4.63568   4.64986   4.70152   4.73237   4.75258
 Alpha virt. eigenvalues --    4.78235   4.86433   4.89535   4.91570   5.05363
 Alpha virt. eigenvalues --    5.09452   5.11119   5.14782   5.16307   5.18646
 Alpha virt. eigenvalues --    5.20106   5.27430   5.28716   5.35476   5.42732
 Alpha virt. eigenvalues --    5.47071   5.49296   5.50993   5.53539   5.58506
 Alpha virt. eigenvalues --    5.64048   5.66949   5.69306   5.69761   5.70295
 Alpha virt. eigenvalues --    5.75569   5.77638   5.82572   5.87914   5.98299
 Alpha virt. eigenvalues --    6.08548   6.14539   6.22724   6.26104   6.29565
 Alpha virt. eigenvalues --    6.31294   6.41403   6.64297   6.99016   7.14496
 Alpha virt. eigenvalues --    7.16508   7.26822   7.41705   7.49047   7.73833
 Alpha virt. eigenvalues --    7.95714  11.90237  12.74906  14.07614  14.18978
          Condensed to atoms (all electrons):
              1          2          3          4          5          6
     1  C    4.818871   0.353332  -0.041910  -0.050841   0.418214   0.411245
     2  C    0.353332   4.595922   0.311100   0.378745  -0.031635  -0.030926
     3  O   -0.041910   0.311100   7.898917  -0.045763   0.001197   0.001906
     4  C   -0.050841   0.378745  -0.045763   4.834800   0.007532  -0.007568
     5  H    0.418214  -0.031635   0.001197   0.007532   0.564791  -0.028063
     6  H    0.411245  -0.030926   0.001906  -0.007568  -0.028063   0.581243
     7  H    0.407796  -0.034977   0.003221  -0.001239  -0.029388  -0.031200
     8  H   -0.046266   0.431641  -0.040768  -0.052616  -0.007588   0.007640
     9  H    0.007801  -0.033246  -0.001148   0.414474  -0.000304  -0.000127
    10  H   -0.004055  -0.032349   0.004951   0.400816  -0.000415   0.000856
    11  H   -0.006056  -0.030998   0.002746   0.409409  -0.000220   0.002939
    12  H    0.007166  -0.033460   0.334169  -0.004878  -0.000157  -0.000179
              7          8          9         10         11         12
     1  C    0.407796  -0.046266   0.007801  -0.004055  -0.006056   0.007166
     2  C   -0.034977   0.431641  -0.033246  -0.032349  -0.030998  -0.033460
     3  O    0.003221  -0.040768  -0.001148   0.004951   0.002746   0.334169
     4  C   -0.001239  -0.052616   0.414474   0.400816   0.409409  -0.004878
     5  H   -0.029388  -0.007588  -0.000304  -0.000415  -0.000220  -0.000157
     6  H   -0.031200   0.007640  -0.000127   0.000856   0.002939  -0.000179
     7  H    0.606681  -0.000638  -0.000220  -0.000281   0.000543  -0.000656
     8  H   -0.000638   0.645406  -0.007989   0.001283   0.007940  -0.006051
     9  H   -0.000220  -0.007989   0.597278  -0.030621  -0.032240   0.003771
    10  H   -0.000281   0.001283  -0.030621   0.600222  -0.027212  -0.000041
    11  H    0.000543   0.007940  -0.032240  -0.027212   0.577080  -0.000903
    12  H   -0.000656  -0.006051   0.003771  -0.000041  -0.000903   0.484310
 Mulliken atomic charges:
              1
     1  C   -0.275297
     2  C    0.156851
     3  O   -0.428616
     4  C   -0.282871
     5  H    0.106037
     6  H    0.092233
     7  H    0.080360
     8  H    0.068005
     9  H    0.082573
    10  H    0.086845
    11  H    0.096972
    12  H    0.216909
 Sum of Mulliken atomic charges =   0.00000
 Mulliken charges with hydrogens summed into heavy atoms:
              1
     1  C    0.003334
     2  C    0.224855
     3  O   -0.211708
     4  C   -0.016482
 Sum of Mulliken charges with hydrogens summed into heavy atoms =   0.00000
 Electronic spatial extent (au):  <R**2>=            320.8328
 Charge=              0.0000 electrons
 Dipole moment (field-independent basis, Debye):
    X=              1.1903    Y=             -0.8234    Z=              0.9008  Tot=              1.7047
 Quadrupole moment (field-independent basis, Debye-Ang):
   XX=            -25.4504   YY=            -27.2368   ZZ=            -26.7809
   XY=              2.7187   XZ=              0.2634   YZ=              1.1104
 Traceless Quadrupole moment (field-independent basis, Debye-Ang):
   XX=              1.0390   YY=             -0.7474   ZZ=             -0.2915
   XY=              2.7187   XZ=              0.2634   YZ=              1.1104
 Octapole moment (field-independent basis, Debye-Ang**2):
  XXX=              1.7511  YYY=              6.8778  ZZZ=             -0.7823  XYY=              5.6273
  XXY=              6.0575  XXZ=              0.6780  XZZ=              0.1353  YZZ=              1.4527
  YYZ=              2.3803  XYZ=              0.4420
 Hexadecapole moment (field-independent basis, Debye-Ang**3):
 XXXX=           -204.8879 YYYY=           -152.4915 ZZZZ=            -54.2396 XXXY=              3.8938
 XXXZ=              0.3920 YYYX=             12.8190 YYYZ=             -0.8567 ZZZX=              0.2075
 ZZZY=              1.0201 XXYY=            -57.3350 XXZZ=            -44.4128 YYZZ=            -37.4602
 XXYZ=              0.4988 YYXZ=              0.5281 ZZXY=              0.6071
 N-N= 1.342677399011D+02 E-N=-7.211726065339D+02  KE= 1.928671270281D+02
 1\1\GINC-ROCK\SP\RMP2-FC\CC-pVTZ\C3H8O1\STYLIANAKIS\13-Mar-2016\0\\# m
 p2/cc-pVTZ\\2_propanol_g_single_point\\0,1\C\C,1,1.523512\O,2,1.437423
 ,1,106.274\C,2,1.52962,3,111.153,1,122.999,0\H,1,1.093876,2,110.387,4,
 -178.927,0\H,1,1.095396,2,110.283,4,-59.34,0\H,1,1.094994,2,110.64,4,6
 0.861,0\H,2,1.102158,1,108.768,5,60.17,0\H,4,1.097021,2,111.191,1,179.
 306,0\H,4,1.095927,2,110.859,1,-61.13,0\H,4,1.095427,2,110.375,1,59.20
 4,0\H,3,0.966148,2,108.903,1,-179.154,0\\Version=EM64L-G09RevA.01\Stat
 e=1-A\HF=-193.1940561\MP2=-193.9719346\RMSD=7.755e-09\PG=C01 [X(C3H8O1
 )]\\@


 THE UNDERLYING PHYSICAL LAWS NECESSARY FOR THE 
 MATHEMATICAL THEORY OF A LARGE PART OF PHYSICS AND THE
 WHOLE OF CHEMISTRY ARE THUS COMPLETELY KNOWN, AND THE
 DIFFICULTY IS ONLY THAT THE EXACT APPLICATION OF THESE
 LAWS LEADS TO EQUATIONS MUCH TOO COMPLICATED 
 TO BE SOLUBLE.

                                        -- P. A. M. DIRAC, 1929
 Job cpu time:  0 days  0 hours 21 minutes 14.8 seconds.
 File lengths (MBytes):  RWF=     25 Int=      0 D2E=      0 Chk=      3 Scr=      1
 Normal termination of Gaussian 09 at Sun Mar 13 02:01:36 2016.
