 Entering Gaussian System, Link 0=g09
 Input=2_propanol_a.gjf
 Output=2_propanol_a.out
 Initial command:
 /usr/local/g09/l1.exe /home/scratch/stylianakis/Gau-1825.inp -scrdir=/home/scratch/stylianakis/
 Entering Link 1 = /usr/local/g09/l1.exe PID=      1826.
  
 Copyright (c) 1988,1990,1992,1993,1995,1998,2003,2009, Gaussian, Inc.
                  All Rights Reserved.
  
 This is part of the Gaussian(R) 09 program.  It is based on
 the Gaussian(R) 03 system (copyright 2003, Gaussian, Inc.),
 the Gaussian(R) 98 system (copyright 1998, Gaussian, Inc.),
 the Gaussian(R) 94 system (copyright 1995, Gaussian, Inc.),
 the Gaussian 92(TM) system (copyright 1992, Gaussian, Inc.),
 the Gaussian 90(TM) system (copyright 1990, Gaussian, Inc.),
 the Gaussian 88(TM) system (copyright 1988, Gaussian, Inc.),
 the Gaussian 86(TM) system (copyright 1986, Carnegie Mellon
 University), and the Gaussian 82(TM) system (copyright 1983,
 Carnegie Mellon University). Gaussian is a federally registered
 trademark of Gaussian, Inc.
  
 This software contains proprietary and confidential information,
 including trade secrets, belonging to Gaussian, Inc.
  
 This software is provided under written license and may be
 used, copied, transmitted, or stored only in accord with that
 written license.
  
 The following legend is applicable only to US Government
 contracts under FAR:
  
                    RESTRICTED RIGHTS LEGEND
  
 Use, reproduction and disclosure by the US Government is
 subject to restrictions as set forth in subparagraphs (a)
 and (c) of the Commercial Computer Software - Restricted
 Rights clause in FAR 52.227-19.
  
 Gaussian, Inc.
 340 Quinnipiac St., Bldg. 40, Wallingford CT 06492
  
  
 ---------------------------------------------------------------
 Warning -- This program may not be used in any manner that
 competes with the business of Gaussian, Inc. or will provide
 assistance to any competitor of Gaussian, Inc.  The licensee
 of this program is prohibited from giving any competitor of
 Gaussian, Inc. access to this program.  By using this program,
 the user acknowledges that Gaussian, Inc. is engaged in the
 business of creating and licensing software in the field of
 computational chemistry and represents and warrants to the
 licensee that it is not a competitor of Gaussian, Inc. and that
 it will not use this program in any manner prohibited above.
 ---------------------------------------------------------------
  

 Cite this work as:
 Gaussian 09, Revision A.01,
 M. J. Frisch, G. W. Trucks, H. B. Schlegel, G. E. Scuseria, 
 M. A. Robb, J. R. Cheeseman, G. Scalmani, V. Barone, B. Mennucci, 
 G. A. Petersson, H. Nakatsuji, M. Caricato, X. Li, H. P. Hratchian, 
 A. F. Izmaylov, J. Bloino, G. Zheng, J. L. Sonnenberg, M. Hada, 
 M. Ehara, K. Toyota, R. Fukuda, J. Hasegawa, M. Ishida, T. Nakajima, 
 Y. Honda, O. Kitao, H. Nakai, T. Vreven, J. A. Montgomery, Jr., 
 J. E. Peralta, F. Ogliaro, M. Bearpark, J. J. Heyd, E. Brothers, 
 K. N. Kudin, V. N. Staroverov, R. Kobayashi, J. Normand, 
 K. Raghavachari, A. Rendell, J. C. Burant, S. S. Iyengar, J. Tomasi, 
 M. Cossi, N. Rega, J. M. Millam, M. Klene, J. E. Knox, J. B. Cross, 
 V. Bakken, C. Adamo, J. Jaramillo, R. Gomperts, R. E. Stratmann, 
 O. Yazyev, A. J. Austin, R. Cammi, C. Pomelli, J. W. Ochterski, 
 R. L. Martin, K. Morokuma, V. G. Zakrzewski, G. A. Voth, 
 P. Salvador, J. J. Dannenberg, S. Dapprich, A. D. Daniels, 
 O. Farkas, J. B. Foresman, J. V. Ortiz, J. Cioslowski, 
 and D. J. Fox, Gaussian, Inc., Wallingford CT, 2009.
 
 ******************************************
 Gaussian 09:  EM64L-G09RevA.01  8-May-2009
                13-Mar-2016 
 ******************************************
 %mem=16000Mb
 %nproc=8
 Will use up to    8 processors via shared memory.
 -------------
 # mp2/cc-pVTZ
 -------------
 1/38=1/1;
 2/12=2,17=6,18=5,40=1/2;
 3/5=16,6=1,11=9,16=1,25=1,30=1/1,2,3;
 4//1;
 5/5=2,38=5/2;
 8/10=1/1;
 9/16=-3/6;
 6/7=2,8=2,9=2,10=2/1;
 99/5=1,9=1/99;
 -------------------------
 2_propanol_a_single_point
 -------------------------
 Symbolic Z-matrix:
 Charge =  0 Multiplicity = 1
 c
 c                    1    cc2
 o                    2    oc3      1    occ3
 c                    2    cc4      3    cco4     1    dih4     0
 h                    1    hc5      2    hcc5     4    dih5     0
 h                    1    hc6      2    hcc6     4    dih6     0
 h                    1    hc7      2    hcc7     4    dih7     0
 h                    2    hc8      1    hcc8     5    dih8     0
 h                    4    hc9      2    hcc9     1    dih9     0
 h                    4    hc10     2    hcc10    1    dih10    0
 h                    4    hc11     2    hcc11    1    dih11    0
 h                    3    ho12     2    hoc12    1    dih12    0
       Variables:
  cc2                   1.52978                  
  oc3                   1.43598                  
  occ3                111.084                    
  cc4                   1.5298                   
  cco4                111.078                    
  dih4                126.292                    
  hc5                   1.09397                  
  hcc5                110.457                    
  dih5               -179.349                    
  hc6                   1.09809                  
  hcc6                110.798                    
  dih6                -59.386                    
  hc7                   1.09588                  
  hcc7                111.065                    
  dih7                 60.198                    
  hc8                   1.09607                  
  hcc8                108.975                    
  dih8                 59.548                    
  hc9                   1.09397                  
  hcc9                110.448                    
  dih9                179.325                    
  hc10                  1.09589                  
  hcc10               111.067                    
  dih10               -60.224                    
  hc11                  1.09807                  
  hcc11               110.799                    
  dih11                59.371                    
  ho12                  0.96741                  
  hoc12               108.518                    
  dih12               -62.95                     
 
                          Input orientation:                          
 ---------------------------------------------------------------------
 Center     Atomic      Atomic             Coordinates (Angstroms)
 Number     Number       Type             X           Y           Z
 ---------------------------------------------------------------------
      1          6           0        0.000000    0.000000    0.000000
      2          6           0        0.000000    0.000000    1.529776
      3          8           0        1.339847    0.000000    2.046350
      4          6           0       -0.817288   -1.150537    2.120201
      5          1           0        0.603035    0.828814   -0.382348
      6          1           0        0.417493   -0.937802   -0.389903
      7          1           0       -1.017792    0.099548   -0.393890
      8          1           0       -0.413453    0.950478    1.886169
      9          1           0       -0.782535   -1.122467    3.213255
     10          1           0       -1.864888   -1.092561    1.803730
     11          1           0       -0.422382   -2.119869    1.788224
     12          1           0        1.776598   -0.816972    1.767640
 ---------------------------------------------------------------------
                    Distance matrix (angstroms):
                    1          2          3          4          5
     1  C    0.000000
     2  C    1.529776   0.000000
     3  O    2.445964   1.435980   0.000000
     4  C    2.546949   1.529803   2.445899   0.000000
     5  H    1.093972   2.169517   2.669906   3.492550   0.000000
     6  H    1.098088   2.176911   2.768671   2.805452   1.776349
     7  H    1.095883   2.178601   3.394575   2.814883   1.777370
     8  H    2.152205   1.096069   2.000782   2.152236   2.488819
     9  H    3.492463   2.169422   2.669477   1.093966   4.319220
    10  H    2.815127   2.178657   3.394537   1.095893   3.815922
    11  H    2.805351   2.176935   2.768741   1.098072   3.802315
    12  H    2.635962   1.969854   0.967406   2.638903   2.950985
                    6          7          8          9         10
     6  H    0.000000
     7  H    1.770919   0.000000
     8  H    3.071901   2.507583   0.000000
     9  H    3.802225   3.815777   2.488871   0.000000
    10  H    3.169423   2.639740   2.507482   1.777397   0.000000
    11  H    2.616660   3.168903   3.071921   1.776297   1.770995
    12  H    2.552794   3.649772   2.816781   2.955045   3.652078
                   11         12
    11  H    0.000000
    12  H    2.556067   0.000000
 Stoichiometry    C3H8O
 Framework group  C1[X(C3H8O)]
 Deg. of freedom    30
 Full point group                 C1      NOp   1
 Largest Abelian subgroup         C1      NOp   1
 Largest concise Abelian subgroup C1      NOp   1
                         Standard orientation:                         
 ---------------------------------------------------------------------
 Center     Atomic      Atomic             Coordinates (Angstroms)
 Number     Number       Type             X           Y           Z
 ---------------------------------------------------------------------
      1          6           0        1.272966   -0.669462    0.099245
      2          6           0       -0.000076    0.036913   -0.370449
      3          8           0        0.000798    1.418209    0.022058
      4          6           0       -1.273982   -0.667782    0.099514
      5          1           0        2.159480   -0.129791   -0.246622
      6          1           0        1.307955   -0.721850    1.195524
      7          1           0        1.318513   -1.695176   -0.283894
      8          1           0       -0.000153    0.080362   -1.465656
      9          1           0       -2.159739   -0.126586   -0.245888
     10          1           0       -1.321227   -1.693298   -0.283980
     11          1           0       -1.308704   -0.720369    1.195776
     12          1           0        0.004037    1.463021    0.988420
 ---------------------------------------------------------------------
 Rotational constants (GHZ):      8.4317280      7.9622291      4.7216675
 Standard basis: CC-pVTZ (5D, 7F)
 There are   232 symmetry adapted basis functions of A   symmetry.
 Integral buffers will be    131072 words long.
 Raffenetti 1 integral format.
 Two-electron integral symmetry is turned on.
   232 basis functions,   344 primitive gaussians,   260 cartesian basis functions
    17 alpha electrons       17 beta electrons
       nuclear repulsion energy       134.0508076660 Hartrees.
 NAtoms=   12 NActive=   12 NUniq=   12 SFac= 7.50D-01 NAtFMM=   80 NAOKFM=F Big=F
 One-electron integrals computed using PRISM.
 NBasis=   232 RedAO= T  NBF=   232
 NBsUse=   232 1.00D-06 NBFU=   232
 Harris functional with IExCor=  205 diagonalized for initial guess.
 ExpMin= 1.03D-01 ExpMax= 1.53D+04 ExpMxC= 5.22D+02 IAcc=1 IRadAn=         1 AccDes= 0.00D+00
 HarFok:  IExCor=  205 AccDes= 0.00D+00 IRadAn=         1 IDoV= 1
 ScaDFX=  1.000000  1.000000  1.000000  1.000000
 FoFCou: FMM=F IPFlag=           0 FMFlag=      100000 FMFlg1=           0
         NFxFlg=           0 DoJE=T BraDBF=F KetDBF=T FulRan=T
         Omega=  0.000000  0.000000  1.000000  0.000000  0.000000 ICntrl=     500 IOpCl=  0
         NMat0=    1 NMatS0=    1 NMatT0=    0 NMatD0=    1 NMtDS0=    0 NMtDT0=    0
         I1Cent=           4 NGrid=           0.
 Petite list used in FoFCou.
 Initial guess orbital symmetries:
       Occupied  (A) (A) (A) (A) (A) (A) (A) (A) (A) (A) (A) (A)
                 (A) (A) (A) (A) (A)
       Virtual   (A) (A) (A) (A) (A) (A) (A) (A) (A) (A) (A) (A)
                 (A) (A) (A) (A) (A) (A) (A) (A) (A) (A) (A) (A)
                 (A) (A) (A) (A) (A) (A) (A) (A) (A) (A) (A) (A)
                 (A) (A) (A) (A) (A) (A) (A) (A) (A) (A) (A) (A)
                 (A) (A) (A) (A) (A) (A) (A) (A) (A) (A) (A) (A)
                 (A) (A) (A) (A) (A) (A) (A) (A) (A) (A) (A) (A)
                 (A) (A) (A) (A) (A) (A) (A) (A) (A) (A) (A) (A)
                 (A) (A) (A) (A) (A) (A) (A) (A) (A) (A) (A) (A)
                 (A) (A) (A) (A) (A) (A) (A) (A) (A) (A) (A) (A)
                 (A) (A) (A) (A) (A) (A) (A) (A) (A) (A) (A) (A)
                 (A) (A) (A) (A) (A) (A) (A) (A) (A) (A) (A) (A)
                 (A) (A) (A) (A) (A) (A) (A) (A) (A) (A) (A) (A)
                 (A) (A) (A) (A) (A) (A) (A) (A) (A) (A) (A) (A)
                 (A) (A) (A) (A) (A) (A) (A) (A) (A) (A) (A) (A)
                 (A) (A) (A) (A) (A) (A) (A) (A) (A) (A) (A) (A)
                 (A) (A) (A) (A) (A) (A) (A) (A) (A) (A) (A) (A)
                 (A) (A) (A) (A) (A) (A) (A) (A) (A) (A) (A) (A)
                 (A) (A) (A) (A) (A) (A) (A) (A) (A) (A) (A)
 The electronic state of the initial guess is 1-A.
 Requested convergence on RMS density matrix=1.00D-08 within 128 cycles.
 Requested convergence on MAX density matrix=1.00D-06.
 Requested convergence on             energy=1.00D-06.
 No special actions if energy rises.
 Keep R1 ints in memory in canonical form, NReq=584754019.
 SCF Done:  E(RHF) =  -193.193589326     A.U. after   11 cycles
             Convg  =    0.6223D-08             -V/T =  2.0017
 ExpMin= 1.03D-01 ExpMax= 1.53D+04 ExpMxC= 5.22D+02 IAcc=1 IRadAn=         1 AccDes= 0.00D+00
 HarFok:  IExCor=  205 AccDes= 0.00D+00 IRadAn=         1 IDoV=-2
 ScaDFX=  1.000000  1.000000  1.000000  1.000000
 Range of M.O.s used for correlation:     5   232
 NBasis=   232 NAE=    17 NBE=    17 NFC=     4 NFV=     0
 NROrb=    228 NOA=    13 NOB=    13 NVA=   215 NVB=   215

 **** Warning!!: The largest alpha MO coefficient is  0.11040658D+02

 Fully in-core method, ICMem=  1193467056.
 JobTyp=1 Pass  1 fully in-core, NPsUse=  8.
 Spin components of T(2) and E(2):
     alpha-alpha T2 =       0.2677614864D-01 E2=     -0.8879973225D-01
     alpha-beta  T2 =       0.1676723719D+00 E2=     -0.6003768521D+00
     beta-beta   T2 =       0.2677614864D-01 E2=     -0.8879973225D-01
 ANorm=    0.1105090344D+01
 E2 =    -0.7779763166D+00 EUMP2 =    -0.19397156564228D+03

 **********************************************************************

            Population analysis using the SCF density.

 **********************************************************************

 Orbital symmetries:
       Occupied  (A) (A) (A) (A) (A) (A) (A) (A) (A) (A) (A) (A)
                 (A) (A) (A) (A) (A)
       Virtual   (A) (A) (A) (A) (A) (A) (A) (A) (A) (A) (A) (A)
                 (A) (A) (A) (A) (A) (A) (A) (A) (A) (A) (A) (A)
                 (A) (A) (A) (A) (A) (A) (A) (A) (A) (A) (A) (A)
                 (A) (A) (A) (A) (A) (A) (A) (A) (A) (A) (A) (A)
                 (A) (A) (A) (A) (A) (A) (A) (A) (A) (A) (A) (A)
                 (A) (A) (A) (A) (A) (A) (A) (A) (A) (A) (A) (A)
                 (A) (A) (A) (A) (A) (A) (A) (A) (A) (A) (A) (A)
                 (A) (A) (A) (A) (A) (A) (A) (A) (A) (A) (A) (A)
                 (A) (A) (A) (A) (A) (A) (A) (A) (A) (A) (A) (A)
                 (A) (A) (A) (A) (A) (A) (A) (A) (A) (A) (A) (A)
                 (A) (A) (A) (A) (A) (A) (A) (A) (A) (A) (A) (A)
                 (A) (A) (A) (A) (A) (A) (A) (A) (A) (A) (A) (A)
                 (A) (A) (A) (A) (A) (A) (A) (A) (A) (A) (A) (A)
                 (A) (A) (A) (A) (A) (A) (A) (A) (A) (A) (A) (A)
                 (A) (A) (A) (A) (A) (A) (A) (A) (A) (A) (A) (A)
                 (A) (A) (A) (A) (A) (A) (A) (A) (A) (A) (A) (A)
                 (A) (A) (A) (A) (A) (A) (A) (A) (A) (A) (A) (A)
                 (A) (A) (A) (A) (A) (A) (A) (A) (A) (A) (A)
 The electronic state is 1-A.
 Alpha  occ. eigenvalues --  -20.54711 -11.28045 -11.21764 -11.21758  -1.34889
 Alpha  occ. eigenvalues --   -1.03888  -0.93797  -0.81162  -0.65743  -0.63527
 Alpha  occ. eigenvalues --   -0.59723  -0.57452  -0.54238  -0.51265  -0.50878
 Alpha  occ. eigenvalues --   -0.46781  -0.43619
 Alpha virt. eigenvalues --    0.13458   0.16724   0.18159   0.19588   0.20596
 Alpha virt. eigenvalues --    0.22119   0.23804   0.25633   0.29355   0.32802
 Alpha virt. eigenvalues --    0.34951   0.37777   0.40948   0.44644   0.47046
 Alpha virt. eigenvalues --    0.48651   0.51896   0.52796   0.57697   0.60893
 Alpha virt. eigenvalues --    0.60899   0.61918   0.63369   0.64924   0.65289
 Alpha virt. eigenvalues --    0.66049   0.67227   0.67926   0.72344   0.76924
 Alpha virt. eigenvalues --    0.78436   0.82464   0.83166   0.87724   0.91496
 Alpha virt. eigenvalues --    0.94949   0.94980   0.98958   1.05600   1.07026
 Alpha virt. eigenvalues --    1.07646   1.08910   1.14403   1.16752   1.18213
 Alpha virt. eigenvalues --    1.20445   1.21029   1.27744   1.28848   1.30752
 Alpha virt. eigenvalues --    1.32483   1.34657   1.34846   1.35784   1.42125
 Alpha virt. eigenvalues --    1.42179   1.46297   1.49354   1.49754   1.50513
 Alpha virt. eigenvalues --    1.54739   1.55998   1.56456   1.58077   1.61920
 Alpha virt. eigenvalues --    1.62161   1.66217   1.69040   1.74924   1.77421
 Alpha virt. eigenvalues --    1.80227   1.81553   1.82862   1.88752   2.12856
 Alpha virt. eigenvalues --    2.21403   2.23922   2.34686   2.42060   2.50905
 Alpha virt. eigenvalues --    2.60211   2.63614   2.65668   2.67120   2.70145
 Alpha virt. eigenvalues --    2.77750   2.78655   2.83820   2.84493   2.87297
 Alpha virt. eigenvalues --    2.93368   2.97093   2.98882   3.01094   3.06149
 Alpha virt. eigenvalues --    3.11304   3.12126   3.14774   3.15784   3.21183
 Alpha virt. eigenvalues --    3.22328   3.23779   3.24389   3.25207   3.28308
 Alpha virt. eigenvalues --    3.34028   3.35741   3.36931   3.38510   3.40198
 Alpha virt. eigenvalues --    3.43932   3.44312   3.45703   3.49337   3.52338
 Alpha virt. eigenvalues --    3.54797   3.59360   3.59816   3.61196   3.64128
 Alpha virt. eigenvalues --    3.66166   3.69237   3.71913   3.73543   3.73829
 Alpha virt. eigenvalues --    3.79937   3.81407   3.82018   3.82750   3.90610
 Alpha virt. eigenvalues --    3.90911   3.95228   3.98985   4.01444   4.07065
 Alpha virt. eigenvalues --    4.08071   4.08840   4.12355   4.14303   4.14838
 Alpha virt. eigenvalues --    4.16467   4.16473   4.21740   4.22571   4.27177
 Alpha virt. eigenvalues --    4.28557   4.31489   4.32464   4.34387   4.36471
 Alpha virt. eigenvalues --    4.39038   4.39887   4.45017   4.45027   4.47192
 Alpha virt. eigenvalues --    4.47907   4.48375   4.51139   4.56179   4.60366
 Alpha virt. eigenvalues --    4.64846   4.65918   4.68487   4.69670   4.75569
 Alpha virt. eigenvalues --    4.76001   4.85041   4.90800   4.91026   5.05435
 Alpha virt. eigenvalues --    5.09704   5.13265   5.15172   5.15579   5.18932
 Alpha virt. eigenvalues --    5.21853   5.25551   5.28786   5.36023   5.42517
 Alpha virt. eigenvalues --    5.45033   5.48645   5.50353   5.51905   5.57566
 Alpha virt. eigenvalues --    5.63404   5.66366   5.67749   5.70433   5.71675
 Alpha virt. eigenvalues --    5.76232   5.76642   5.85336   5.85900   5.98273
 Alpha virt. eigenvalues --    6.03245   6.12254   6.20085   6.26934   6.29131
 Alpha virt. eigenvalues --    6.30082   6.41746   6.69735   6.98848   7.14871
 Alpha virt. eigenvalues --    7.17881   7.26846   7.41551   7.47292   7.71244
 Alpha virt. eigenvalues --    7.93589  11.89511  12.64733  14.04990  14.17127
          Condensed to atoms (all electrons):
              1          2          3          4          5          6
     1  C    4.836527   0.377717  -0.046196  -0.059635   0.419660   0.402562
     2  C    0.377717   4.609615   0.304362   0.377643  -0.034410  -0.028847
     3  O   -0.046196   0.304362   7.904373  -0.046166   0.002461  -0.000360
     4  C   -0.059635   0.377643  -0.046166   4.836602   0.007819  -0.007641
     5  H    0.419660  -0.034410   0.002461   0.007819   0.559881  -0.030857
     6  H    0.402562  -0.028847  -0.000360  -0.007641  -0.030857   0.608078
     7  H    0.401188  -0.034187   0.004815   0.001770  -0.025915  -0.032413
     8  H   -0.045433   0.423916  -0.028623  -0.045579  -0.006075   0.007299
     9  H    0.007811  -0.034385   0.002443   0.419647  -0.000297  -0.000246
    10  H    0.001755  -0.034195   0.004814   0.401175  -0.000392   0.000399
    11  H   -0.007624  -0.028809  -0.000337   0.402492  -0.000246   0.003280
    12  H   -0.005344  -0.043929   0.333657  -0.005307  -0.000919   0.003779
              7          8          9         10         11         12
     1  C    0.401188  -0.045433   0.007811   0.001755  -0.007624  -0.005344
     2  C   -0.034187   0.423916  -0.034385  -0.034195  -0.028809  -0.043929
     3  O    0.004815  -0.028623   0.002443   0.004814  -0.000337   0.333657
     4  C    0.001770  -0.045579   0.419647   0.401175   0.402492  -0.005307
     5  H   -0.025915  -0.006075  -0.000297  -0.000392  -0.000246  -0.000919
     6  H   -0.032413   0.007299  -0.000246   0.000399   0.003280   0.003779
     7  H    0.604051  -0.003499  -0.000390  -0.002189   0.000394  -0.000123
     8  H   -0.003499   0.596052  -0.006058  -0.003472   0.007299   0.008454
     9  H   -0.000390  -0.006058   0.559895  -0.025944  -0.030814  -0.000919
    10  H   -0.002189  -0.003472  -0.025944   0.604148  -0.032404  -0.000125
    11  H    0.000394   0.007299  -0.030814  -0.032404   0.608028   0.003758
    12  H   -0.000123   0.008454  -0.000919  -0.000125   0.003758   0.488616
 Mulliken atomic charges:
              1
     1  C   -0.282989
     2  C    0.145508
     3  O   -0.435242
     4  C   -0.282820
     5  H    0.109290
     6  H    0.074967
     7  H    0.086499
     8  H    0.095718
     9  H    0.109257
    10  H    0.086429
    11  H    0.074982
    12  H    0.218401
 Sum of Mulliken atomic charges =   0.00000
 Mulliken charges with hydrogens summed into heavy atoms:
              1
     1  C   -0.012233
     2  C    0.241226
     3  O   -0.216841
     4  C   -0.012152
 Sum of Mulliken charges with hydrogens summed into heavy atoms =   0.00000
 Electronic spatial extent (au):  <R**2>=            322.1121
 Charge=              0.0000 electrons
 Dipole moment (field-independent basis, Debye):
    X=              0.0043    Y=             -1.4490    Z=              0.9300  Tot=              1.7218
 Quadrupole moment (field-independent basis, Debye-Ang):
   XX=            -27.1048   YY=            -29.5668   ZZ=            -24.3474
   XY=              0.0057   XZ=              0.0085   YZ=              2.4524
 Traceless Quadrupole moment (field-independent basis, Debye-Ang):
   XX=             -0.0985   YY=             -2.5605   ZZ=              2.6590
   XY=              0.0057   XZ=              0.0085   YZ=              2.4524
 Octapole moment (field-independent basis, Debye-Ang**2):
  XXX=              0.0076  YYY=              0.6164  ZZZ=              2.3729  XYY=              0.0119
  XXY=              2.7819  XXZ=             -0.9454  XZZ=              0.0109  YZZ=              5.1611
  YYZ=              3.1588  XYZ=              0.0136
 Hexadecapole moment (field-independent basis, Debye-Ang**3):
 XXXX=           -204.7366 YYYY=           -165.5400 ZZZZ=            -52.9301 XXXY=              0.0005
 XXXZ=              0.0011 YYYX=              0.0281 YYYZ=             10.4637 ZZZX=              0.0140
 ZZZY=              3.6342 XXYY=            -63.2156 XXZZ=            -44.7579 YYZZ=            -32.7397
 XXYZ=              0.2335 YYXZ=              0.0253 ZZXY=              0.0157
 N-N= 1.340508076660D+02 E-N=-7.206873271965D+02  KE= 1.928633256723D+02
 1\1\GINC-ROCK\SP\RMP2-FC\CC-pVTZ\C3H8O1\STYLIANAKIS\13-Mar-2016\0\\# m
 p2/cc-pVTZ\\2_propanol_a_single_point\\0,1\C\C,1,1.529776\O,2,1.43598,
 1,111.084\C,2,1.529803,3,111.078,1,126.292,0\H,1,1.093972,2,110.457,4,
 -179.349,0\H,1,1.098088,2,110.798,4,-59.386,0\H,1,1.095883,2,111.065,4
 ,60.198,0\H,2,1.096069,1,108.975,5,59.548,0\H,4,1.093966,2,110.448,1,1
 79.325,0\H,4,1.095893,2,111.067,1,-60.224,0\H,4,1.098072,2,110.799,1,5
 9.371,0\H,3,0.967406,2,108.518,1,-62.95,0\\Version=EM64L-G09RevA.01\St
 ate=1-A\HF=-193.1935893\MP2=-193.9715656\RMSD=6.223e-09\PG=C01 [X(C3H8
 O1)]\\@


 Where a calculator on the ENIAC is equipped with 18,000
 vacuum tubes and weighs 30 tons, computers inthe future
 may  have only 1,000 vacuum tubes and weigh only 1 1/2 tons.
              ---Popular Mechanics, March 1949
 Job cpu time:  0 days  0 hours 21 minutes 21.9 seconds.
 File lengths (MBytes):  RWF=     25 Int=      0 D2E=      0 Chk=      3 Scr=      1
 Normal termination of Gaussian 09 at Sun Mar 13 01:58:55 2016.
