 Entering Gaussian System, Link 0=g09
 Input=3_keto_cyclodecanone.gjf
 Output=3_keto_cyclodecanone.out
 Initial command:
 /usr/local/g09/l1.exe /home/scratch/stylianakis/Gau-20907.inp -scrdir=/home/scratch/stylianakis/
 Entering Link 1 = /usr/local/g09/l1.exe PID=     20908.
  
 Copyright (c) 1988,1990,1992,1993,1995,1998,2003,2009, Gaussian, Inc.
                  All Rights Reserved.
  
 This is part of the Gaussian(R) 09 program.  It is based on
 the Gaussian(R) 03 system (copyright 2003, Gaussian, Inc.),
 the Gaussian(R) 98 system (copyright 1998, Gaussian, Inc.),
 the Gaussian(R) 94 system (copyright 1995, Gaussian, Inc.),
 the Gaussian 92(TM) system (copyright 1992, Gaussian, Inc.),
 the Gaussian 90(TM) system (copyright 1990, Gaussian, Inc.),
 the Gaussian 88(TM) system (copyright 1988, Gaussian, Inc.),
 the Gaussian 86(TM) system (copyright 1986, Carnegie Mellon
 University), and the Gaussian 82(TM) system (copyright 1983,
 Carnegie Mellon University). Gaussian is a federally registered
 trademark of Gaussian, Inc.
  
 This software contains proprietary and confidential information,
 including trade secrets, belonging to Gaussian, Inc.
  
 This software is provided under written license and may be
 used, copied, transmitted, or stored only in accord with that
 written license.
  
 The following legend is applicable only to US Government
 contracts under FAR:
  
                    RESTRICTED RIGHTS LEGEND
  
 Use, reproduction and disclosure by the US Government is
 subject to restrictions as set forth in subparagraphs (a)
 and (c) of the Commercial Computer Software - Restricted
 Rights clause in FAR 52.227-19.
  
 Gaussian, Inc.
 340 Quinnipiac St., Bldg. 40, Wallingford CT 06492
  
  
 ---------------------------------------------------------------
 Warning -- This program may not be used in any manner that
 competes with the business of Gaussian, Inc. or will provide
 assistance to any competitor of Gaussian, Inc.  The licensee
 of this program is prohibited from giving any competitor of
 Gaussian, Inc. access to this program.  By using this program,
 the user acknowledges that Gaussian, Inc. is engaged in the
 business of creating and licensing software in the field of
 computational chemistry and represents and warrants to the
 licensee that it is not a competitor of Gaussian, Inc. and that
 it will not use this program in any manner prohibited above.
 ---------------------------------------------------------------
  

 Cite this work as:
 Gaussian 09, Revision A.01,
 M. J. Frisch, G. W. Trucks, H. B. Schlegel, G. E. Scuseria, 
 M. A. Robb, J. R. Cheeseman, G. Scalmani, V. Barone, B. Mennucci, 
 G. A. Petersson, H. Nakatsuji, M. Caricato, X. Li, H. P. Hratchian, 
 A. F. Izmaylov, J. Bloino, G. Zheng, J. L. Sonnenberg, M. Hada, 
 M. Ehara, K. Toyota, R. Fukuda, J. Hasegawa, M. Ishida, T. Nakajima, 
 Y. Honda, O. Kitao, H. Nakai, T. Vreven, J. A. Montgomery, Jr., 
 J. E. Peralta, F. Ogliaro, M. Bearpark, J. J. Heyd, E. Brothers, 
 K. N. Kudin, V. N. Staroverov, R. Kobayashi, J. Normand, 
 K. Raghavachari, A. Rendell, J. C. Burant, S. S. Iyengar, J. Tomasi, 
 M. Cossi, N. Rega, J. M. Millam, M. Klene, J. E. Knox, J. B. Cross, 
 V. Bakken, C. Adamo, J. Jaramillo, R. Gomperts, R. E. Stratmann, 
 O. Yazyev, A. J. Austin, R. Cammi, C. Pomelli, J. W. Ochterski, 
 R. L. Martin, K. Morokuma, V. G. Zakrzewski, G. A. Voth, 
 P. Salvador, J. J. Dannenberg, S. Dapprich, A. D. Daniels, 
 O. Farkas, J. B. Foresman, J. V. Ortiz, J. Cioslowski, 
 and D. J. Fox, Gaussian, Inc., Wallingford CT, 2009.
 
 ******************************************
 Gaussian 09:  EM64L-G09RevA.01  8-May-2009
                 3-Mar-2016 
 ******************************************
 %mem=8000Mb
 %nproc=8
 Will use up to    8 processors via shared memory.
 -------------
 # mp2/cc-pVTZ
 -------------
 1/38=1/1;
 2/12=2,17=6,18=5,40=1/2;
 3/5=16,6=1,11=9,16=1,25=1,30=1/1,2,3;
 4//1;
 5/5=2,38=5/2;
 8/10=1/1;
 9/16=-3/6;
 6/7=2,8=2,9=2,10=2/1;
 99/5=1,9=1/99;
 ---------------------------------
 3_keto_cyclodecanone_single_point
 ---------------------------------
 Symbolic Z-matrix:
 Charge =  0 Multiplicity = 1
 c
 c                    1    cc2
 c                    2    cc3      1    ccc3
 c                    3    cc4      2    ccc4     1    dih4     0
 c                    4    cc5      3    ccc5     2    dih5     0
 c                    5    cc6      4    ccc6     3    dih6     0
 c                    6    cc7      5    ccc7     4    dih7     0
 c                    7    cc8      6    ccc8     5    dih8     0
 c                    8    cc9      7    ccc9     6    dih9     0
 o                    9    oc10     8    occ10    7    dih10    0
 c                    1    cc11     2    ccc11    3    dih11    0
 h                    1    hc12     11   hcc12    9    dih12    0
 h                    1    hc13     11   hcc13    9    dih13    0
 h                    11   hc14     1    hcc14    2    dih14    0
 h                    11   hc15     1    hcc15    2    dih15    0
 h                    2    hc16     1    hcc16    11   dih16    0
 h                    2    hc17     1    hcc17    11   dih17    0
 h                    3    hc18     2    hcc18    1    dih18    0
 h                    3    hc19     2    hcc19    1    dih19    0
 h                    4    hc20     3    hcc20    2    dih20    0
 h                    4    hc21     3    hcc21    2    dih21    0
 h                    8    hc22     9    hcc22    11   dih22    0
 h                    8    hc23     9    hcc23    11   dih23    0
 h                    5    hc24     4    hcc24    3    dih24    0
 h                    5    hc25     4    hcc25    3    dih25    0
 h                    6    hc26     5    hcc26    4    dih26    0
 h                    6    hc27     5    hcc27    4    dih27    0
 h                    7    hc28     8    hcc28    9    dih28    0
 h                    7    hc29     8    hcc29    9    dih29    0
       Variables:
  cc2                   1.54274                  
  cc3                   1.54321                  
  ccc3                118.593                    
  cc4                   1.54295                  
  ccc4                117.398                    
  dih4                 64.783                    
  cc5                   1.54186                  
  ccc5                114.948                    
  dih5                 54.667                    
  cc6                   1.53962                  
  ccc6                114.851                    
  dih6               -156.893                    
  cc7                   1.54206                  
  ccc7                116.083                    
  dih7                 62.484                    
  cc8                   1.54565                  
  ccc8                116.193                    
  dih8                 60.515                    
  cc9                   1.52889                  
  ccc9                118.693                    
  dih9                -69.208                    
  oc10                  1.22189                  
  occ10               120.405                    
  dih10               132.857                    
  cc11                  1.54411                  
  ccc11               117.955                    
  dih11               -66.334                    
  hc12                  1.09856                  
  hcc12               107.508                    
  dih12              -176.926                    
  hc13                  1.09534                  
  hcc13               107.829                    
  dih13                68.666                    
  hc14                  1.10112                  
  hcc14               108.361                    
  dih14              -170.258                    
  hc15                  1.09163                  
  hcc15               111.638                    
  dih15                74.242                    
  hc16                  1.09808                  
  hcc16               106.474                    
  dih16               173.316                    
  hc17                  1.09499                  
  hcc17               108.753                    
  dih17                60.549                    
  hc18                  1.09934                  
  hcc18               109.065                    
  dih18               -58.782                    
  hc19                  1.09927                  
  hcc19               107.204                    
  dih19              -172.855                    
  hc20                  1.09404                  
  hcc20               108.941                    
  dih20               -69.362                    
  hc21                  1.0984                   
  hcc21               108.415                    
  dih21               176.879                    
  hc22                  1.09524                  
  hcc22               106.636                    
  dih22              -177.408                    
  hc23                  1.1012                   
  hcc23               105.598                    
  dih23                69.193                    
  hc24                  1.09803                  
  hcc24               109.024                    
  dih24                81.012                    
  hc25                  1.0945                   
  hcc25               110.415                    
  dih25               -33.845                    
  hc26                  1.09909                  
  hcc26               109.478                    
  dih26               -59.909                    
  hc27                  1.09852                  
  hcc27               108.411                    
  dih27              -175.18                     
  hc28                  1.09715                  
  hcc28               106.969                    
  dih28               170.447                    
  hc29                  1.09616                  
  hcc29               109.856                    
  dih29                56.812                    
 
                          Input orientation:                          
 ---------------------------------------------------------------------
 Center     Atomic      Atomic             Coordinates (Angstroms)
 Number     Number       Type             X           Y           Z
 ---------------------------------------------------------------------
      1          6           0        0.000000    0.000000    0.000000
      2          6           0        0.000000    0.000000    1.542738
      3          6           0        1.355002    0.000000    2.281295
      4          6           0        2.257747    1.239333    2.108643
      5          6           0        1.590040    2.584202    2.459125
      6          6           0        2.228460    3.816633    1.792812
      7          6           0        2.180551    3.855401    0.251980
      8          6           0        0.773301    3.847569   -0.387251
      9          6           0       -0.070146    2.576120   -0.289749
     10          8           0       -1.242013    2.636020    0.051067
     11          6           0        0.547489    1.249228   -0.723843
     12          1           0        0.565230   -0.868114   -0.365692
     13          1           0       -1.036561   -0.146881   -0.322097
     14          1           0        0.314695    1.158597   -1.796247
     15          1           0        1.636507    1.301203   -0.669126
     16          1           0       -0.532061   -0.908693    1.854131
     17          1           0       -0.622304    0.829344    1.894764
     18          1           0        1.928031   -0.888590    1.980297
     19          1           0        1.141833   -0.130611    3.351761
     20          1           0        2.634706    1.263832    1.081889
     21          1           0        3.149763    1.108988    2.736181
     22          1           0        0.160459    4.661909    0.013773
     23          1           0        0.894545    4.040571   -1.464603
     24          1           0        1.614560    2.722934    3.548082
     25          1           0        0.526797    2.561442    2.200422
     26          1           0        3.280881    3.895260    2.099781
     27          1           0        1.731189    4.716654    2.179382
     28          1           0        2.675564    4.778381   -0.074832
     29          1           0        2.784443    3.042307   -0.167252
 ---------------------------------------------------------------------
                    Distance matrix (angstroms):
                    1          2          3          4          5
     1  C    0.000000
     2  C    1.542738   0.000000
     3  C    2.653363   1.543210   0.000000
     4  C    3.328624   2.636970   1.542952   0.000000
     5  C    3.905589   3.169557   2.600955   1.541864   0.000000
     6  C    4.769370   4.426653   3.945660   2.596745   1.539623
     7  C    4.436487   4.613564   4.434385   3.208890   2.614601
     8  C    3.943570   4.373401   4.718400   3.903327   3.219474
     9  C    2.593312   3.162171   3.908671   3.599773   3.211322
    10  O    2.914413   3.273573   4.320533   4.293328   3.717788
    11  C    1.544106   2.645317   3.353133   3.308784   3.605600
    12  H    1.098561   2.171453   2.895496   3.664461   4.576932
    13  H    1.095344   2.138607   3.538191   4.322331   4.700323
    14  H    2.160529   3.548268   4.364738   4.362354   4.665517
    15  H    2.195225   3.043620   3.236874   2.847062   3.381449
    16  H    2.132279   1.098079   2.137569   3.530130   4.131543
    17  H    2.159909   1.094987   2.178752   2.916938   2.879669
    18  H    2.903183   2.167568   1.099342   2.157137   3.521903
    19  H    3.543324   2.143223   1.099272   2.160405   2.892732
    20  H    3.115996   2.958264   2.161824   1.094039   2.175197
    21  H    4.317123   3.546148   2.158227   1.098402   2.164660
    22  H    4.664690   4.908857   5.319961   4.527817   3.512878
    23  H    4.389930   5.115713   5.529013   4.740605   4.242683
    24  H    4.755004   3.747343   3.014380   2.164890   1.098033
    25  H    3.417653   2.696488   2.693223   2.180042   1.094500
    26  H    5.508748   5.123234   4.349138   2.846196   2.169549
    27  H    5.476636   5.064500   4.732729   3.517674   2.155349
    28  H    5.476967   5.710350   5.488911   4.179354   3.523311
    29  H    4.127557   4.464619   4.158643   2.950902   2.921355
                    6          7          8          9         10
     6  C    0.000000
     7  C    1.542064   0.000000
     8  C    2.621281   1.545648   0.000000
     9  C    3.340586   2.644932   1.528886   0.000000
    10  O    4.058534   3.638845   2.391958   1.221890   0.000000
    11  C    3.968725   3.226648   2.629765   1.526615   2.392904
    12  H    5.419623   5.030146   4.720320   3.503172   3.964690
    13  H    5.553615   5.166975   4.385827   2.889591   2.815315
    14  H    4.858909   3.866446   3.070206   2.104046   2.831728
    15  H    3.569164   2.769178   2.703434   2.163794   3.253658
    16  H    5.472928   5.711545   5.417545   4.117464   4.039809
    17  H    4.130514   4.439793   4.032988   2.851000   2.654682
    18  H    4.718531   5.055324   5.419399   4.598916   5.118005
    19  H    4.380846   5.155179   5.471923   4.696369   4.922555
    20  H    2.680903   2.758847   3.506978   3.304499   4.239627
    21  H    3.011658   3.827978   4.785731   4.655807   5.369298
    22  H    2.855888   2.188142   1.095237   2.120335   2.464253
    23  H    3.527070   2.152848   1.101198   2.110812   2.972355
    24  H    2.157319   3.530881   4.178441   4.193893   4.516268
    25  H    2.153441   2.864552   2.900161   2.560763   2.784596
    26  H    1.099092   2.150973   3.532075   4.321963   5.122449
    27  H    1.098523   2.158370   2.874102   3.731394   4.206981
    28  H    2.147779   1.097149   2.140706   3.526339   4.466874
    29  H    2.179575   1.096158   2.177507   2.894998   4.052786
                   11         12         13         14         15
    11  C    0.000000
    12  H    2.147492   0.000000
    13  H    2.149357   1.757216   0.000000
    14  H    1.101117   2.493354   2.388155   0.000000
    15  H    1.091630   2.438369   3.059848   1.742965   0.000000
    16  H    3.531006   2.476552   2.360264   4.279714   3.994140
    17  H    2.898590   3.066147   2.457458   3.822295   3.449407
    18  H    3.713291   2.713173   3.826219   4.588694   3.449582
    19  H    4.343702   3.833515   4.271170   5.371052   4.296780
    20  H    2.759956   3.305058   4.176061   3.698269   2.015899
    21  H    4.331658   4.495593   5.334377   5.346305   3.731354
    22  H    3.512870   5.557785   4.966903   3.946284   3.733552
    23  H    2.908740   5.040956   4.750710   2.958376   2.947444
    24  H    4.643253   5.414272   5.499324   5.718274   4.450465
    25  H    3.205254   4.283487   4.017736   4.241029   3.324749
    26  H    4.737696   6.011908   6.390986   5.609512   4.135207
    27  H    4.674709   6.247118   6.129585   5.520132   4.448400
    28  H    4.171911   6.034982   6.172456   4.651861   3.677444
    29  H    2.920426   4.500631   4.979454   3.507370   2.145012
                   16         17         18         19         20
    16  H    0.000000
    17  H    1.740852   0.000000
    18  H    2.463407   3.076170   0.000000
    19  H    2.377021   2.481236   1.753155   0.000000
    20  H    3.917223   3.384917   2.437098   3.053761   0.000000
    21  H    4.290091   3.874877   2.460551   2.438714   1.739523
    22  H    5.907462   4.340438   6.148135   5.922289   4.337015
    23  H    6.127350   4.888574   6.101807   6.376305   4.150068
    24  H    4.546005   3.364923   3.949597   2.899091   3.041674
    25  H    3.644576   2.100958   3.730232   2.991822   2.716282
    26  H    6.138146   4.967568   4.972896   4.727644   2.894487
    27  H    6.072282   4.553144   5.612231   5.021732   3.734008
    28  H    6.808272   5.509096   6.074284   6.179973   3.700234
    29  H    5.540360   4.555770   4.560413   5.014881   2.178474
                   21         22         23         24         25
    21  H    0.000000
    22  H    5.382442   0.000000
    23  H    5.597032   1.763671   0.000000
    24  H    2.370833   4.285485   5.232743   0.000000
    25  H    3.045753   3.054112   3.969315   1.739396   0.000000
    26  H    2.861032   3.830955   4.291916   2.499710   3.061728
    27  H    3.916328   2.675827   3.799432   2.421129   2.468996
    28  H    4.646623   2.519359   2.376522   4.298383   3.835205
    29  H    3.507293   3.088878   2.500272   3.908240   3.306671
                   26         27         28         29
    26  H    0.000000
    27  H    1.755725   0.000000
    28  H    2.423892   2.444818   0.000000
    29  H    2.472533   3.069116   1.741938   0.000000
 Stoichiometry    C10H18O
 Framework group  C1[X(C10H18O)]
 Deg. of freedom    81
 Full point group                 C1      NOp   1
 Largest Abelian subgroup         C1      NOp   1
 Largest concise Abelian subgroup C1      NOp   1
                         Standard orientation:                         
 ---------------------------------------------------------------------
 Center     Atomic      Atomic             Coordinates (Angstroms)
 Number     Number       Type             X           Y           Z
 ---------------------------------------------------------------------
      1          6           0        1.989029   -1.099839   -0.495773
      2          6           0        2.226609    0.081268    0.467857
      3          6           0        1.959765    1.513908   -0.039915
      4          6           0        0.505591    1.878561   -0.404753
      5          6           0       -0.526905    1.631732    0.713448
      6          6           0       -1.976324    1.449724    0.227137
      7          6           0       -2.236879    0.236883   -0.688881
      8          6           0       -1.932645   -1.152641   -0.084156
      9          6           0       -0.476274   -1.534780    0.181260
     10          8           0       -0.151390   -2.027767    1.251041
     11          6           0        0.540379   -1.385185   -0.947717
     12          1           0        2.596330   -0.961372   -1.400676
     13          1           0        2.369708   -2.000246   -0.001679
     14          1           0        0.526471   -2.349279   -1.479494
     15          1           0        0.193696   -0.649711   -1.676102
     16          1           0        3.284817    0.038483    0.757931
     17          1           0        1.669961   -0.101657    1.392886
     18          1           0        2.594235    1.708232   -0.916408
     19          1           0        2.308217    2.205547    0.740223
     20          1           0        0.218387    1.332143   -1.308004
     21          1           0        0.475166    2.938405   -0.691619
     22          1           0       -2.470191   -1.291019    0.860005
     23          1           0       -2.315442   -1.912458   -0.783285
     24          1           0       -0.497516    2.472063    1.419605
     25          1           0       -0.246550    0.754677    1.305146
     26          1           0       -2.299129    2.353157   -0.309154
     27          1           0       -2.629723    1.368653    1.106484
     28          1           0       -3.300590    0.243220   -0.957608
     29          1           0       -1.700803    0.355511   -1.637624
 ---------------------------------------------------------------------
 Rotational constants (GHZ):      1.2526485      1.0662335      0.7029091
 Standard basis: CC-pVTZ (5D, 7F)
 There are   582 symmetry adapted basis functions of A   symmetry.
 Integral buffers will be    131072 words long.
 Raffenetti 1 integral format.
 Two-electron integral symmetry is turned on.
   582 basis functions,   878 primitive gaussians,   655 cartesian basis functions
    43 alpha electrons       43 beta electrons
       nuclear repulsion energy       669.6101167194 Hartrees.
 NAtoms=   29 NActive=   29 NUniq=   29 SFac= 7.50D-01 NAtFMM=   80 NAOKFM=F Big=F
 One-electron integrals computed using PRISM.
 NBasis=   582 RedAO= T  NBF=   582
 NBsUse=   582 1.00D-06 NBFU=   582
 Harris functional with IExCor=  205 diagonalized for initial guess.
 ExpMin= 1.03D-01 ExpMax= 1.53D+04 ExpMxC= 5.22D+02 IAcc=1 IRadAn=         1 AccDes= 0.00D+00
 HarFok:  IExCor=  205 AccDes= 0.00D+00 IRadAn=         1 IDoV= 1
 ScaDFX=  1.000000  1.000000  1.000000  1.000000
 FoFCou: FMM=F IPFlag=           0 FMFlag=      100000 FMFlg1=           0
         NFxFlg=           0 DoJE=T BraDBF=F KetDBF=T FulRan=T
         Omega=  0.000000  0.000000  1.000000  0.000000  0.000000 ICntrl=     500 IOpCl=  0
         NMat0=    1 NMatS0=    1 NMatT0=    0 NMatD0=    1 NMtDS0=    0 NMtDT0=    0
         I1Cent=           4 NGrid=           0.
 Petite list used in FoFCou.
 Initial guess orbital symmetries:
       Occupied  (A) (A) (A) (A) (A) (A) (A) (A) (A) (A) (A) (A)
                 (A) (A) (A) (A) (A) (A) (A) (A) (A) (A) (A) (A)
                 (A) (A) (A) (A) (A) (A) (A) (A) (A) (A) (A) (A)
                 (A) (A) (A) (A) (A) (A) (A)
       Virtual   (A) (A) (A) (A) (A) (A) (A) (A) (A) (A) (A) (A)
                 (A) (A) (A) (A) (A) (A) (A) (A) (A) (A) (A) (A)
                 (A) (A) (A) (A) (A) (A) (A) (A) (A) (A) (A) (A)
                 (A) (A) (A) (A) (A) (A) (A) (A) (A) (A) (A) (A)
                 (A) (A) (A) (A) (A) (A) (A) (A) (A) (A) (A) (A)
                 (A) (A) (A) (A) (A) (A) (A) (A) (A) (A) (A) (A)
                 (A) (A) (A) (A) (A) (A) (A) (A) (A) (A) (A) (A)
                 (A) (A) (A) (A) (A) (A) (A) (A) (A) (A) (A) (A)
                 (A) (A) (A) (A) (A) (A) (A) (A) (A) (A) (A) (A)
                 (A) (A) (A) (A) (A) (A) (A) (A) (A) (A) (A) (A)
                 (A) (A) (A) (A) (A) (A) (A) (A) (A) (A) (A) (A)
                 (A) (A) (A) (A) (A) (A) (A) (A) (A) (A) (A) (A)
                 (A) (A) (A) (A) (A) (A) (A) (A) (A) (A) (A) (A)
                 (A) (A) (A) (A) (A) (A) (A) (A) (A) (A) (A) (A)
                 (A) (A) (A) (A) (A) (A) (A) (A) (A) (A) (A) (A)
                 (A) (A) (A) (A) (A) (A) (A) (A) (A) (A) (A) (A)
                 (A) (A) (A) (A) (A) (A) (A) (A) (A) (A) (A) (A)
                 (A) (A) (A) (A) (A) (A) (A) (A) (A) (A) (A) (A)
                 (A) (A) (A) (A) (A) (A) (A) (A) (A) (A) (A) (A)
                 (A) (A) (A) (A) (A) (A) (A) (A) (A) (A) (A) (A)
                 (A) (A) (A) (A) (A) (A) (A) (A) (A) (A) (A) (A)
                 (A) (A) (A) (A) (A) (A) (A) (A) (A) (A) (A) (A)
                 (A) (A) (A) (A) (A) (A) (A) (A) (A) (A) (A) (A)
                 (A) (A) (A) (A) (A) (A) (A) (A) (A) (A) (A) (A)
                 (A) (A) (A) (A) (A) (A) (A) (A) (A) (A) (A) (A)
                 (A) (A) (A) (A) (A) (A) (A) (A) (A) (A) (A) (A)
                 (A) (A) (A) (A) (A) (A) (A) (A) (A) (A) (A) (A)
                 (A) (A) (A) (A) (A) (A) (A) (A) (A) (A) (A) (A)
                 (A) (A) (A) (A) (A) (A) (A) (A) (A) (A) (A) (A)
                 (A) (A) (A) (A) (A) (A) (A) (A) (A) (A) (A) (A)
                 (A) (A) (A) (A) (A) (A) (A) (A) (A) (A) (A) (A)
                 (A) (A) (A) (A) (A) (A) (A) (A) (A) (A) (A) (A)
                 (A) (A) (A) (A) (A) (A) (A) (A) (A) (A) (A) (A)
                 (A) (A) (A) (A) (A) (A) (A) (A) (A) (A) (A) (A)
                 (A) (A) (A) (A) (A) (A) (A) (A) (A) (A) (A) (A)
                 (A) (A) (A) (A) (A) (A) (A) (A) (A) (A) (A) (A)
                 (A) (A) (A) (A) (A) (A) (A) (A) (A) (A) (A) (A)
                 (A) (A) (A) (A) (A) (A) (A) (A) (A) (A) (A) (A)
                 (A) (A) (A) (A) (A) (A) (A) (A) (A) (A) (A) (A)
                 (A) (A) (A) (A) (A) (A) (A) (A) (A) (A) (A) (A)
                 (A) (A) (A) (A) (A) (A) (A) (A) (A) (A) (A) (A)
                 (A) (A) (A) (A) (A) (A) (A) (A) (A) (A) (A) (A)
                 (A) (A) (A) (A) (A) (A) (A) (A) (A) (A) (A) (A)
                 (A) (A) (A) (A) (A) (A) (A) (A) (A) (A) (A) (A)
                 (A) (A) (A) (A) (A) (A) (A) (A) (A) (A) (A)
 The electronic state of the initial guess is 1-A.
 Requested convergence on RMS density matrix=1.00D-08 within 128 cycles.
 Requested convergence on MAX density matrix=1.00D-06.
 Requested convergence on             energy=1.00D-06.
 No special actions if energy rises.
 Integral accuracy reduced to 1.0D-05 until final iterations.
 Initial convergence to 1.0D-05 achieved.  Increase integral accuracy.
 SCF Done:  E(RHF) =  -464.178589922     A.U. after   15 cycles
             Convg  =    0.3651D-08             -V/T =  2.0018
 ExpMin= 1.03D-01 ExpMax= 1.53D+04 ExpMxC= 5.22D+02 IAcc=1 IRadAn=         1 AccDes= 0.00D+00
 HarFok:  IExCor=  205 AccDes= 0.00D+00 IRadAn=         1 IDoV=-2
 ScaDFX=  1.000000  1.000000  1.000000  1.000000
 Range of M.O.s used for correlation:    12   582
 NBasis=   582 NAE=    43 NBE=    43 NFC=    11 NFV=     0
 NROrb=    571 NOA=    32 NOB=    32 NVA=   539 NVB=   539
 Fully direct method using O(OVN) memory.
 JobTyp=1 Pass  1:  I=   1 to  13 NPSUse=  8 ParTrn=T ParDer=T DoDerP=F.
 JobTyp=1 Pass  2:  I=  14 to  32 NPSUse=  8 ParTrn=T ParDer=T DoDerP=F.
 Spin components of T(2) and E(2):
     alpha-alpha T2 =       0.7535272210D-01 E2=     -0.2287755124D+00
     alpha-beta  T2 =       0.4477315138D+00 E2=     -0.1492869878D+01
     beta-beta   T2 =       0.7535272210D-01 E2=     -0.2287755124D+00
 ANorm=    0.1264293066D+01
 E2 =    -0.1950420903D+01 EUMP2 =    -0.46612901082443D+03

 **********************************************************************

            Population analysis using the SCF density.

 **********************************************************************

 Orbital symmetries:
       Occupied  (A) (A) (A) (A) (A) (A) (A) (A) (A) (A) (A) (A)
                 (A) (A) (A) (A) (A) (A) (A) (A) (A) (A) (A) (A)
                 (A) (A) (A) (A) (A) (A) (A) (A) (A) (A) (A) (A)
                 (A) (A) (A) (A) (A) (A) (A)
       Virtual   (A) (A) (A) (A) (A) (A) (A) (A) (A) (A) (A) (A)
                 (A) (A) (A) (A) (A) (A) (A) (A) (A) (A) (A) (A)
                 (A) (A) (A) (A) (A) (A) (A) (A) (A) (A) (A) (A)
                 (A) (A) (A) (A) (A) (A) (A) (A) (A) (A) (A) (A)
                 (A) (A) (A) (A) (A) (A) (A) (A) (A) (A) (A) (A)
                 (A) (A) (A) (A) (A) (A) (A) (A) (A) (A) (A) (A)
                 (A) (A) (A) (A) (A) (A) (A) (A) (A) (A) (A) (A)
                 (A) (A) (A) (A) (A) (A) (A) (A) (A) (A) (A) (A)
                 (A) (A) (A) (A) (A) (A) (A) (A) (A) (A) (A) (A)
                 (A) (A) (A) (A) (A) (A) (A) (A) (A) (A) (A) (A)
                 (A) (A) (A) (A) (A) (A) (A) (A) (A) (A) (A) (A)
                 (A) (A) (A) (A) (A) (A) (A) (A) (A) (A) (A) (A)
                 (A) (A) (A) (A) (A) (A) (A) (A) (A) (A) (A) (A)
                 (A) (A) (A) (A) (A) (A) (A) (A) (A) (A) (A) (A)
                 (A) (A) (A) (A) (A) (A) (A) (A) (A) (A) (A) (A)
                 (A) (A) (A) (A) (A) (A) (A) (A) (A) (A) (A) (A)
                 (A) (A) (A) (A) (A) (A) (A) (A) (A) (A) (A) (A)
                 (A) (A) (A) (A) (A) (A) (A) (A) (A) (A) (A) (A)
                 (A) (A) (A) (A) (A) (A) (A) (A) (A) (A) (A) (A)
                 (A) (A) (A) (A) (A) (A) (A) (A) (A) (A) (A) (A)
                 (A) (A) (A) (A) (A) (A) (A) (A) (A) (A) (A) (A)
                 (A) (A) (A) (A) (A) (A) (A) (A) (A) (A) (A) (A)
                 (A) (A) (A) (A) (A) (A) (A) (A) (A) (A) (A) (A)
                 (A) (A) (A) (A) (A) (A) (A) (A) (A) (A) (A) (A)
                 (A) (A) (A) (A) (A) (A) (A) (A) (A) (A) (A) (A)
                 (A) (A) (A) (A) (A) (A) (A) (A) (A) (A) (A) (A)
                 (A) (A) (A) (A) (A) (A) (A) (A) (A) (A) (A) (A)
                 (A) (A) (A) (A) (A) (A) (A) (A) (A) (A) (A) (A)
                 (A) (A) (A) (A) (A) (A) (A) (A) (A) (A) (A) (A)
                 (A) (A) (A) (A) (A) (A) (A) (A) (A) (A) (A) (A)
                 (A) (A) (A) (A) (A) (A) (A) (A) (A) (A) (A) (A)
                 (A) (A) (A) (A) (A) (A) (A) (A) (A) (A) (A) (A)
                 (A) (A) (A) (A) (A) (A) (A) (A) (A) (A) (A) (A)
                 (A) (A) (A) (A) (A) (A) (A) (A) (A) (A) (A) (A)
                 (A) (A) (A) (A) (A) (A) (A) (A) (A) (A) (A) (A)
                 (A) (A) (A) (A) (A) (A) (A) (A) (A) (A) (A) (A)
                 (A) (A) (A) (A) (A) (A) (A) (A) (A) (A) (A) (A)
                 (A) (A) (A) (A) (A) (A) (A) (A) (A) (A) (A) (A)
                 (A) (A) (A) (A) (A) (A) (A) (A) (A) (A) (A) (A)
                 (A) (A) (A) (A) (A) (A) (A) (A) (A) (A) (A) (A)
                 (A) (A) (A) (A) (A) (A) (A) (A) (A) (A) (A) (A)
                 (A) (A) (A) (A) (A) (A) (A) (A) (A) (A) (A) (A)
                 (A) (A) (A) (A) (A) (A) (A) (A) (A) (A) (A) (A)
                 (A) (A) (A) (A) (A) (A) (A) (A) (A) (A) (A) (A)
                 (A) (A) (A) (A) (A) (A) (A) (A) (A) (A) (A)
 The electronic state is 1-A.
 Alpha  occ. eigenvalues --  -20.53565 -11.32629 -11.23619 -11.23488 -11.23455
 Alpha  occ. eigenvalues --  -11.22563 -11.22514 -11.21977 -11.21922 -11.21838
 Alpha  occ. eigenvalues --  -11.21481  -1.37395  -1.10227  -1.06968  -1.05090
 Alpha  occ. eigenvalues --   -0.98191  -0.96167  -0.88132  -0.85261  -0.78852
 Alpha  occ. eigenvalues --   -0.76153  -0.71058  -0.66839  -0.65149  -0.62849
 Alpha  occ. eigenvalues --   -0.61425  -0.60632  -0.60181  -0.58327  -0.56025
 Alpha  occ. eigenvalues --   -0.55475  -0.53636  -0.51717  -0.51034  -0.49995
 Alpha  occ. eigenvalues --   -0.49619  -0.47799  -0.46898  -0.45445  -0.44375
 Alpha  occ. eigenvalues --   -0.44170  -0.43738  -0.39626
 Alpha virt. eigenvalues --    0.12454   0.14351   0.14716   0.15232   0.16337
 Alpha virt. eigenvalues --    0.18008   0.18262   0.18906   0.20239   0.21413
 Alpha virt. eigenvalues --    0.21750   0.22470   0.23512   0.24014   0.25302
 Alpha virt. eigenvalues --    0.25805   0.26213   0.28812   0.29211   0.31396
 Alpha virt. eigenvalues --    0.32019   0.34539   0.35205   0.35753   0.36195
 Alpha virt. eigenvalues --    0.36956   0.37759   0.38806   0.40161   0.41130
 Alpha virt. eigenvalues --    0.41751   0.42356   0.43405   0.43955   0.45471
 Alpha virt. eigenvalues --    0.45689   0.47830   0.48608   0.49365   0.50250
 Alpha virt. eigenvalues --    0.51330   0.54767   0.55464   0.56125   0.57590
 Alpha virt. eigenvalues --    0.57887   0.58694   0.59614   0.59960   0.60446
 Alpha virt. eigenvalues --    0.60652   0.61200   0.62450   0.62986   0.63275
 Alpha virt. eigenvalues --    0.63924   0.64304   0.65122   0.65647   0.66479
 Alpha virt. eigenvalues --    0.66935   0.67183   0.67942   0.68678   0.68825
 Alpha virt. eigenvalues --    0.69422   0.70182   0.70572   0.71027   0.71918
 Alpha virt. eigenvalues --    0.72349   0.72883   0.73442   0.75687   0.76334
 Alpha virt. eigenvalues --    0.77391   0.79336   0.80489   0.81686   0.82058
 Alpha virt. eigenvalues --    0.85677   0.86763   0.87462   0.88639   0.91299
 Alpha virt. eigenvalues --    0.92082   0.94348   0.95640   0.96148   0.96427
 Alpha virt. eigenvalues --    0.98904   1.00432   1.01988   1.02950   1.03950
 Alpha virt. eigenvalues --    1.05063   1.05738   1.07454   1.08342   1.09117
 Alpha virt. eigenvalues --    1.11315   1.11439   1.12648   1.13117   1.14921
 Alpha virt. eigenvalues --    1.17286   1.17838   1.19372   1.20170   1.20626
 Alpha virt. eigenvalues --    1.21768   1.22414   1.23141   1.24524   1.24874
 Alpha virt. eigenvalues --    1.26010   1.26713   1.28109   1.29225   1.30755
 Alpha virt. eigenvalues --    1.31162   1.31542   1.32853   1.33727   1.34322
 Alpha virt. eigenvalues --    1.35258   1.36125   1.36601   1.38018   1.38351
 Alpha virt. eigenvalues --    1.39153   1.40315   1.40735   1.40962   1.41472
 Alpha virt. eigenvalues --    1.42279   1.43054   1.44599   1.45350   1.46247
 Alpha virt. eigenvalues --    1.47235   1.47580   1.49155   1.49861   1.50427
 Alpha virt. eigenvalues --    1.50816   1.52785   1.53270   1.54752   1.55196
 Alpha virt. eigenvalues --    1.56208   1.56416   1.57335   1.57929   1.59676
 Alpha virt. eigenvalues --    1.61047   1.62044   1.62181   1.63113   1.63188
 Alpha virt. eigenvalues --    1.64806   1.65140   1.65521   1.66301   1.67100
 Alpha virt. eigenvalues --    1.69088   1.70358   1.70642   1.71976   1.72467
 Alpha virt. eigenvalues --    1.72730   1.73932   1.75298   1.76322   1.76802
 Alpha virt. eigenvalues --    1.77853   1.79836   1.81172   1.81848   1.84395
 Alpha virt. eigenvalues --    1.85681   1.87124   1.88753   1.89906   1.90655
 Alpha virt. eigenvalues --    1.91516   1.95473   1.96078   1.99944   2.03510
 Alpha virt. eigenvalues --    2.04703   2.07109   2.08153   2.10364   2.11981
 Alpha virt. eigenvalues --    2.18196   2.19958   2.29782   2.39661   2.49037
 Alpha virt. eigenvalues --    2.51522   2.57114   2.60685   2.62295   2.63706
 Alpha virt. eigenvalues --    2.65120   2.66469   2.67885   2.69866   2.70312
 Alpha virt. eigenvalues --    2.72845   2.74146   2.74845   2.75469   2.75969
 Alpha virt. eigenvalues --    2.77182   2.78386   2.79463   2.79856   2.81633
 Alpha virt. eigenvalues --    2.83405   2.84720   2.85846   2.86304   2.86882
 Alpha virt. eigenvalues --    2.87189   2.88118   2.90132   2.91807   2.92178
 Alpha virt. eigenvalues --    2.92642   2.94583   2.96908   2.97016   2.97513
 Alpha virt. eigenvalues --    2.98959   2.99087   3.00944   3.01940   3.02022
 Alpha virt. eigenvalues --    3.02404   3.03597   3.05236   3.05618   3.08717
 Alpha virt. eigenvalues --    3.09600   3.10144   3.12296   3.12614   3.14747
 Alpha virt. eigenvalues --    3.15541   3.16303   3.17269   3.18226   3.18901
 Alpha virt. eigenvalues --    3.20286   3.21655   3.22911   3.23813   3.23876
 Alpha virt. eigenvalues --    3.25784   3.26349   3.27154   3.28199   3.30038
 Alpha virt. eigenvalues --    3.31027   3.31626   3.32374   3.32811   3.33656
 Alpha virt. eigenvalues --    3.34147   3.36026   3.36385   3.37464   3.38328
 Alpha virt. eigenvalues --    3.38981   3.39398   3.40995   3.41996   3.42390
 Alpha virt. eigenvalues --    3.42836   3.43537   3.44490   3.45085   3.46036
 Alpha virt. eigenvalues --    3.46304   3.46583   3.47948   3.49151   3.49343
 Alpha virt. eigenvalues --    3.50183   3.52086   3.52784   3.53296   3.54874
 Alpha virt. eigenvalues --    3.55196   3.56000   3.56227   3.57094   3.57987
 Alpha virt. eigenvalues --    3.58425   3.58850   3.59813   3.61827   3.63675
 Alpha virt. eigenvalues --    3.65061   3.66461   3.67083   3.68517   3.69438
 Alpha virt. eigenvalues --    3.70678   3.71223   3.71643   3.71913   3.74500
 Alpha virt. eigenvalues --    3.75341   3.75607   3.77118   3.77327   3.79275
 Alpha virt. eigenvalues --    3.80838   3.81055   3.82078   3.83290   3.85218
 Alpha virt. eigenvalues --    3.85861   3.86628   3.87995   3.88712   3.89257
 Alpha virt. eigenvalues --    3.90761   3.91655   3.92895   3.93305   3.94002
 Alpha virt. eigenvalues --    3.96442   3.97666   3.97994   3.99023   4.00281
 Alpha virt. eigenvalues --    4.01159   4.01761   4.02614   4.05055   4.05552
 Alpha virt. eigenvalues --    4.06498   4.06706   4.07476   4.07737   4.08597
 Alpha virt. eigenvalues --    4.09366   4.10273   4.11290   4.12503   4.13829
 Alpha virt. eigenvalues --    4.13901   4.14887   4.15377   4.16480   4.18959
 Alpha virt. eigenvalues --    4.19703   4.20373   4.20811   4.22873   4.23666
 Alpha virt. eigenvalues --    4.24855   4.25680   4.26542   4.27833   4.28568
 Alpha virt. eigenvalues --    4.29117   4.29869   4.31320   4.32802   4.33638
 Alpha virt. eigenvalues --    4.34227   4.35435   4.36205   4.37370   4.37881
 Alpha virt. eigenvalues --    4.39014   4.40241   4.40641   4.41777   4.42537
 Alpha virt. eigenvalues --    4.43320   4.43702   4.44636   4.45595   4.45866
 Alpha virt. eigenvalues --    4.47320   4.48424   4.48988   4.50123   4.51293
 Alpha virt. eigenvalues --    4.52607   4.53542   4.54704   4.55854   4.56174
 Alpha virt. eigenvalues --    4.57266   4.59050   4.59554   4.60696   4.61932
 Alpha virt. eigenvalues --    4.62553   4.63501   4.65254   4.65386   4.66341
 Alpha virt. eigenvalues --    4.67329   4.69004   4.70197   4.70518   4.72619
 Alpha virt. eigenvalues --    4.74972   4.75140   4.75721   4.76650   4.76979
 Alpha virt. eigenvalues --    4.77837   4.79398   4.81075   4.81676   4.82165
 Alpha virt. eigenvalues --    4.85111   4.85574   4.86552   4.88389   4.91391
 Alpha virt. eigenvalues --    4.91615   4.93460   4.94532   4.99523   4.99858
 Alpha virt. eigenvalues --    5.01993   5.02527   5.04993   5.06770   5.08754
 Alpha virt. eigenvalues --    5.09557   5.10709   5.13207   5.15071   5.15748
 Alpha virt. eigenvalues --    5.16483   5.17750   5.19723   5.20942   5.23009
 Alpha virt. eigenvalues --    5.23391   5.24310   5.27661   5.28555   5.29315
 Alpha virt. eigenvalues --    5.30443   5.31883   5.32995   5.33439   5.34704
 Alpha virt. eigenvalues --    5.36980   5.38213   5.38906   5.40945   5.41622
 Alpha virt. eigenvalues --    5.42061   5.43004   5.44280   5.46194   5.49631
 Alpha virt. eigenvalues --    5.50655   5.51373   5.55799   5.57793   5.58555
 Alpha virt. eigenvalues --    5.59695   5.60513   5.62136   5.63026   5.63427
 Alpha virt. eigenvalues --    5.64967   5.66165   5.67735   5.69715   5.72224
 Alpha virt. eigenvalues --    5.73930   5.74888   5.75898   5.77704   5.79006
 Alpha virt. eigenvalues --    5.79978   5.81291   5.83200   5.84161   5.84709
 Alpha virt. eigenvalues --    5.85736   5.86951   5.89891   5.91963   5.93210
 Alpha virt. eigenvalues --    5.95043   5.97721   6.00182   6.02033   6.05272
 Alpha virt. eigenvalues --    6.07045   6.08398   6.10946   6.13040   6.15679
 Alpha virt. eigenvalues --    6.20591   6.36578   6.39545   6.41445   6.44932
 Alpha virt. eigenvalues --    6.46722   6.47827   6.50604   6.51223   6.58162
 Alpha virt. eigenvalues --    6.69219   6.81395   6.96649   7.04255   7.10219
 Alpha virt. eigenvalues --    7.41243   7.59796   7.63046   9.95212  12.74437
 Alpha virt. eigenvalues --   13.02607  13.17177  13.19158  13.41649  13.45536
 Alpha virt. eigenvalues --   13.56718  13.66385  13.91920  14.02943
          Condensed to atoms (all electrons):
              1          2          3          4          5          6
     1  C    4.835392   0.342341  -0.048085   0.003648  -0.000234   0.000024
     2  C    0.342341   4.925948   0.344619  -0.035975  -0.004214   0.000418
     3  C   -0.048085   0.344619   4.848580   0.359326  -0.047887   0.002727
     4  C    0.003648  -0.035975   0.359326   4.925878   0.326238  -0.047624
     5  C   -0.000234  -0.004214  -0.047887   0.326238   4.961065   0.348137
     6  C    0.000024   0.000418   0.002727  -0.047624   0.348137   4.853406
     7  C   -0.000859   0.000406   0.000213  -0.004110  -0.037828   0.341300
     8  C    0.007016  -0.001482   0.000170  -0.000855   0.011735  -0.054103
     9  C   -0.042517  -0.000540  -0.001013   0.000875  -0.010220   0.002355
    10  O    0.006199  -0.006835   0.000126   0.000312  -0.004211   0.000630
    11  C    0.320799  -0.029474   0.002778  -0.005484  -0.001428  -0.000345
    12  H    0.431428  -0.035492  -0.001513  -0.000188   0.000030  -0.000005
    13  H    0.430672  -0.037334   0.005846  -0.000442   0.000055   0.000002
    14  H   -0.019891   0.004394  -0.000395   0.000377  -0.000017  -0.000051
    15  H   -0.032468  -0.000447   0.000898  -0.005950   0.001484   0.000019
    16  H   -0.037817   0.434222  -0.037835   0.006120   0.000075   0.000001
    17  H   -0.032376   0.421012  -0.033419  -0.002197  -0.003571   0.000296
    18  H   -0.001477  -0.035900   0.428116  -0.044609   0.007279  -0.000230
    19  H    0.006553  -0.044722   0.433317  -0.038943  -0.001737  -0.000083
    20  H    0.000455  -0.002526  -0.037219   0.417772  -0.041227  -0.004255
    21  H   -0.000392   0.005473  -0.030396   0.429172  -0.031940   0.000370
    22  H   -0.000475   0.000090   0.000000   0.000013  -0.001601   0.000512
    23  H   -0.000047   0.000011   0.000001  -0.000006  -0.000655   0.006340
    24  H   -0.000021   0.000183   0.000379  -0.031782   0.421106  -0.030982
    25  H   -0.001256  -0.000522  -0.003532  -0.036291   0.419143  -0.032639
    26  H   -0.000013  -0.000012  -0.000063  -0.002262  -0.037001   0.431604
    27  H    0.000014   0.000014  -0.000212   0.006870  -0.041783   0.431239
    28  H    0.000036  -0.000020   0.000010   0.000040   0.006004  -0.036115
    29  H    0.000279   0.000153   0.000151  -0.002428  -0.001999  -0.033546
              7          8          9         10         11         12
     1  C   -0.000859   0.007016  -0.042517   0.006199   0.320799   0.431428
     2  C    0.000406  -0.001482  -0.000540  -0.006835  -0.029474  -0.035492
     3  C    0.000213   0.000170  -0.001013   0.000126   0.002778  -0.001513
     4  C   -0.004110  -0.000855   0.000875   0.000312  -0.005484  -0.000188
     5  C   -0.037828   0.011735  -0.010220  -0.004211  -0.001428   0.000030
     6  C    0.341300  -0.054103   0.002355   0.000630  -0.000345  -0.000005
     7  C    4.958877   0.315154  -0.036276   0.003971   0.007808   0.000038
     8  C    0.315154   4.963669   0.389563  -0.081297  -0.105599  -0.000144
     9  C   -0.036276   0.389563   4.548094   0.680352   0.292972   0.005951
    10  O    0.003971  -0.081297   0.680352   7.855448  -0.092719   0.000004
    11  C    0.007808  -0.105599   0.292972  -0.092719   5.113907  -0.043748
    12  H    0.000038  -0.000144   0.005951   0.000004  -0.043748   0.578149
    13  H   -0.000094   0.000436  -0.003585   0.006680  -0.032421  -0.030450
    14  H    0.000539   0.000270  -0.013579  -0.000357   0.402969  -0.003145
    15  H   -0.005041   0.004931  -0.029586   0.002944   0.413216  -0.006675
    16  H    0.000006  -0.000007   0.000171  -0.000125   0.006211  -0.004930
    17  H   -0.000094   0.001141   0.002173   0.006602  -0.008629   0.006165
    18  H    0.000054  -0.000017   0.000041  -0.000015   0.000077   0.002644
    19  H   -0.000037   0.000007  -0.000031  -0.000008  -0.000492  -0.000099
    20  H   -0.000935  -0.000381  -0.000308   0.000035  -0.005120   0.000558
    21  H    0.000018   0.000021   0.000008  -0.000004   0.000284  -0.000080
    22  H   -0.025734   0.403080  -0.042271   0.009098   0.010212   0.000021
    23  H   -0.041630   0.407681  -0.030692   0.001924   0.006746  -0.000002
    24  H    0.006024  -0.000491   0.000352   0.000073   0.000009   0.000008
    25  H   -0.004587  -0.006022   0.003837   0.004758   0.003379  -0.000049
    26  H   -0.042829   0.006046  -0.000306  -0.000010   0.000055  -0.000002
    27  H   -0.036342  -0.000983  -0.000174  -0.000089  -0.000146   0.000001
    28  H    0.431409  -0.028616   0.004441  -0.000246  -0.000534  -0.000001
    29  H    0.417794  -0.037415  -0.000239  -0.000024  -0.004526   0.000043
             13         14         15         16         17         18
     1  C    0.430672  -0.019891  -0.032468  -0.037817  -0.032376  -0.001477
     2  C   -0.037334   0.004394  -0.000447   0.434222   0.421012  -0.035900
     3  C    0.005846  -0.000395   0.000898  -0.037835  -0.033419   0.428116
     4  C   -0.000442   0.000377  -0.005950   0.006120  -0.002197  -0.044609
     5  C    0.000055  -0.000017   0.001484   0.000075  -0.003571   0.007279
     6  C    0.000002  -0.000051   0.000019   0.000001   0.000296  -0.000230
     7  C   -0.000094   0.000539  -0.005041   0.000006  -0.000094   0.000054
     8  C    0.000436   0.000270   0.004931  -0.000007   0.001141  -0.000017
     9  C   -0.003585  -0.013579  -0.029586   0.000171   0.002173   0.000041
    10  O    0.006680  -0.000357   0.002944  -0.000125   0.006602  -0.000015
    11  C   -0.032421   0.402969   0.413216   0.006211  -0.008629   0.000077
    12  H   -0.030450  -0.003145  -0.006675  -0.004930   0.006165   0.002644
    13  H    0.556768  -0.007674   0.006874  -0.007181  -0.003220  -0.000100
    14  H   -0.007674   0.531012  -0.031806  -0.000197   0.000074  -0.000053
    15  H    0.006874  -0.031806   0.577260  -0.000362   0.000198   0.000450
    16  H   -0.007181  -0.000197  -0.000362   0.567930  -0.030943  -0.005334
    17  H   -0.003220   0.000074   0.000198  -0.030943   0.556502   0.005832
    18  H   -0.000100  -0.000053   0.000450  -0.005334   0.005832   0.586799
    19  H   -0.000267   0.000028  -0.000094  -0.007255  -0.003724  -0.030391
    20  H   -0.000145   0.000744  -0.009125  -0.000301   0.000390  -0.006489
    21  H    0.000029  -0.000008   0.000599  -0.000218  -0.000340  -0.004763
    22  H   -0.000034  -0.000335  -0.000433  -0.000001  -0.000024   0.000001
    23  H   -0.000048  -0.001218  -0.000054   0.000001  -0.000043  -0.000001
    24  H   -0.000003  -0.000002  -0.000049  -0.000036   0.000710  -0.000213
    25  H   -0.000125   0.000142  -0.000912   0.000210  -0.007224  -0.000164
    26  H    0.000000   0.000004  -0.000027   0.000001  -0.000054  -0.000007
    27  H   -0.000001   0.000006  -0.000028  -0.000002   0.000052   0.000018
    28  H    0.000003  -0.000016   0.000428   0.000000   0.000012  -0.000002
    29  H   -0.000026   0.000288  -0.002452   0.000000   0.000012   0.000038
             19         20         21         22         23         24
     1  C    0.006553   0.000455  -0.000392  -0.000475  -0.000047  -0.000021
     2  C   -0.044722  -0.002526   0.005473   0.000090   0.000011   0.000183
     3  C    0.433317  -0.037219  -0.030396   0.000000   0.000001   0.000379
     4  C   -0.038943   0.417772   0.429172   0.000013  -0.000006  -0.031782
     5  C   -0.001737  -0.041227  -0.031940  -0.001601  -0.000655   0.421106
     6  C   -0.000083  -0.004255   0.000370   0.000512   0.006340  -0.030982
     7  C   -0.000037  -0.000935   0.000018  -0.025734  -0.041630   0.006024
     8  C    0.000007  -0.000381   0.000021   0.403080   0.407681  -0.000491
     9  C   -0.000031  -0.000308   0.000008  -0.042271  -0.030692   0.000352
    10  O   -0.000008   0.000035  -0.000004   0.009098   0.001924   0.000073
    11  C   -0.000492  -0.005120   0.000284   0.010212   0.006746   0.000009
    12  H   -0.000099   0.000558  -0.000080   0.000021  -0.000002   0.000008
    13  H   -0.000267  -0.000145   0.000029  -0.000034  -0.000048  -0.000003
    14  H    0.000028   0.000744  -0.000008  -0.000335  -0.001218  -0.000002
    15  H   -0.000094  -0.009125   0.000599  -0.000433  -0.000054  -0.000049
    16  H   -0.007255  -0.000301  -0.000218  -0.000001   0.000001  -0.000036
    17  H   -0.003724   0.000390  -0.000340  -0.000024  -0.000043   0.000710
    18  H   -0.030391  -0.006489  -0.004763   0.000001  -0.000001  -0.000213
    19  H    0.584198   0.007657  -0.006923  -0.000002   0.000000   0.001500
    20  H    0.007657   0.624896  -0.037258  -0.000056   0.000049   0.006594
    21  H   -0.006923  -0.037258   0.561328   0.000004   0.000002  -0.009643
    22  H   -0.000002  -0.000056   0.000004   0.538758  -0.019463  -0.000072
    23  H    0.000000   0.000049   0.000002  -0.019463   0.567994   0.000023
    24  H    0.001500   0.006594  -0.009643  -0.000072   0.000023   0.563532
    25  H    0.000625   0.000675   0.005346   0.001275   0.000610  -0.032663
    26  H    0.000016   0.000713   0.001616  -0.000028  -0.000214  -0.005003
    27  H    0.000000  -0.000206  -0.000193   0.001753  -0.000222  -0.006256
    28  H    0.000001   0.000067  -0.000019  -0.005145  -0.008714  -0.000216
    29  H   -0.000030  -0.005815   0.000556   0.005258  -0.003674  -0.000382
             25         26         27         28         29
     1  C   -0.001256  -0.000013   0.000014   0.000036   0.000279
     2  C   -0.000522  -0.000012   0.000014  -0.000020   0.000153
     3  C   -0.003532  -0.000063  -0.000212   0.000010   0.000151
     4  C   -0.036291  -0.002262   0.006870   0.000040  -0.002428
     5  C    0.419143  -0.037001  -0.041783   0.006004  -0.001999
     6  C   -0.032639   0.431604   0.431239  -0.036115  -0.033546
     7  C   -0.004587  -0.042829  -0.036342   0.431409   0.417794
     8  C   -0.006022   0.006046  -0.000983  -0.028616  -0.037415
     9  C    0.003837  -0.000306  -0.000174   0.004441  -0.000239
    10  O    0.004758  -0.000010  -0.000089  -0.000246  -0.000024
    11  C    0.003379   0.000055  -0.000146  -0.000534  -0.004526
    12  H   -0.000049  -0.000002   0.000001  -0.000001   0.000043
    13  H   -0.000125   0.000000  -0.000001   0.000003  -0.000026
    14  H    0.000142   0.000004   0.000006  -0.000016   0.000288
    15  H   -0.000912  -0.000027  -0.000028   0.000428  -0.002452
    16  H    0.000210   0.000001  -0.000002   0.000000   0.000000
    17  H   -0.007224  -0.000054   0.000052   0.000012   0.000012
    18  H   -0.000164  -0.000007   0.000018  -0.000002   0.000038
    19  H    0.000625   0.000016   0.000000   0.000001  -0.000030
    20  H    0.000675   0.000713  -0.000206   0.000067  -0.005815
    21  H    0.005346   0.001616  -0.000193  -0.000019   0.000556
    22  H    0.001275  -0.000028   0.001753  -0.005145   0.005258
    23  H    0.000610  -0.000214  -0.000222  -0.008714  -0.003674
    24  H   -0.032663  -0.005003  -0.006256  -0.000216  -0.000382
    25  H    0.570851   0.006135  -0.003985  -0.000426   0.000747
    26  H    0.006135   0.579236  -0.029294  -0.005514  -0.004464
    27  H   -0.003985  -0.029294   0.571921  -0.005519   0.006440
    28  H   -0.000426  -0.005514  -0.005519   0.552646  -0.031689
    29  H    0.000747  -0.004464   0.006440  -0.031689   0.592803
 Mulliken atomic charges:
              1
     1  C   -0.166924
     2  C   -0.243788
     3  C   -0.185688
     4  C   -0.217492
     5  C   -0.234797
     6  C   -0.179403
     7  C   -0.247212
     8  C   -0.193506
     9  C    0.280154
    10  O   -0.393216
    11  C   -0.250757
    12  H    0.101481
    13  H    0.115786
    14  H    0.137896
    15  H    0.116210
    16  H    0.117598
    17  H    0.124686
    18  H    0.098416
    19  H    0.100936
    20  H    0.090762
    21  H    0.117349
    22  H    0.125601
    23  H    0.115299
    24  H    0.117320
    25  H    0.112663
    26  H    0.101677
    27  H    0.107108
    28  H    0.127697
    29  H    0.104145
 Sum of Mulliken atomic charges =   0.00000
 Mulliken charges with hydrogens summed into heavy atoms:
              1
     1  C    0.050342
     2  C   -0.001504
     3  C    0.013663
     4  C   -0.009380
     5  C   -0.004815
     6  C    0.029382
     7  C   -0.015370
     8  C    0.047394
     9  C    0.280154
    10  O   -0.393216
    11  C    0.003349
 Sum of Mulliken charges with hydrogens summed into heavy atoms =   0.00000
 Electronic spatial extent (au):  <R**2>=           1848.2891
 Charge=              0.0000 electrons
 Dipole moment (field-independent basis, Debye):
    X=             -0.7537    Y=              1.4303    Z=             -2.5962  Tot=              3.0585
 Quadrupole moment (field-independent basis, Debye-Ang):
   XX=            -67.7470   YY=            -74.1978   ZZ=            -73.3846
   XY=              0.5176   XZ=              0.2461   YZ=              6.3864
 Traceless Quadrupole moment (field-independent basis, Debye-Ang):
   XX=              4.0295   YY=             -2.4213   ZZ=             -1.6081
   XY=              0.5176   XZ=              0.2461   YZ=              6.3864
 Octapole moment (field-independent basis, Debye-Ang**2):
  XXX=             -5.6321  YYY=              1.3517  ZZZ=             -1.0490  XYY=             -1.4518
  XXY=             -6.6552  XXZ=              1.9350  XZZ=             -0.0460  YZZ=              4.3802
  YYZ=            -11.5512  XYZ=             -0.7502
 Hexadecapole moment (field-independent basis, Debye-Ang**3):
 XXXX=          -1224.2179 YYYY=           -981.1737 ZZZZ=           -319.9961 XXXY=              4.0326
 XXXZ=              0.5509 YYYX=             -0.3769 YYYZ=             25.5460 ZZZX=             -2.9588
 ZZZY=              3.8851 XXYY=           -368.5890 XXZZ=           -256.3615 YYZZ=           -227.9174
 XXYZ=             -3.0631 YYXZ=              4.7251 ZZXY=              0.2320
 N-N= 6.696101167194D+02 E-N=-2.421785559788D+03  KE= 4.633580531748D+02
 1\1\GINC-ROCK\SP\RMP2-FC\CC-pVTZ\C10H18O1\STYLIANAKIS\04-Mar-2016\0\\#
  mp2/cc-pVTZ\\3_keto_cyclodecanone_single_point\\0,1\C\C,1,1.542738\C,
 2,1.54321,1,118.593\C,3,1.542952,2,117.398,1,64.783,0\C,4,1.541864,3,1
 14.948,2,54.667,0\C,5,1.539623,4,114.851,3,-156.893,0\C,6,1.542064,5,1
 16.083,4,62.484,0\C,7,1.545648,6,116.193,5,60.515,0\C,8,1.528886,7,118
 .693,6,-69.208,0\O,9,1.22189,8,120.405,7,132.857,0\C,1,1.544106,2,117.
 955,3,-66.334,0\H,1,1.098561,11,107.508,9,-176.926,0\H,1,1.095344,11,1
 07.829,9,68.666,0\H,11,1.101117,1,108.361,2,-170.258,0\H,11,1.09163,1,
 111.638,2,74.242,0\H,2,1.098079,1,106.474,11,173.316,0\H,2,1.094987,1,
 108.753,11,60.549,0\H,3,1.099342,2,109.065,1,-58.782,0\H,3,1.099272,2,
 107.204,1,-172.855,0\H,4,1.094039,3,108.941,2,-69.362,0\H,4,1.098402,3
 ,108.415,2,176.879,0\H,8,1.095237,9,106.636,11,-177.408,0\H,8,1.101198
 ,9,105.598,11,69.193,0\H,5,1.098033,4,109.024,3,81.012,0\H,5,1.0945,4,
 110.415,3,-33.845,0\H,6,1.099092,5,109.478,4,-59.909,0\H,6,1.098523,5,
 108.411,4,-175.18,0\H,7,1.097149,8,106.969,9,170.447,0\H,7,1.096158,8,
 109.856,9,56.812,0\\Version=EM64L-G09RevA.01\State=1-A\HF=-464.1785899
 \MP2=-466.1290108\RMSD=3.651e-09\PG=C01 [X(C10H18O1)]\\@


 A MAN SHOULD NEVER BE ASHAMED TO OWN HE HAS BEEN IN THE WRONG
 WHICH IS BUT SAYING IN OTHER WORDS,
 THAT HE IS WISER TODAY THAN HE WAS YESTERDAY.

                          -- JONATHAN SWIFT
 Job cpu time:  0 days  9 hours 22 minutes  1.3 seconds.
 File lengths (MBytes):  RWF=    182 Int=      0 D2E=      0 Chk=     15 Scr=      1
 Normal termination of Gaussian 09 at Fri Mar  4 00:45:31 2016.
