 Entering Gaussian System, Link 0=g09
 Input=4_Me_THP_eq.gjf
 Output=4_Me_THP_eq.out
 Initial command:
 /usr/local/g09/l1.exe /home/scratch/stylianakis/Gau-22066.inp -scrdir=/home/scratch/stylianakis/
 Entering Link 1 = /usr/local/g09/l1.exe PID=     22067.
  
 Copyright (c) 1988,1990,1992,1993,1995,1998,2003,2009, Gaussian, Inc.
                  All Rights Reserved.
  
 This is part of the Gaussian(R) 09 program.  It is based on
 the Gaussian(R) 03 system (copyright 2003, Gaussian, Inc.),
 the Gaussian(R) 98 system (copyright 1998, Gaussian, Inc.),
 the Gaussian(R) 94 system (copyright 1995, Gaussian, Inc.),
 the Gaussian 92(TM) system (copyright 1992, Gaussian, Inc.),
 the Gaussian 90(TM) system (copyright 1990, Gaussian, Inc.),
 the Gaussian 88(TM) system (copyright 1988, Gaussian, Inc.),
 the Gaussian 86(TM) system (copyright 1986, Carnegie Mellon
 University), and the Gaussian 82(TM) system (copyright 1983,
 Carnegie Mellon University). Gaussian is a federally registered
 trademark of Gaussian, Inc.
  
 This software contains proprietary and confidential information,
 including trade secrets, belonging to Gaussian, Inc.
  
 This software is provided under written license and may be
 used, copied, transmitted, or stored only in accord with that
 written license.
  
 The following legend is applicable only to US Government
 contracts under FAR:
  
                    RESTRICTED RIGHTS LEGEND
  
 Use, reproduction and disclosure by the US Government is
 subject to restrictions as set forth in subparagraphs (a)
 and (c) of the Commercial Computer Software - Restricted
 Rights clause in FAR 52.227-19.
  
 Gaussian, Inc.
 340 Quinnipiac St., Bldg. 40, Wallingford CT 06492
  
  
 ---------------------------------------------------------------
 Warning -- This program may not be used in any manner that
 competes with the business of Gaussian, Inc. or will provide
 assistance to any competitor of Gaussian, Inc.  The licensee
 of this program is prohibited from giving any competitor of
 Gaussian, Inc. access to this program.  By using this program,
 the user acknowledges that Gaussian, Inc. is engaged in the
 business of creating and licensing software in the field of
 computational chemistry and represents and warrants to the
 licensee that it is not a competitor of Gaussian, Inc. and that
 it will not use this program in any manner prohibited above.
 ---------------------------------------------------------------
  

 Cite this work as:
 Gaussian 09, Revision A.01,
 M. J. Frisch, G. W. Trucks, H. B. Schlegel, G. E. Scuseria, 
 M. A. Robb, J. R. Cheeseman, G. Scalmani, V. Barone, B. Mennucci, 
 G. A. Petersson, H. Nakatsuji, M. Caricato, X. Li, H. P. Hratchian, 
 A. F. Izmaylov, J. Bloino, G. Zheng, J. L. Sonnenberg, M. Hada, 
 M. Ehara, K. Toyota, R. Fukuda, J. Hasegawa, M. Ishida, T. Nakajima, 
 Y. Honda, O. Kitao, H. Nakai, T. Vreven, J. A. Montgomery, Jr., 
 J. E. Peralta, F. Ogliaro, M. Bearpark, J. J. Heyd, E. Brothers, 
 K. N. Kudin, V. N. Staroverov, R. Kobayashi, J. Normand, 
 K. Raghavachari, A. Rendell, J. C. Burant, S. S. Iyengar, J. Tomasi, 
 M. Cossi, N. Rega, J. M. Millam, M. Klene, J. E. Knox, J. B. Cross, 
 V. Bakken, C. Adamo, J. Jaramillo, R. Gomperts, R. E. Stratmann, 
 O. Yazyev, A. J. Austin, R. Cammi, C. Pomelli, J. W. Ochterski, 
 R. L. Martin, K. Morokuma, V. G. Zakrzewski, G. A. Voth, 
 P. Salvador, J. J. Dannenberg, S. Dapprich, A. D. Daniels, 
 O. Farkas, J. B. Foresman, J. V. Ortiz, J. Cioslowski, 
 and D. J. Fox, Gaussian, Inc., Wallingford CT, 2009.
 
 ******************************************
 Gaussian 09:  EM64L-G09RevA.01  8-May-2009
                 4-Mar-2016 
 ******************************************
 %mem=8000Mb
 %nproc=8
 Will use up to    8 processors via shared memory.
 -------------
 # mp2/cc-pVTZ
 -------------
 1/38=1/1;
 2/12=2,17=6,18=5,40=1/2;
 3/5=16,6=1,11=9,16=1,25=1,30=1/1,2,3;
 4//1;
 5/5=2,38=5/2;
 8/10=1/1;
 9/16=-3/6;
 6/7=2,8=2,9=2,10=2/1;
 99/5=1,9=1/99;
 ------------------------
 4_Me_THP_eq_single_point
 ------------------------
 Symbolic Z-matrix:
 Charge =  0 Multiplicity = 1
 c
 o                    1    oc2
 c                    2    co3      1    coc3
 c                    3    cc4      2    cco4     1    dih4     0
 c                    4    cc5      3    ccc5     2    dih5     0
 c                    5    cc6      4    ccc6     3    dih6     0
 c                    5    cc7      4    ccc7     3    dih7     0
 h                    7    hc8      5    hcc8     4    dih8     0
 h                    7    hc9      5    hcc9     4    dih9     0
 h                    7    hc10     5    hcc10    4    dih10    0
 h                    3    hc11     4    hcc11    5    dih11    0
 h                    3    hc12     4    hcc12    5    dih12    0
 h                    4    hc13     3    hcc13    2    dih13    0
 h                    4    hc14     3    hcc14    2    dih14    0
 h                    5    hc15     4    hcc15    3    dih15    0
 h                    6    hc16     5    hcc16    7    dih16    0
 h                    1    hc17     2    hco17    3    dih17    0
 h                    1    hc18     2    hco18    3    dih18    0
 h                    6    hc19     5    hcc19    7    dih19    0
       Variables:
  oc2                   1.42579                  
  co3                   1.42577                  
  coc3                112.151                    
  cc4                   1.53089                  
  cco4                111.842                    
  dih4                -59.485                    
  cc5                   1.53966                  
  ccc5                111.138                    
  dih5                 55.756                    
  cc6                   1.53967                  
  ccc6                108.942                    
  dih6                -51.264                    
  cc7                   1.53222                  
  ccc7                112.273                    
  dih7               -176.264                    
  hc8                   1.09625                  
  hcc8                111.238                    
  dih8               -178.542                    
  hc9                   1.09701                  
  hcc9                110.941                    
  dih9                 61.574                    
  hc10                  1.09625                  
  hcc10               111.238                    
  dih10               -58.308                    
  hc11                  1.10453                  
  hcc11               110.019                    
  dih11               -66.043                    
  hc12                  1.09366                  
  hcc12               111.484                    
  dih12               174.143                    
  hc13                  1.0988                   
  hcc13               108.896                    
  dih13               -64.889                    
  hc14                  1.09824                  
  hcc14               109.499                    
  dih14               178.171                    
  hc15                  1.10207                  
  hcc15               107.558                    
  dih15                65.039                    
  hc16                  1.09879                  
  hcc16               109.452                    
  dih16                55.948                    
  hc17                  1.09366                  
  hco17               105.923                    
  dih17              -178.868                    
  hc18                  1.10452                  
  hco18               109.401                    
  dih18               -62.668                    
  hc19                  1.09824                  
  hcc19               110.543                    
  dih19               -61.927                    
 
                          Input orientation:                          
 ---------------------------------------------------------------------
 Center     Atomic      Atomic             Coordinates (Angstroms)
 Number     Number       Type             X           Y           Z
 ---------------------------------------------------------------------
      1          6           0        0.000000    0.000000    0.000000
      2          8           0        0.000000    0.000000    1.425792
      3          6           0        1.320542    0.000000    1.963378
      4          6           0        2.120119   -1.224178    1.509857
      5          6           0        2.158553   -1.324399   -0.026052
      6          6           0        0.721499   -1.224172   -0.569562
      7          6           0        2.874587   -2.590504   -0.507676
      8          1           0        2.914789   -2.631908   -1.602407
      9          1           0        2.355319   -3.491513   -0.158423
     10          1           0        3.903675   -2.631942   -0.132136
     11          1           0        1.840739    0.925498    1.658690
     12          1           0        1.202007    0.020768    3.050392
     13          1           0        1.652355   -2.128111    1.923944
     14          1           0        3.138171   -1.168891    1.918074
     15          1           0        2.717839   -0.452476   -0.402224
     16          1           0        0.161606   -2.128095   -0.292456
     17          1           0       -1.051490    0.020777   -0.300040
     18          1           0        0.478337    0.925492   -0.366895
     19          1           0        0.727288   -1.168890   -1.666397
 ---------------------------------------------------------------------
                    Distance matrix (angstroms):
                    1          2          3          4          5
     1  C    0.000000
     2  O    1.425792   0.000000
     3  C    2.366154   1.425773   0.000000
     4  C    2.876315   2.449609   1.530888   0.000000
     5  C    2.532600   2.919115   2.532612   1.539655   0.000000
     6  C    1.530869   2.449612   2.876323   2.506018   1.539666
     7  C    3.902780   4.325767   3.902804   2.550786   1.532217
     8  H    4.241538   4.959125   4.709924   3.507049   2.183202
     9  H    4.214652   4.499770   4.214673   2.824763   2.180052
    10  H    4.709910   4.959126   4.241565   2.803393   2.183202
    11  H    2.645018   2.073429   1.104530   2.172858   2.828673
    12  H    3.278741   2.021034   1.093655   2.183133   3.491269
    13  H    3.310694   2.739944   2.154185   1.098802   2.169026
    14  H    3.859201   3.384784   2.161512   1.098238   2.182535
    15  H    2.784451   3.306513   2.784466   2.146823   1.102069
    16  H    2.154167   2.739942   3.310696   2.810903   2.169031
    17  H    1.093657   2.021029   3.278723   3.858075   3.491266
    18  H    1.104515   2.073420   2.644999   3.292223   2.828658
    19  H    2.161511   3.384802   3.859212   3.468663   2.182529
                    6          7          8          9         10
     6  C    0.000000
     7  C    2.550780   0.000000
     8  H    2.803392   1.096251   0.000000
     9  H    2.824755   1.097012   1.771163   0.000000
    10  H    3.507049   1.096252   1.771889   1.771146   0.000000
    11  H    3.292246   4.257258   4.944034   4.803819   4.485324
    12  H    3.858087   4.719758   5.623064   4.895175   4.946146
    13  H    2.810903   2.760513   3.779246   2.586363   3.090267
    14  H    3.468673   2.823956   3.818914   3.212362   2.632466
    15  H    2.146832   2.146358   2.495827   3.070278   2.495842
    16  H    1.098793   2.760509   3.090277   2.586359   3.779239
    17  H    2.183124   4.719743   4.946136   4.895160   5.623056
    18  H    2.172845   4.257236   4.485296   4.803797   4.944025
    19  H    1.098242   2.823918   2.632427   3.212328   3.818888
                   11         12         13         14         15
    11  H    0.000000
    12  H    1.778581   0.000000
    13  H    3.070891   2.467667   0.000000
    14  H    2.477311   2.538929   1.768555   0.000000
    15  H    2.629730   3.800298   3.058442   2.464490   0.000000
    16  H    3.993857   4.107880   2.671098   3.829681   3.058443
    17  H    3.608342   4.037776   4.107871   4.887596   3.800296
    18  H    2.441134   3.608334   3.993840   4.084390   2.629717
    19  H    4.084414   4.887611   3.829674   4.319813   2.464482
                   16         17         18         19
    16  H    0.000000
    17  H    2.467653   0.000000
    18  H    3.070872   1.778580   0.000000
    19  H    1.768554   2.538955   2.477321   0.000000
 Stoichiometry    C6H12O
 Framework group  C1[X(C6H12O)]
 Deg. of freedom    51
 Full point group                 C1      NOp   1
 Largest Abelian subgroup         C1      NOp   1
 Largest concise Abelian subgroup C1      NOp   1
                         Standard orientation:                         
 ---------------------------------------------------------------------
 Center     Atomic      Atomic             Coordinates (Angstroms)
 Number     Number       Type             X           Y           Z
 ---------------------------------------------------------------------
      1          6           0       -1.229336    1.183086    0.176150
      2          8           0       -1.835804    0.000008   -0.339026
      3          6           0       -1.229371   -1.183068    0.176143
      4          6           0        0.261742   -1.253010   -0.163429
      5          6           0        1.004238   -0.000011    0.335801
      6          6           0        0.261755    1.253008   -0.163433
      7          6           0        2.481617   -0.000007   -0.070451
      8          1           0        2.999496    0.885930    0.315145
      9          1           0        2.588014   -0.000006   -1.162291
     10          1           0        2.999493   -0.885960    0.315115
     11          1           0       -1.369990   -1.220566    1.271043
     12          1           0       -1.780144   -2.018883   -0.264474
     13          1           0        0.375024   -1.335550   -1.253255
     14          1           0        0.696116   -2.159917    0.278119
     15          1           0        0.953431   -0.000010    1.436698
     16          1           0        0.375035    1.335548   -1.253250
     17          1           0       -1.780116    2.018893   -0.264478
     18          1           0       -1.369964    1.220568    1.271034
     19          1           0        0.696170    2.159897    0.278124
 ---------------------------------------------------------------------
 Rotational constants (GHZ):      4.5114039      2.1995859      1.6204139
 Standard basis: CC-pVTZ (5D, 7F)
 There are   378 symmetry adapted basis functions of A   symmetry.
 Integral buffers will be    131072 words long.
 Raffenetti 1 integral format.
 Two-electron integral symmetry is turned on.
   378 basis functions,   568 primitive gaussians,   425 cartesian basis functions
    28 alpha electrons       28 beta electrons
       nuclear repulsion energy       331.7838368862 Hartrees.
 NAtoms=   19 NActive=   19 NUniq=   19 SFac= 7.50D-01 NAtFMM=   80 NAOKFM=F Big=F
 One-electron integrals computed using PRISM.
 NBasis=   378 RedAO= T  NBF=   378
 NBsUse=   378 1.00D-06 NBFU=   378
 Harris functional with IExCor=  205 diagonalized for initial guess.
 ExpMin= 1.03D-01 ExpMax= 1.53D+04 ExpMxC= 5.22D+02 IAcc=1 IRadAn=         1 AccDes= 0.00D+00
 HarFok:  IExCor=  205 AccDes= 0.00D+00 IRadAn=         1 IDoV= 1
 ScaDFX=  1.000000  1.000000  1.000000  1.000000
 FoFCou: FMM=F IPFlag=           0 FMFlag=      100000 FMFlg1=           0
         NFxFlg=           0 DoJE=T BraDBF=F KetDBF=T FulRan=T
         Omega=  0.000000  0.000000  1.000000  0.000000  0.000000 ICntrl=     500 IOpCl=  0
         NMat0=    1 NMatS0=    1 NMatT0=    0 NMatD0=    1 NMtDS0=    0 NMtDT0=    0
         I1Cent=           4 NGrid=           0.
 Petite list used in FoFCou.
 Initial guess orbital symmetries:
       Occupied  (A) (A) (A) (A) (A) (A) (A) (A) (A) (A) (A) (A)
                 (A) (A) (A) (A) (A) (A) (A) (A) (A) (A) (A) (A)
                 (A) (A) (A) (A)
       Virtual   (A) (A) (A) (A) (A) (A) (A) (A) (A) (A) (A) (A)
                 (A) (A) (A) (A) (A) (A) (A) (A) (A) (A) (A) (A)
                 (A) (A) (A) (A) (A) (A) (A) (A) (A) (A) (A) (A)
                 (A) (A) (A) (A) (A) (A) (A) (A) (A) (A) (A) (A)
                 (A) (A) (A) (A) (A) (A) (A) (A) (A) (A) (A) (A)
                 (A) (A) (A) (A) (A) (A) (A) (A) (A) (A) (A) (A)
                 (A) (A) (A) (A) (A) (A) (A) (A) (A) (A) (A) (A)
                 (A) (A) (A) (A) (A) (A) (A) (A) (A) (A) (A) (A)
                 (A) (A) (A) (A) (A) (A) (A) (A) (A) (A) (A) (A)
                 (A) (A) (A) (A) (A) (A) (A) (A) (A) (A) (A) (A)
                 (A) (A) (A) (A) (A) (A) (A) (A) (A) (A) (A) (A)
                 (A) (A) (A) (A) (A) (A) (A) (A) (A) (A) (A) (A)
                 (A) (A) (A) (A) (A) (A) (A) (A) (A) (A) (A) (A)
                 (A) (A) (A) (A) (A) (A) (A) (A) (A) (A) (A) (A)
                 (A) (A) (A) (A) (A) (A) (A) (A) (A) (A) (A) (A)
                 (A) (A) (A) (A) (A) (A) (A) (A) (A) (A) (A) (A)
                 (A) (A) (A) (A) (A) (A) (A) (A) (A) (A) (A) (A)
                 (A) (A) (A) (A) (A) (A) (A) (A) (A) (A) (A) (A)
                 (A) (A) (A) (A) (A) (A) (A) (A) (A) (A) (A) (A)
                 (A) (A) (A) (A) (A) (A) (A) (A) (A) (A) (A) (A)
                 (A) (A) (A) (A) (A) (A) (A) (A) (A) (A) (A) (A)
                 (A) (A) (A) (A) (A) (A) (A) (A) (A) (A) (A) (A)
                 (A) (A) (A) (A) (A) (A) (A) (A) (A) (A) (A) (A)
                 (A) (A) (A) (A) (A) (A) (A) (A) (A) (A) (A) (A)
                 (A) (A) (A) (A) (A) (A) (A) (A) (A) (A) (A) (A)
                 (A) (A) (A) (A) (A) (A) (A) (A) (A) (A) (A) (A)
                 (A) (A) (A) (A) (A) (A) (A) (A) (A) (A) (A) (A)
                 (A) (A) (A) (A) (A) (A) (A) (A) (A) (A) (A) (A)
                 (A) (A) (A) (A) (A) (A) (A) (A) (A) (A) (A) (A)
                 (A) (A)
 The electronic state of the initial guess is 1-A.
 Requested convergence on RMS density matrix=1.00D-08 within 128 cycles.
 Requested convergence on MAX density matrix=1.00D-06.
 Requested convergence on             energy=1.00D-06.
 No special actions if energy rises.
 Integral accuracy reduced to 1.0D-05 until final iterations.
 Initial convergence to 1.0D-05 achieved.  Increase integral accuracy.
 SCF Done:  E(RHF) =  -309.160811537     A.U. after   11 cycles
             Convg  =    0.6848D-08             -V/T =  2.0018
 ExpMin= 1.03D-01 ExpMax= 1.53D+04 ExpMxC= 5.22D+02 IAcc=1 IRadAn=         1 AccDes= 0.00D+00
 HarFok:  IExCor=  205 AccDes= 0.00D+00 IRadAn=         1 IDoV=-2
 ScaDFX=  1.000000  1.000000  1.000000  1.000000
 Range of M.O.s used for correlation:     8   378
 NBasis=   378 NAE=    28 NBE=    28 NFC=     7 NFV=     0
 NROrb=    371 NOA=    21 NOB=    21 NVA=   350 NVB=   350

 **** Warning!!: The largest alpha MO coefficient is  0.11926703D+02

 Fully direct method using O(OVN) memory.
 JobTyp=1 Pass  1:  I=   1 to  21 NPSUse=  8 ParTrn=T ParDer=T DoDerP=F.
 Spin components of T(2) and E(2):
     alpha-alpha T2 =       0.4681182495D-01 E2=     -0.1482006020D+00
     alpha-beta  T2 =       0.2830992849D+00 E2=     -0.9771938515D+00
     beta-beta   T2 =       0.4681182495D-01 E2=     -0.1482006020D+00
 ANorm=    0.1173338372D+01
 E2 =    -0.1273595056D+01 EUMP2 =    -0.31043440659292D+03

 **********************************************************************

            Population analysis using the SCF density.

 **********************************************************************

 Orbital symmetries:
       Occupied  (A) (A) (A) (A) (A) (A) (A) (A) (A) (A) (A) (A)
                 (A) (A) (A) (A) (A) (A) (A) (A) (A) (A) (A) (A)
                 (A) (A) (A) (A)
       Virtual   (A) (A) (A) (A) (A) (A) (A) (A) (A) (A) (A) (A)
                 (A) (A) (A) (A) (A) (A) (A) (A) (A) (A) (A) (A)
                 (A) (A) (A) (A) (A) (A) (A) (A) (A) (A) (A) (A)
                 (A) (A) (A) (A) (A) (A) (A) (A) (A) (A) (A) (A)
                 (A) (A) (A) (A) (A) (A) (A) (A) (A) (A) (A) (A)
                 (A) (A) (A) (A) (A) (A) (A) (A) (A) (A) (A) (A)
                 (A) (A) (A) (A) (A) (A) (A) (A) (A) (A) (A) (A)
                 (A) (A) (A) (A) (A) (A) (A) (A) (A) (A) (A) (A)
                 (A) (A) (A) (A) (A) (A) (A) (A) (A) (A) (A) (A)
                 (A) (A) (A) (A) (A) (A) (A) (A) (A) (A) (A) (A)
                 (A) (A) (A) (A) (A) (A) (A) (A) (A) (A) (A) (A)
                 (A) (A) (A) (A) (A) (A) (A) (A) (A) (A) (A) (A)
                 (A) (A) (A) (A) (A) (A) (A) (A) (A) (A) (A) (A)
                 (A) (A) (A) (A) (A) (A) (A) (A) (A) (A) (A) (A)
                 (A) (A) (A) (A) (A) (A) (A) (A) (A) (A) (A) (A)
                 (A) (A) (A) (A) (A) (A) (A) (A) (A) (A) (A) (A)
                 (A) (A) (A) (A) (A) (A) (A) (A) (A) (A) (A) (A)
                 (A) (A) (A) (A) (A) (A) (A) (A) (A) (A) (A) (A)
                 (A) (A) (A) (A) (A) (A) (A) (A) (A) (A) (A) (A)
                 (A) (A) (A) (A) (A) (A) (A) (A) (A) (A) (A) (A)
                 (A) (A) (A) (A) (A) (A) (A) (A) (A) (A) (A) (A)
                 (A) (A) (A) (A) (A) (A) (A) (A) (A) (A) (A) (A)
                 (A) (A) (A) (A) (A) (A) (A) (A) (A) (A) (A) (A)
                 (A) (A) (A) (A) (A) (A) (A) (A) (A) (A) (A) (A)
                 (A) (A) (A) (A) (A) (A) (A) (A) (A) (A) (A) (A)
                 (A) (A) (A) (A) (A) (A) (A) (A) (A) (A) (A) (A)
                 (A) (A) (A) (A) (A) (A) (A) (A) (A) (A) (A) (A)
                 (A) (A) (A) (A) (A) (A) (A) (A) (A) (A) (A) (A)
                 (A) (A) (A) (A) (A) (A) (A) (A) (A) (A) (A) (A)
                 (A) (A)
 The electronic state is 1-A.
 Alpha  occ. eigenvalues --  -20.54532 -11.26942 -11.26940 -11.23043 -11.21974
 Alpha  occ. eigenvalues --  -11.21972 -11.21558  -1.36242  -1.09219  -1.02070
 Alpha  occ. eigenvalues --   -0.95475  -0.85816  -0.83280  -0.76251  -0.66131
 Alpha  occ. eigenvalues --   -0.63216  -0.62415  -0.61917  -0.59327  -0.54414
 Alpha  occ. eigenvalues --   -0.53933  -0.52082  -0.51518  -0.49432  -0.46748
 Alpha  occ. eigenvalues --   -0.44460  -0.44180  -0.40196
 Alpha virt. eigenvalues --    0.14128   0.15595   0.16293   0.16660   0.20375
 Alpha virt. eigenvalues --    0.20605   0.21430   0.22270   0.23065   0.23787
 Alpha virt. eigenvalues --    0.24950   0.26009   0.26772   0.30833   0.32222
 Alpha virt. eigenvalues --    0.33160   0.36471   0.36943   0.36995   0.42015
 Alpha virt. eigenvalues --    0.42090   0.45543   0.45651   0.47929   0.49146
 Alpha virt. eigenvalues --    0.51026   0.52448   0.55352   0.55670   0.56440
 Alpha virt. eigenvalues --    0.57152   0.58498   0.59405   0.60872   0.61801
 Alpha virt. eigenvalues --    0.63077   0.63818   0.63899   0.64480   0.64764
 Alpha virt. eigenvalues --    0.66250   0.67076   0.67269   0.68118   0.68653
 Alpha virt. eigenvalues --    0.69316   0.71856   0.72409   0.77296   0.79830
 Alpha virt. eigenvalues --    0.80244   0.84100   0.86224   0.90553   0.90824
 Alpha virt. eigenvalues --    0.92245   0.96530   0.97946   0.99712   0.99875
 Alpha virt. eigenvalues --    1.02898   1.04150   1.05659   1.06525   1.07497
 Alpha virt. eigenvalues --    1.09129   1.10976   1.12993   1.13642   1.16671
 Alpha virt. eigenvalues --    1.18489   1.20582   1.21901   1.24169   1.24701
 Alpha virt. eigenvalues --    1.25922   1.27019   1.28507   1.28731   1.29537
 Alpha virt. eigenvalues --    1.31712   1.33062   1.33951   1.34416   1.36492
 Alpha virt. eigenvalues --    1.38314   1.38753   1.39245   1.40463   1.42324
 Alpha virt. eigenvalues --    1.44501   1.45571   1.46791   1.48783   1.50001
 Alpha virt. eigenvalues --    1.50056   1.51975   1.52371   1.55021   1.56410
 Alpha virt. eigenvalues --    1.57317   1.57824   1.61002   1.61297   1.64301
 Alpha virt. eigenvalues --    1.65137   1.65884   1.66756   1.68678   1.68937
 Alpha virt. eigenvalues --    1.72836   1.73470   1.76152   1.77423   1.79659
 Alpha virt. eigenvalues --    1.81114   1.83660   1.85335   1.86608   1.88844
 Alpha virt. eigenvalues --    1.93104   1.93462   1.97402   1.99928   2.11632
 Alpha virt. eigenvalues --    2.23680   2.34554   2.35471   2.48125   2.49520
 Alpha virt. eigenvalues --    2.54808   2.59398   2.62371   2.63817   2.66855
 Alpha virt. eigenvalues --    2.67101   2.70353   2.73357   2.77507   2.78653
 Alpha virt. eigenvalues --    2.79198   2.80438   2.84144   2.86865   2.88903
 Alpha virt. eigenvalues --    2.89524   2.91665   2.91924   2.93172   2.93436
 Alpha virt. eigenvalues --    2.99439   2.99662   3.00434   3.01419   3.02415
 Alpha virt. eigenvalues --    3.02494   3.04844   3.08233   3.11216   3.12219
 Alpha virt. eigenvalues --    3.12328   3.16326   3.17417   3.18916   3.19380
 Alpha virt. eigenvalues --    3.21241   3.24284   3.25390   3.26611   3.28094
 Alpha virt. eigenvalues --    3.30680   3.32581   3.33795   3.34907   3.36339
 Alpha virt. eigenvalues --    3.38226   3.38505   3.39804   3.40287   3.40307
 Alpha virt. eigenvalues --    3.42062   3.42732   3.43289   3.45395   3.47336
 Alpha virt. eigenvalues --    3.47922   3.51189   3.51754   3.52029   3.52522
 Alpha virt. eigenvalues --    3.55927   3.56685   3.57677   3.57894   3.60752
 Alpha virt. eigenvalues --    3.61110   3.62395   3.67126   3.67631   3.68247
 Alpha virt. eigenvalues --    3.70313   3.71273   3.72609   3.74135   3.74258
 Alpha virt. eigenvalues --    3.75998   3.78985   3.80911   3.83392   3.83853
 Alpha virt. eigenvalues --    3.85772   3.88092   3.88522   3.90670   3.92224
 Alpha virt. eigenvalues --    3.92806   3.95029   3.96079   3.97538   3.99494
 Alpha virt. eigenvalues --    3.99698   4.01988   4.03154   4.06308   4.06436
 Alpha virt. eigenvalues --    4.07566   4.09507   4.11489   4.14019   4.14497
 Alpha virt. eigenvalues --    4.15292   4.17424   4.20123   4.20337   4.22122
 Alpha virt. eigenvalues --    4.23622   4.25125   4.25789   4.28932   4.29824
 Alpha virt. eigenvalues --    4.30222   4.32098   4.33822   4.34215   4.37937
 Alpha virt. eigenvalues --    4.38857   4.40708   4.41317   4.42644   4.43213
 Alpha virt. eigenvalues --    4.44376   4.46484   4.47071   4.48661   4.50353
 Alpha virt. eigenvalues --    4.51184   4.52696   4.53175   4.54369   4.57687
 Alpha virt. eigenvalues --    4.57744   4.58263   4.59795   4.63361   4.63787
 Alpha virt. eigenvalues --    4.68129   4.69336   4.69407   4.74274   4.76768
 Alpha virt. eigenvalues --    4.79190   4.80255   4.80698   4.84331   4.84954
 Alpha virt. eigenvalues --    4.86971   4.96451   4.97445   4.99288   4.99624
 Alpha virt. eigenvalues --    5.02035   5.02754   5.05777   5.10969   5.11816
 Alpha virt. eigenvalues --    5.17796   5.18346   5.21635   5.22338   5.24272
 Alpha virt. eigenvalues --    5.24802   5.25947   5.28218   5.28834   5.29370
 Alpha virt. eigenvalues --    5.33886   5.34417   5.37444   5.38186   5.40345
 Alpha virt. eigenvalues --    5.43461   5.48328   5.52721   5.53571   5.53697
 Alpha virt. eigenvalues --    5.56738   5.58257   5.60352   5.65688   5.66229
 Alpha virt. eigenvalues --    5.69694   5.71467   5.73628   5.75150   5.75773
 Alpha virt. eigenvalues --    5.79834   5.81817   5.82644   5.84626   5.86353
 Alpha virt. eigenvalues --    5.91280   5.95872   5.96681   6.04854   6.07960
 Alpha virt. eigenvalues --    6.10617   6.21305   6.29901   6.30062   6.31090
 Alpha virt. eigenvalues --    6.32355   6.39027   6.40077   6.44317   6.48967
 Alpha virt. eigenvalues --    6.78234   6.79938   6.88470   7.32991   7.39724
 Alpha virt. eigenvalues --    7.52709   7.83591   7.94955  11.58723  12.15027
 Alpha virt. eigenvalues --   12.97251  13.13053  13.56442  13.62197  14.21836
          Condensed to atoms (all electrons):
              1          2          3          4          5          6
     1  C    4.575866   0.316369  -0.046275  -0.011884  -0.034014   0.348202
     2  O    0.316369   7.994994   0.316374  -0.051864   0.004823  -0.051860
     3  C   -0.046275   0.316374   4.575853   0.348204  -0.034013  -0.011883
     4  C   -0.011884  -0.051864   0.348204   4.965028   0.340379  -0.027450
     5  C   -0.034014   0.004823  -0.034013   0.340379   4.961539   0.340378
     6  C    0.348202  -0.051860  -0.011883  -0.027450   0.340378   4.965022
     7  C    0.003352  -0.000691   0.003352  -0.053443   0.362394  -0.053443
     8  H    0.000160   0.000010  -0.000262   0.007390  -0.037175  -0.004833
     9  H   -0.000103  -0.000072  -0.000103  -0.004877  -0.038756  -0.004877
    10  H   -0.000262   0.000010   0.000160  -0.004832  -0.037175   0.007390
    11  H   -0.005420  -0.046591   0.442110  -0.068660  -0.010438  -0.002556
    12  H    0.005491  -0.026581   0.431745  -0.036873   0.007161  -0.001009
    13  H    0.000707   0.001909  -0.028778   0.406999  -0.036597  -0.002546
    14  H   -0.000262   0.003982  -0.024302   0.415276  -0.037264   0.006131
    15  H   -0.001339  -0.000789  -0.001340  -0.038565   0.420989  -0.038564
    16  H   -0.028778   0.001908   0.000707  -0.002546  -0.036595   0.407001
    17  H    0.431746  -0.026581   0.005491  -0.001009   0.007161  -0.036875
    18  H    0.442113  -0.046589  -0.005419  -0.002555  -0.010438  -0.068657
    19  H   -0.024302   0.003982  -0.000262   0.006131  -0.037264   0.415276
              7          8          9         10         11         12
     1  C    0.003352   0.000160  -0.000103  -0.000262  -0.005420   0.005491
     2  O   -0.000691   0.000010  -0.000072   0.000010  -0.046591  -0.026581
     3  C    0.003352  -0.000262  -0.000103   0.000160   0.442110   0.431745
     4  C   -0.053443   0.007390  -0.004877  -0.004832  -0.068660  -0.036873
     5  C    0.362394  -0.037175  -0.038756  -0.037175  -0.010438   0.007161
     6  C   -0.053443  -0.004833  -0.004877   0.007390  -0.002556  -0.001009
     7  C    4.828505   0.421853   0.417721   0.421852  -0.000510  -0.000262
     8  H    0.421853   0.577824  -0.031169  -0.029246  -0.000004   0.000017
     9  H    0.417721  -0.031169   0.592554  -0.031172  -0.000073   0.000006
    10  H    0.421852  -0.029246  -0.031172   0.577828  -0.000014  -0.000008
    11  H   -0.000510  -0.000004  -0.000073  -0.000014   0.651576  -0.041984
    12  H   -0.000262   0.000017   0.000006  -0.000008  -0.041984   0.568190
    13  H   -0.004035  -0.000094   0.001831  -0.000247   0.008448  -0.007650
    14  H   -0.006159  -0.000123  -0.000225   0.002180   0.000058  -0.003167
    15  H   -0.030167  -0.005124   0.006949  -0.005124   0.002464  -0.000208
    16  H   -0.004035  -0.000247   0.001831  -0.000094   0.000426  -0.000111
    17  H   -0.000262  -0.000008   0.000006   0.000017  -0.000110  -0.000342
    18  H   -0.000510  -0.000014  -0.000073  -0.000004   0.011212  -0.000110
    19  H   -0.006159   0.002180  -0.000225  -0.000123   0.000180   0.000088
             13         14         15         16         17         18
     1  C    0.000707  -0.000262  -0.001339  -0.028778   0.431746   0.442113
     2  O    0.001909   0.003982  -0.000789   0.001908  -0.026581  -0.046589
     3  C   -0.028778  -0.024302  -0.001340   0.000707   0.005491  -0.005419
     4  C    0.406999   0.415276  -0.038565  -0.002546  -0.001009  -0.002555
     5  C   -0.036597  -0.037264   0.420989  -0.036595   0.007161  -0.010438
     6  C   -0.002546   0.006131  -0.038564   0.407001  -0.036875  -0.068657
     7  C   -0.004035  -0.006159  -0.030167  -0.004035  -0.000262  -0.000510
     8  H   -0.000094  -0.000123  -0.005124  -0.000247  -0.000008  -0.000014
     9  H    0.001831  -0.000225   0.006949   0.001831   0.000006  -0.000073
    10  H   -0.000247   0.002180  -0.005124  -0.000094   0.000017  -0.000004
    11  H    0.008448   0.000058   0.002464   0.000426  -0.000110   0.011212
    12  H   -0.007650  -0.003167  -0.000208  -0.000111  -0.000342  -0.000110
    13  H    0.590584  -0.029326   0.006815   0.002227  -0.000111   0.000426
    14  H   -0.029326   0.579032  -0.005340  -0.000097   0.000088   0.000180
    15  H    0.006815  -0.005340   0.583571   0.006815  -0.000208   0.002464
    16  H    0.002227  -0.000097   0.006815   0.590575  -0.007651   0.008448
    17  H   -0.000111   0.000088  -0.000208  -0.007651   0.568189  -0.041981
    18  H    0.000426   0.000180   0.002464   0.008448  -0.041981   0.651552
    19  H   -0.000097  -0.000126  -0.005340  -0.029326  -0.003167   0.000058
             19
     1  C   -0.024302
     2  O    0.003982
     3  C   -0.000262
     4  C    0.006131
     5  C   -0.037264
     6  C    0.415276
     7  C   -0.006159
     8  H    0.002180
     9  H   -0.000225
    10  H   -0.000123
    11  H    0.000180
    12  H    0.000088
    13  H   -0.000097
    14  H   -0.000126
    15  H   -0.005340
    16  H   -0.029326
    17  H   -0.003167
    18  H    0.000058
    19  H    0.579035
 Mulliken atomic charges:
              1
     1  C    0.028636
     2  O   -0.392743
     3  C    0.028642
     4  C   -0.184847
     5  C   -0.095094
     6  C   -0.184845
     7  C   -0.299353
     8  H    0.098866
     9  H    0.090829
    10  H    0.098865
    11  H    0.059886
    12  H    0.105608
    13  H    0.089536
    14  H    0.099463
    15  H    0.102041
    16  H    0.089542
    17  H    0.105608
    18  H    0.059899
    19  H    0.099462
 Sum of Mulliken atomic charges =   0.00000
 Mulliken charges with hydrogens summed into heavy atoms:
              1
     1  C    0.194143
     2  O   -0.392743
     3  C    0.194136
     4  C    0.004152
     5  C    0.006947
     6  C    0.004159
     7  C   -0.010794
 Sum of Mulliken charges with hydrogens summed into heavy atoms =   0.00000
 Electronic spatial extent (au):  <R**2>=            815.5043
 Charge=              0.0000 electrons
 Dipole moment (field-independent basis, Debye):
    X=              1.3528    Y=              0.0000    Z=              0.8676  Tot=              1.6071
 Quadrupole moment (field-independent basis, Debye-Ang):
   XX=            -50.0827   YY=            -42.4015   ZZ=            -45.2057
   XY=              0.0000   XZ=             -1.4134   YZ=              0.0000
 Traceless Quadrupole moment (field-independent basis, Debye-Ang):
   XX=             -4.1861   YY=              3.4952   ZZ=              0.6909
   XY=              0.0000   XZ=             -1.4134   YZ=              0.0000
 Octapole moment (field-independent basis, Debye-Ang**2):
  XXX=             -0.0628  YYY=              0.0002  ZZZ=             -1.4371  XYY=             -6.9816
  XXY=              0.0000  XXZ=              3.1612  XZZ=             -2.0026  YZZ=              0.0002
  YYZ=             -0.2858  XYZ=              0.0000
 Hexadecapole moment (field-independent basis, Debye-Ang**3):
 XXXX=           -688.7434 YYYY=           -338.9869 ZZZZ=           -102.7392 XXXY=              0.0003
 XXXZ=              0.6208 YYYX=             -0.0001 YYYZ=             -0.0001 ZZZX=             -0.7328
 ZZZY=              0.0001 XXYY=           -155.0665 XXZZ=           -127.7716 YYZZ=            -75.3024
 XXYZ=              0.0004 YYXZ=              6.4763 ZZXY=             -0.0001
 N-N= 3.317838368862D+02 E-N=-1.385792068056D+03  KE= 3.086084725503D+02
 1\1\GINC-ROCK\SP\RMP2-FC\CC-pVTZ\C6H12O1\STYLIANAKIS\04-Mar-2016\0\\# 
 mp2/cc-pVTZ\\4_Me_THP_eq_single_point\\0,1\C\O,1,1.425792\C,2,1.425773
 ,1,112.151\C,3,1.530888,2,111.842,1,-59.485,0\C,4,1.539655,3,111.138,2
 ,55.756,0\C,5,1.539666,4,108.942,3,-51.264,0\C,5,1.532217,4,112.273,3,
 -176.264,0\H,7,1.096251,5,111.238,4,-178.542,0\H,7,1.097012,5,110.941,
 4,61.574,0\H,7,1.096252,5,111.238,4,-58.308,0\H,3,1.10453,4,110.019,5,
 -66.043,0\H,3,1.093655,4,111.484,5,174.143,0\H,4,1.098802,3,108.896,2,
 -64.889,0\H,4,1.098238,3,109.499,2,178.171,0\H,5,1.102069,4,107.558,3,
 65.039,0\H,6,1.098793,5,109.452,7,55.948,0\H,1,1.093657,2,105.923,3,-1
 78.868,0\H,1,1.104515,2,109.401,3,-62.668,0\H,6,1.098242,5,110.543,7,-
 61.927,0\\Version=EM64L-G09RevA.01\State=1-A\HF=-309.1608115\MP2=-310.
 4344066\RMSD=6.848e-09\PG=C01 [X(C6H12O1)]\\@


 BLACK HOLES SUCK.
 Job cpu time:  0 days  1 hours 43 minutes 31.6 seconds.
 File lengths (MBytes):  RWF=     81 Int=      0 D2E=      0 Chk=      7 Scr=      1
 Normal termination of Gaussian 09 at Fri Mar  4 01:38:21 2016.
