c7028 1387145 SLURM_STEP_IDnodef 0 0 1 24 SLURM_MEM_PER_CPUnodef 122880
/mnt/lustre/scratch/slurm/1387145/uviqopsc.unIHKRWCXP
OMP_STACKSIZE=128m
-P- 24
-M- 114688MB
 Entering Gaussian System, Link 0=/opt/cesga/g09/e1/g09.exe
 Initial command:
 /opt/cesga/g09/e1/l1.exe "/mnt/lustre/scratch/slurm/1387145/uviqopsc.unIHKRWCXP/Gau-18649.inp" -scrdir="/mnt/lustre/scratch/slurm/1387145/uviqopsc.unIHKRWCXP/"
 Default is to use a total of  24 processors:
                               24 via shared-memory
                                1 via Linda
 Entering Link 1 = /opt/cesga/g09/e1/l1.exe PID=     18675.
  
 Copyright (c) 1988,1990,1992,1993,1995,1998,2003,2009,2015,
            Gaussian, Inc.  All Rights Reserved.
  
 This is part of the Gaussian(R) 09 program.  It is based on
 the Gaussian(R) 03 system (copyright 2003, Gaussian, Inc.),
 the Gaussian(R) 98 system (copyright 1998, Gaussian, Inc.),
 the Gaussian(R) 94 system (copyright 1995, Gaussian, Inc.),
 the Gaussian 92(TM) system (copyright 1992, Gaussian, Inc.),
 the Gaussian 90(TM) system (copyright 1990, Gaussian, Inc.),
 the Gaussian 88(TM) system (copyright 1988, Gaussian, Inc.),
 the Gaussian 86(TM) system (copyright 1986, Carnegie Mellon
 University), and the Gaussian 82(TM) system (copyright 1983,
 Carnegie Mellon University). Gaussian is a federally registered
 trademark of Gaussian, Inc.
  
 This software contains proprietary and confidential information,
 including trade secrets, belonging to Gaussian, Inc.
  
 This software is provided under written license and may be
 used, copied, transmitted, or stored only in accord with that
 written license.
  
 The following legend is applicable only to US Government
 contracts under FAR:
  
                    RESTRICTED RIGHTS LEGEND
  
 Use, reproduction and disclosure by the US Government is
 subject to restrictions as set forth in subparagraphs (a)
 and (c) of the Commercial Computer Software - Restricted
 Rights clause in FAR 52.227-19.
  
 Gaussian, Inc.
 340 Quinnipiac St., Bldg. 40, Wallingford CT 06492
  
  
 ---------------------------------------------------------------
 Warning -- This program may not be used in any manner that
 competes with the business of Gaussian, Inc. or will provide
 assistance to any competitor of Gaussian, Inc.  The licensee
 of this program is prohibited from giving any competitor of
 Gaussian, Inc. access to this program.  By using this program,
 the user acknowledges that Gaussian, Inc. is engaged in the
 business of creating and licensing software in the field of
 computational chemistry and represents and warrants to the
 licensee that it is not a competitor of Gaussian, Inc. and that
 it will not use this program in any manner prohibited above.
 ---------------------------------------------------------------
  

 Cite this work as:
 Gaussian 09, Revision E.01,
 M. J. Frisch, G. W. Trucks, H. B. Schlegel, G. E. Scuseria, 
 M. A. Robb, J. R. Cheeseman, G. Scalmani, V. Barone, B. Mennucci, 
 G. A. Petersson, H. Nakatsuji, M. Caricato, X. Li, H. P. Hratchian, 
 A. F. Izmaylov, J. Bloino, G. Zheng, J. L. Sonnenberg, M. Hada, 
 M. Ehara, K. Toyota, R. Fukuda, J. Hasegawa, M. Ishida, T. Nakajima, 
 Y. Honda, O. Kitao, H. Nakai, T. Vreven, J. A. Montgomery, Jr., 
 J. E. Peralta, F. Ogliaro, M. Bearpark, J. J. Heyd, E. Brothers, 
 K. N. Kudin, V. N. Staroverov, T. Keith, R. Kobayashi, J. Normand, 
 K. Raghavachari, A. Rendell, J. C. Burant, S. S. Iyengar, J. Tomasi, 
 M. Cossi, N. Rega, J. M. Millam, M. Klene, J. E. Knox, J. B. Cross, 
 V. Bakken, C. Adamo, J. Jaramillo, R. Gomperts, R. E. Stratmann, 
 O. Yazyev, A. J. Austin, R. Cammi, C. Pomelli, J. W. Ochterski, 
 R. L. Martin, K. Morokuma, V. G. Zakrzewski, G. A. Voth, 
 P. Salvador, J. J. Dannenberg, S. Dapprich, A. D. Daniels, 
 O. Farkas, J. B. Foresman, J. V. Ortiz, J. Cioslowski, 
 and D. J. Fox, Gaussian, Inc., Wallingford CT, 2013.
 
 ******************************************
 Gaussian 09:  ES64L-G09RevE.01 30-Nov-2015
                12-Jul-2018 
 ******************************************
 %Mem=105Gb
 %NProcShared=24
 Will use up to   24 processors via shared memory.
 Default route:  SCF=Direct
 -------------
 # mp2/cc-pVTZ
 -------------
 1/38=1/1;
 2/12=2,17=6,18=5,40=1/2;
 3/5=16,6=1,11=9,16=1,25=1,30=1/1,2,3;
 4//1;
 5/5=2,38=5/2;
 8/10=1/1;
 9/16=-3/6;
 6/7=2,8=2,9=2,10=2/1;
 99/5=1,9=1/99;
 -------------------------
 aagtxgtx6060_single_point
 -------------------------
 Symbolic Z-matrix:
 Charge =  0 Multiplicity = 1
 C
 C                    1    B1
 C                    1    B2       2    A1
 O                    3    B3       1    A2       2    D1       0
 C                    2    B4       1    A3       3    D2       0
 C                    4    B5       3    A4       1    D3       0
 O                    6    B6       4    A5       3    D4       0
 C                    7    B7       6    A6       4    D5       0
 O                    8    B8       7    A7       6    D6       0
 C                    8    B9       7    A8       6    D7       0
 C                    9    B10      8    A9       7    D8       0
 C                    11   B11      9    A10      8    D9       0
 C                    12   B12      11   A11      9    D10      0
 H                    1    B13      2    A12      5    D11      0
 O                    1    B14      2    A13      5    D12      0
 H                    2    B15      1    A14      15   D13      0
 O                    2    B16      1    A15      15   D14      0
 H                    3    B17      1    A16      15   D15      0
 C                    3    B18      1    A17      15   D16      0
 O                    5    B19      2    A18      1    D17      0
 H                    5    B20      2    A19      1    D18      0
 H                    6    B21      4    A20      3    D19      0
 H                    8    B22      7    A21      6    D20      0
 H                    10   B23      8    A22      7    D21      0
 O                    10   B24      8    A23      7    D22      0
 H                    11   B25      9    A24      8    D23      0
 C                    11   B26      9    A25      8    D24      0
 O                    12   B27      11   A26      9    D25      0
 H                    12   B28      11   A27      9    D26      0
 O                    13   B29      12   A28      11   D27      0
 H                    13   B30      12   A29      11   D28      0
 H                    19   B31      3    A30      1    D29      0
 H                    19   B32      3    A31      1    D30      0
 O                    19   B33      3    A32      1    D31      0
 H                    27   B34      11   A33      9    D32      0
 H                    27   B35      11   A34      9    D33      0
 O                    27   B36      11   A35      9    D34      0
 H                    37   B37      27   A36      11   D35      0
 H                    25   B38      10   A37      8    D36      0
 H                    30   B39      13   A38      12   D37      0
 H                    28   B40      12   A39      11   D38      0
 H                    20   B41      5    A40      2    D39      0
 H                    17   B42      2    A41      1    D40      0
 H                    15   B43      1    A42      2    D41      0
 H                    34   B44      19   A43      3    D42      0
       Variables:
  B1                    1.5265                   
  B2                    1.53143                  
  B3                    1.44808                  
  B4                    1.5315                   
  B5                    1.40571                  
  B6                    1.43203                  
  B7                    1.43203                  
  B8                    1.40571                  
  B9                    1.53602                  
  B10                   1.44808                  
  B11                   1.53143                  
  B12                   1.5265                   
  B13                   1.10183                  
  B14                   1.42147                  
  B15                   1.10149                  
  B16                   1.42367                  
  B17                   1.09727                  
  B18                   1.52452                  
  B19                   1.42316                  
  B20                   1.09475                  
  B21                   1.09308                  
  B22                   1.09308                  
  B23                   1.09475                  
  B24                   1.42316                  
  B25                   1.09727                  
  B26                   1.52452                  
  B27                   1.42147                  
  B28                   1.10183                  
  B29                   1.42367                  
  B30                   1.10149                  
  B31                   1.10043                  
  B32                   1.09154                  
  B33                   1.42078                  
  B34                   1.10043                  
  B35                   1.09154                  
  B36                   1.42078                  
  B37                   0.96698                  
  B38                   0.96902                  
  B39                   0.96852                  
  B40                   0.96826                  
  B41                   0.96902                  
  B42                   0.96852                  
  B43                   0.96826                  
  B44                   0.96698                  
  A1                  109.74936                  
  A2                  109.77415                  
  A3                  110.6864                   
  A4                  116.79165                  
  A5                  112.88811                  
  A6                  115.3901                   
  A7                  112.88815                  
  A8                  106.62852                  
  A9                  116.79158                  
  A10                 109.7741                   
  A11                 109.74938                  
  A12                 108.28594                  
  A13                 111.49372                  
  A14                 108.36768                  
  A15                 107.4391                   
  A16                 109.70419                  
  A17                 113.15285                  
  A18                 111.10625                  
  A19                 108.61373                  
  A20                 105.51004                  
  A21                 109.21214                  
  A22                 107.72581                  
  A23                 112.53384                  
  A24                 109.33972                  
  A25                 105.75729                  
  A26                 107.89025                  
  A27                 109.09028                  
  A28                 107.43914                  
  A29                 108.36774                  
  A30                 109.2346                   
  A31                 109.01678                  
  A32                 111.96736                  
  A33                 109.23464                  
  A34                 109.01676                  
  A35                 111.96736                  
  A36                 107.57549                  
  A37                 107.72954                  
  A38                 108.0531                   
  A39                 107.5607                   
  A40                 107.72952                  
  A41                 108.05308                  
  A42                 107.56073                  
  A43                 107.57554                  
  D1                  -55.43616                  
  D2                   55.31621                  
  D3                   57.46763                  
  D4                   64.88265                  
  D5                   64.69298                  
  D6                   64.69272                  
  D7                 -172.6212                   
  D8                   64.8825                   
  D9                   57.46774                  
  D10                 -55.43624                  
  D11                 -63.67112                  
  D12                 174.79928                  
  D13                  54.93407                  
  D14                 -63.50493                  
  D15                 -56.93296                  
  D16                  65.01909                  
  D17                -178.62063                  
  D18                  65.43909                  
  D19                -175.91818                  
  D20                 -52.33978                  
  D21                 168.75926                  
  D22                  52.55605                  
  D23                 -62.92321                  
  D24                 179.85099                  
  D25                -177.10251                  
  D26                  63.05504                  
  D27                 177.01203                  
  D28                 -64.54893                  
  D29                  56.65217                  
  D30                 -61.75044                  
  D31                -179.90831                  
  D32                 -63.54497                  
  D33                 178.05237                  
  D34                  59.89459                  
  D35                 -61.48085                  
  D36                 -45.51154                  
  D37                -171.9347                   
  D38                 172.2796                   
  D39                  79.43969                  
  D40                -171.93484                  
  D41                  51.70041                  
  D42                 -61.48061                  
 
                          Input orientation:                          
 ---------------------------------------------------------------------
 Center     Atomic      Atomic             Coordinates (Angstroms)
 Number     Number       Type             X           Y           Z
 ---------------------------------------------------------------------
      1          6           0        0.000000    0.000000    0.000000
      2          6           0        0.000000    0.000000    1.526496
      3          6           0        1.441354    0.000000   -0.517481
      4          8           0        2.163674    1.122169    0.044592
      5          6           0        0.815307    1.178164    2.067501
      6          6           0        2.220212    1.201005    1.446955
      7          8           0        2.946462    0.116928    2.036913
      8          6           0        4.340205    0.062949    1.712445
      9          8           0        5.059676    1.164849    2.206623
     10          6           0        4.874009   -1.258523    2.285264
     11          6           0        5.141452    1.298519    3.646200
     12          6           0        5.764949    0.036379    4.249141
     13          6           0        4.969559   -1.191100    3.812291
     14          1           0       -0.506999    0.915128   -0.345709
     15          8           0       -0.650948   -1.151340   -0.520825
     16          1           0        0.449237   -0.943921    1.873590
     17          8           0       -1.356382    0.070800    1.953157
     18          1           0        1.938546   -0.934196   -0.227502
     19          6           0        1.535081    0.163188   -2.030338
     20          8           0        0.847599    1.168665    3.490266
     21          1           0        0.312076    2.109206    1.787499
     22          1           0        2.734603    2.140186    1.666415
     23          1           0        4.458382    0.099963    0.626404
     24          1           0        5.878228   -1.416424    1.878947
     25          8           0        4.107084   -2.382743    1.868910
     26          1           0        4.133926    1.445153    4.055347
     27          6           0        5.967444    2.554679    3.899088
     28          8           0        5.763884    0.181521    5.663181
     29          1           0        6.796398   -0.069402    3.876388
     30          8           0        5.629284   -2.337004    4.340016
     31          1           0        3.956280   -1.117627    4.237899
     32          1           0        1.021873    1.090169   -2.327460
     33          1           0        1.034047   -0.679252   -2.510665
     34          8           0        2.881783    0.157672   -2.483079
     35          1           0        6.984380    2.405069    3.506134
     36          1           0        6.033699    2.726161    4.975034
     37          8           0        5.365625    3.709724    3.331375
     38          1           0        5.314944    3.572665    2.375500
     39          1           0        3.170650   -2.154598    1.969132
     40          1           0        5.209255   -3.124722    3.964364
     41          1           0        6.043165   -0.663832    6.043834
     42          1           0        1.509553    0.516931    3.766063
     43          1           0       -1.362738    0.200501    2.912935
     44          1           0       -1.518543   -1.213891   -0.095519
     45          1           0        3.330809    0.909460   -2.072907
 ---------------------------------------------------------------------
                    Distance matrix (angstroms):
                    1          2          3          4          5
     1  C    0.000000
     2  C    1.526496   0.000000
     3  C    1.531433   2.501068   0.000000
     4  O    2.437773   2.852505   1.448080   0.000000
     5  C    2.515424   1.531497   2.908975   2.431746   0.000000
     6  C    2.909542   2.525486   2.430646   1.405714   1.536020
     7  O    3.583898   2.992631   2.967145   2.364870   2.380962
     8  C    4.666241   4.344642   3.657850   2.939553   3.714119
     9  O    5.641487   5.236389   4.676523   3.614281   4.246670
    10  C    5.528316   5.090734   4.606776   4.246672   4.738980
    11  C    6.435484   5.710852   5.719538   4.676520   4.606768
    12  C    7.161785   6.375638   6.435487   5.641486   5.528308
    13  C    6.375641   5.598223   5.710856   5.236389   5.090729
    14  H    1.101827   2.144681   2.159408   2.706971   2.764283
    15  O    1.421469   2.437383   2.388162   3.662053   3.778349
    16  H    2.145493   1.101488   2.755449   3.248577   2.162141
    17  O    2.378993   1.423666   3.733147   4.139902   2.440402
    18  H    2.163894   2.776183   1.097274   2.086470   3.315234
    19  C    2.550564   3.877393   1.524517   2.370677   4.282586
    20  O    3.777057   2.437334   4.216676   3.688751   1.423163
    21  H    2.782318   2.148084   3.322191   2.727706   1.094752
    22  H    3.851674   3.475345   3.319984   1.998156   2.184045
    23  H    4.503281   4.549431   3.228145   2.578584   4.063407
    24  H    6.331687   6.056735   5.237840   4.858727   5.692153
    25  O    5.102787   4.760552   4.298656   4.403339   4.853380
    26  H    5.968555   5.056965   5.499924   4.480219   3.877634
    27  C    7.572296   6.911293   6.820408   5.601597   5.638619
    28  O    8.082507   7.097004   7.544388   6.739056   6.197631
    29  H    7.824463   7.191511   6.927294   6.128999   6.371966
    30  O    7.482390   6.713145   6.826099   6.513601   6.379272
    31  H    5.904323   4.924728   5.494322   5.080743   4.454997
    32  H    2.765821   4.133482   2.154172   2.632749   4.400693
    33  H    2.798941   4.222476   2.144776   3.324231   4.945447
    34  O    3.807258   4.940266   2.441982   2.799118   5.100932
    35  H    8.176729   7.647541   7.259406   6.071846   6.452319
    36  H    8.281813   7.465245   7.660894   6.469864   6.171034
    37  O    7.324619   6.768277   6.631414   5.267910   5.358318
    38  H    6.830488   6.460137   6.011487   4.622614   5.106391
    39  H    4.309617   3.858917   3.716989   3.931293   4.082233
    40  H    7.253717   6.545489   6.636859   6.532707   6.435814
    41  H    8.572540   7.574091   8.041654   7.364181   6.821633
    42  H    4.090134   2.749842   4.315161   3.826687   1.950466
    43  H    3.222180   1.954346   4.435187   4.638151   2.532679
    44  H    1.946439   2.531883   3.226851   4.362972   3.980883
    45  H    4.027202   4.987696   2.610845   2.427191   4.852106
                    6          7          8          9         10
     6  C    0.000000
     7  O    1.432031   0.000000
     8  C    2.420749   1.432030   0.000000
     9  O    2.939551   2.364870   1.405715   0.000000
    10  C    3.714119   2.380962   1.536020   2.431746   0.000000
    11  C    3.657845   2.967144   2.430646   1.448081   2.908976
    12  C    4.666237   3.583896   2.909541   2.437772   2.515424
    13  C    4.344640   2.992629   2.525486   2.852506   1.531498
    14  H    3.276133   4.270879   5.334566   6.128999   6.371972
    15  O    4.201100   4.592590   5.601213   6.739059   6.197642
    16  H    2.814086   2.718126   4.022361   5.080745   4.455004
    17  O    3.784921   4.303906   5.701675   6.513600   6.379276
    18  H    2.728045   2.692273   3.244328   4.480225   3.877645
    19  C    3.692971   4.305423   4.678376   5.601601   5.638629
    20  O    2.461754   2.761089   4.072045   4.403333   4.853375
    21  H    2.140510   3.312306   4.518697   4.858722   5.692153
    22  H    1.093079   2.067783   2.625832   2.578580   4.063405
    23  H    2.625834   2.067782   1.093079   1.998156   2.184044
    24  H    4.518698   3.312306   2.140510   2.727704   1.094752
    25  O    4.072049   2.761091   2.461754   3.688751   1.423163
    26  H    3.244321   2.692272   2.728045   2.086472   3.315234
    27  C    4.678369   4.305422   3.692971   2.370677   4.282585
    28  O    5.601207   4.592587   4.201099   3.662053   3.778349
    29  H    5.334563   4.270877   3.276133   2.706971   2.764283
    30  O    5.701674   4.303905   3.784921   4.139902   2.440403
    31  H    4.022357   2.718124   2.814085   3.248578   2.162143
    32  H    3.961630   4.868161   5.327978   6.071848   6.452328
    33  H    4.539285   4.997169   5.414444   6.469869   6.171045
    34  O    4.119635   4.520638   4.442791   5.267915   5.358327
    35  H    5.327972   4.868159   3.961629   2.632748   4.400692
    36  H    5.414436   4.997167   4.539285   3.324231   4.945447
    37  O    4.442784   4.520637   4.119634   2.799118   5.100932
    38  H    4.008034   4.203149   3.702414   2.427192   4.852108
    39  H    3.526482   2.283569   2.520171   3.826689   1.950467
    40  H    5.829549   4.398135   3.998454   4.638151   2.532679
    41  H    6.262898   5.123922   4.710543   4.362971   3.980883
    42  H    2.520169   2.283566   3.526476   3.931288   4.082226
    43  H    3.998454   4.398137   5.829550   6.532706   6.435816
    44  H    4.710545   5.123925   6.262904   7.364185   6.821645
    45  H    3.702412   4.203147   4.008036   4.622616   5.106395
                   11         12         13         14         15
    11  C    0.000000
    12  C    1.531432   0.000000
    13  C    2.501068   1.526496   0.000000
    14  H    6.927288   7.824461   7.191512   0.000000
    15  O    7.544389   8.082511   7.097012   2.078864   0.000000
    16  H    5.494321   5.904323   4.924731   3.048891   2.643227
    17  O    6.826092   7.482385   6.713144   2.592127   2.848131
    18  H    5.499927   5.968561   5.056973   3.068332   2.615084
    19  C    6.820409   7.572300   6.911300   2.751996   2.964006
    20  O    4.298644   5.102773   4.760540   4.076018   4.870002
    21  H    5.237829   6.331676   6.056728   2.578232   4.109371
    22  H    3.228138   4.503274   4.549427   4.007168   5.203856
    23  H    3.319984   3.851674   3.475346   5.124891   5.383970
    24  H    3.322190   2.782318   2.148085   7.152367   6.961272
    25  O    4.216677   3.777058   2.437335   6.088535   5.464985
    26  H    1.097274   2.163894   2.776183   6.417819   7.111831
    27  C    1.524517   2.550564   3.877392   7.913586   8.779141
    28  O    2.388162   1.421470   2.437383   8.716014   9.009357
    29  H    2.159408   1.101826   2.144681   8.493233   8.716021
    30  O    3.733148   2.378994   1.423666   8.377729   8.029625
    31  H    2.755450   2.145494   1.101488   6.712854   6.623680
    32  H    7.259405   8.176731   7.647547   2.509069   3.329657
    33  H    7.660897   8.281820   7.465254   3.099017   2.649818
    34  O    6.631418   7.324626   6.768285   4.077491   4.247839
    35  H    2.154171   2.765820   4.133481   8.554377   9.336095
    36  H    2.144776   2.798941   4.222475   8.623854   9.482825
    37  O    2.441982   3.807258   4.940266   7.471173   8.641095
    38  H    2.610846   4.027202   4.987697   6.954315   8.142283
    39  H    4.315164   4.090136   2.749843   5.320415   4.670228
    40  H    4.435188   3.222181   1.954347   8.220260   7.638922
    41  H    3.226850   1.946439   2.531882   9.285689   9.388480
    42  H    3.716979   4.309605   3.858905   4.596924   5.082155
    43  H    6.636852   7.253710   6.545485   3.444088   3.758301
    44  H    8.041653   8.572543   7.574098   2.370345   0.968256
    45  H    6.011488   6.830491   6.460141   4.208565   4.744496
                   16         17         18         19         20
    16  H    0.000000
    17  O    2.072740   0.000000
    18  H    2.575407   4.076989   0.000000
    19  C    4.200643   4.923142   2.148780   0.000000
    20  O    2.689862   2.902679   4.408400   5.653379   0.000000
    21  H    3.057419   2.639374   3.995990   4.456300   2.017628
    22  H    3.844156   4.593554   3.697629   4.360431   2.798405
    23  H    4.326478   5.964277   2.854508   3.950692   4.730918
    24  H    5.449516   7.386265   4.493414   6.053149   5.881008
    25  O    3.930659   5.989694   3.346012   5.319879   5.085817
    26  H    4.903537   6.037510   5.368780   6.740400   3.345998
    27  C    6.840574   7.974631   6.740402   7.779664   5.319867
    28  O    6.623677   8.029615   7.111834   8.779143   5.464967
    29  H    6.712856   8.377726   6.417828   7.913594   6.088522
    30  O    5.903967   7.764930   6.037520   7.974640   5.989682
    31  H    4.233141   5.903963   4.903540   6.840577   3.930646
    32  H    4.702580   5.001889   3.057477   1.100435   5.820866
    33  H    4.430997   5.118831   2.468997   1.091538   6.281778
    34  O    5.109927   6.135941   2.677592   1.420778   6.390686
    35  H    7.522568   8.799367   7.109935   8.085383   6.260113
    36  H    7.367134   8.414034   7.565374   8.711006   5.614798
    37  O    6.924769   7.767022   6.780596   7.483245   5.186018
    38  H    6.657820   7.546391   6.203828   6.732259   5.194140
    39  H    2.980093   5.044470   2.798690   4.903365   4.330645
    40  H    5.637819   7.573896   5.750451   7.761854   6.138564
    41  H    6.982938   8.486850   7.500044   9.284345   6.072286
    42  H    2.615304   3.420416   4.270641   5.807242   0.969021
    43  H    2.381847   0.968523   4.695568   5.730157   2.481178
    44  H    2.796860   2.423592   3.470894   3.868396   4.912540
    45  H    5.226215   6.235568   2.956854   1.945090   6.097739
                   21         22         23         24         25
    21  H    0.000000
    22  H    2.425748   0.000000
    23  H    4.751531   2.866278   0.000000
    24  H    6.589421   4.751529   2.425749   0.000000
    25  O    5.881014   4.730919   2.798404   2.017627   0.000000
    26  H    4.493399   2.854500   3.697629   3.995989   4.408402
    27  C    6.053135   3.950683   4.360431   4.456298   5.653379
    28  O    6.961256   5.383962   5.203856   4.109371   4.870002
    29  H    7.152358   5.124884   4.007169   2.578231   4.076018
    30  O    7.386259   5.964273   4.593554   2.639376   2.902679
    31  H    5.449508   4.326473   3.844156   3.057420   2.689864
    32  H    4.298271   4.470685   4.638471   6.896452   6.260126
    33  H    5.174065   5.318752   4.708975   6.578617   5.614812
    34  O    5.352543   4.601123   3.486815   5.521207   5.186028
    35  H    6.896439   4.638462   4.470685   4.298269   5.820865
    36  H    6.578600   4.708965   5.318752   5.174064   6.281779
    37  O    5.521192   3.486806   4.601123   5.352542   6.390687
    38  H    5.245583   3.035285   3.981544   5.045282   6.097741
    39  H    5.136581   4.327464   2.923050   2.807848   0.969022
    40  H    7.491002   6.254896   4.701530   2.777548   2.481177
    41  H    7.658427   6.162053   5.695918   4.235551   4.912540
    42  H    2.807847   2.923050   4.327461   5.136574   4.330643
    43  H    2.777546   4.701530   6.254899   7.491005   6.138574
    44  H    4.235551   5.695918   6.162062   7.658443   6.072304
    45  H    5.045283   3.981543   3.035290   5.245591   5.194144
                   26         27         28         29         30
    26  H    0.000000
    27  C    2.148780   0.000000
    28  O    2.615083   2.964007   0.000000
    29  H    3.068332   2.751995   2.078865   0.000000
    30  O    4.076989   4.923142   2.848131   2.592128   0.000000
    31  H    2.575408   4.200644   2.643227   3.048892   2.072740
    32  H    7.109931   8.085380   9.336094   8.554384   8.799375
    33  H    7.565372   8.711007   9.482829   8.623865   8.414046
    34  O    6.780596   7.483248   8.641101   7.471184   7.767033
    35  H    3.057476   1.100434   3.329659   2.509069   5.001890
    36  H    2.468996   1.091538   2.649818   3.099017   5.118832
    37  O    2.677592   1.420779   4.247839   4.077492   6.135942
    38  H    2.956856   1.945090   4.744497   4.208566   6.235569
    39  H    4.270644   5.807243   5.082156   4.596925   3.420415
    40  H    4.695569   5.730157   3.758302   3.444088   0.968524
    41  H    3.470893   3.868396   0.968255   2.370345   2.423592
    42  H    2.798681   4.903357   4.670213   5.320403   5.044457
    43  H    5.750441   7.761844   7.638910   8.220255   7.573893
    44  H    7.500040   9.284342   9.388478   9.285695   8.486859
    45  H    6.203826   6.732259   8.142285   6.954321   7.546397
                   31         32         33         34         35
    31  H    0.000000
    32  H    7.522569   0.000000
    33  H    7.367138   1.778922   0.000000
    34  O    6.924773   2.086393   2.028628   0.000000
    35  H    4.702580   8.444600   9.006740   7.599524   0.000000
    36  H    4.430998   9.006736   9.624398   8.494419   1.778921
    37  O    5.109927   7.599518   8.494416   7.252201   2.086392
    38  H    5.226217   6.834550   7.763986   6.417806   2.329943
    39  H    2.615306   5.797109   5.177866   5.025159   6.139827
    40  H    2.381848   8.653700   8.083235   7.600050   5.825773
    41  H    2.796859   9.918088   9.913171   9.131126   4.091939
    42  H    2.980081   6.139826   6.407361   6.408109   5.797099
    43  H    5.637813   5.825772   5.994496   6.865476   8.653691
    44  H    6.982940   4.091939   3.554501   5.190808   9.918087
    45  H    6.657820   2.329945   2.826793   0.966981   6.834553
                   36         37         38         39         40
    36  H    0.000000
    37  O    2.028628   0.000000
    38  H    2.826792   0.966980   0.000000
    39  H    6.407363   6.408111   6.129003   0.000000
    40  H    5.994496   6.865477   6.884087   3.012972   0.000000
    41  H    3.554501   5.190808   5.651097   5.203549   3.327999
    42  H    5.177857   5.025154   5.074660   3.622882   5.195070
    43  H    8.083222   7.600039   7.500117   5.195081   7.440007
    44  H    9.913166   9.131119   8.701355   5.209246   8.086853
    45  H    7.763986   6.417805   5.551376   5.074661   7.500122
                   41         42         43         44         45
    41  H    0.000000
    42  H    5.209230   0.000000
    43  H    8.086841   3.012973   0.000000
    44  H    9.755698   5.203549   3.327999   0.000000
    45  H    8.701357   6.128999   6.884085   5.651097   0.000000
 Stoichiometry    C12H22O11
 Framework group  C1[X(C12H22O11)]
 Deg. of freedom   129
 Full point group                 C1      NOp   1
 Largest Abelian subgroup         C1      NOp   1
 Largest concise Abelian subgroup C1      NOp   1
                         Standard orientation:                         
 ---------------------------------------------------------------------
 Center     Atomic      Atomic             Coordinates (Angstroms)
 Number     Number       Type             X           Y           Z
 ---------------------------------------------------------------------
      1          6           0        3.570254    0.275826   -0.337546
      2          6           0        2.603827    1.027191   -1.249499
      3          6           0        2.785754   -0.646427    0.600162
      4          8           0        1.802964    0.122788    1.334579
      5          6           0        1.559154    1.784241   -0.424262
      6          6           0        0.866611    0.844973    0.574496
      7          8           0       -0.000000   -0.000002   -0.190823
      8          6           0       -0.866613   -0.844986    0.574485
      9          8           0       -1.802963   -0.122811    1.334580
     10          6           0       -1.559160   -1.784239   -0.424284
     11          6           0       -2.785751    0.646419    0.600174
     12          6           0       -3.570254   -0.275817   -0.337547
     13          6           0       -2.603830   -1.027172   -1.249512
     14          1           0        4.123542    1.014960    0.263766
     15          8           0        4.473670   -0.527640   -1.085111
     16          1           0        2.096016    0.294270   -1.896206
     17          8           0        3.375870    1.917571   -2.048246
     18          1           0        2.276499   -1.422503    0.015034
     19          6           0        3.661106   -1.314210    1.654666
     20          8           0        0.634072    2.462591   -1.266555
     21          1           0        2.066949    2.565700    0.150150
     22          1           0        0.272515    1.406978    1.299770
     23          1           0       -0.272517   -1.407003    1.299750
     24          1           0       -2.066957   -2.565703    0.150117
     25          8           0       -0.634081   -2.462581   -1.266588
     26          1           0       -2.276493    1.422503    0.015057
     27          6           0       -3.661099    1.314190    1.654688
     28          8           0       -4.473667    0.527664   -1.085102
     29          1           0       -4.123545   -1.014957    0.263754
     30          8           0       -3.375877   -1.917537   -2.048273
     31          1           0       -2.096016   -0.294243   -1.896208
     32          1           0        4.187689   -0.539550    2.232220
     33          1           0        4.404049   -1.939502    1.156168
     34          8           0        2.908992   -2.164827    2.508708
     35          1           0       -4.187684    0.539525    2.232231
     36          1           0       -4.404041    1.939492    1.156200
     37          8           0       -2.908982    2.164792    2.508742
     38          1           0       -2.256208    1.616751    2.965456
     39          1           0        0.010848   -1.811403   -1.581289
     40          1           0       -2.765099   -2.488490   -2.537151
     41          1           0       -4.877704   -0.037378   -1.759638
     42          1           0       -0.010854    1.811414   -1.581264
     43          1           0        2.765091    2.488527   -2.537117
     44          1           0        4.877707    0.037413   -1.759640
     45          1           0        2.256215   -1.616795    2.965429
 ---------------------------------------------------------------------
 Rotational constants (GHZ):      0.3679043      0.1517581      0.1506374
 Standard basis: CC-pVTZ (5D, 7F)
 There are  1135 symmetry adapted cartesian basis functions of A   symmetry.
 There are   998 symmetry adapted basis functions of A   symmetry.
   998 basis functions,  1570 primitive gaussians,  1135 cartesian basis functions
    91 alpha electrons       91 beta electrons
       nuclear repulsion energy      2333.1413844346 Hartrees.
 NAtoms=   45 NActive=   45 NUniq=   45 SFac= 1.00D+00 NAtFMM=   60 NAOKFM=F Big=F
 Integral buffers will be    131072 words long.
 Raffenetti 1 integral format.
 Two-electron integral symmetry is turned on.
 One-electron integrals computed using PRISM.
 NBasis=   998 RedAO= T EigKep=  1.79D-04  NBF=   998
 NBsUse=   998 1.00D-06 EigRej= -1.00D+00 NBFU=   998
 ExpMin= 1.03D-01 ExpMax= 1.53D+04 ExpMxC= 5.22D+02 IAcc=1 IRadAn=         1 AccDes= 0.00D+00
 Harris functional with IExCor=  205 and IRadAn=       1 diagonalized for initial guess.
 HarFok:  IExCor=  205 AccDes= 0.00D+00 IRadAn=         1 IDoV= 1 UseB2=F ITyADJ=14
 ICtDFT=  3500011 ScaDFX=  1.000000  1.000000  1.000000  1.000000
 FoFCou: FMM=F IPFlag=           0 FMFlag=      100000 FMFlg1=           0
         NFxFlg=           0 DoJE=T BraDBF=F KetDBF=T FulRan=T
         wScrn=  0.000000 ICntrl=     500 IOpCl=  0 I1Cent=   200000004 NGrid=           0
         NMat0=    1 NMatS0=      1 NMatT0=    0 NMatD0=    1 NMtDS0=    0 NMtDT0=    0
 Petite list used in FoFCou.
 Requested convergence on RMS density matrix=1.00D-08 within 128 cycles.
 Requested convergence on MAX density matrix=1.00D-06.
 Requested convergence on             energy=1.00D-06.
 No special actions if energy rises.
 Integral accuracy reduced to 1.0D-05 until final iterations.
 Initial convergence to 1.0D-05 achieved.  Increase integral accuracy.
 SCF Done:  E(RHF) =  -1291.15848206     A.U. after   13 cycles
            NFock= 13  Conv=0.15D-08     -V/T= 2.0017
 ExpMin= 1.03D-01 ExpMax= 1.53D+04 ExpMxC= 5.22D+02 IAcc=3 IRadAn=         5 AccDes= 0.00D+00
 HarFok:  IExCor=  205 AccDes= 0.00D+00 IRadAn=         5 IDoV=-2 UseB2=F ITyADJ=14
 ICtDFT= 12500011 ScaDFX=  1.000000  1.000000  1.000000  1.000000
 Range of M.O.s used for correlation:    24   998
 NBasis=   998 NAE=    91 NBE=    91 NFC=    23 NFV=     0
 NROrb=    975 NOA=    68 NOB=    68 NVA=   907 NVB=   907
 Fully direct method using O(OVN) memory.
 JobTyp=1 Pass  1:  I=   1 to   8 NPSUse= 24 ParTrn=T ParDer=T DoDerP=F.
 JobTyp=1 Pass  2:  I=   9 to  17 NPSUse= 24 ParTrn=T ParDer=T DoDerP=F.
 JobTyp=1 Pass  3:  I=  18 to  28 NPSUse= 24 ParTrn=T ParDer=T DoDerP=F.
 JobTyp=1 Pass  4:  I=  29 to  43 NPSUse= 24 ParTrn=T ParDer=T DoDerP=F.
 JobTyp=1 Pass  5:  I=  44 to  68 NPSUse= 24 ParTrn=T ParDer=T DoDerP=F.
 Spin components of T(2) and E(2):
     alpha-alpha T2 =       0.1625239907D+00 E2=     -0.5883629221D+00
     alpha-beta  T2 =       0.8875814192D+00 E2=     -0.3455886949D+01
     beta-beta   T2 =       0.1625239907D+00 E2=     -0.5883629221D+00
 ANorm=    0.1487490975D+01
 E2 =    -0.4632612793D+01 EUMP2 =    -0.12957910948569D+04

 **********************************************************************

            Population analysis using the SCF density.

 **********************************************************************

 Orbital symmetries:
       Occupied  (A) (A) (A) (A) (A) (A) (A) (A) (A) (A) (A) (A)
                 (A) (A) (A) (A) (A) (A) (A) (A) (A) (A) (A) (A)
                 (A) (A) (A) (A) (A) (A) (A) (A) (A) (A) (A) (A)
                 (A) (A) (A) (A) (A) (A) (A) (A) (A) (A) (A) (A)
                 (A) (A) (A) (A) (A) (A) (A) (A) (A) (A) (A) (A)
                 (A) (A) (A) (A) (A) (A) (A) (A) (A) (A) (A) (A)
                 (A) (A) (A) (A) (A) (A) (A) (A) (A) (A) (A) (A)
                 (A) (A) (A) (A) (A) (A) (A)
       Virtual   (A) (A) (A) (A) (A) (A) (A) (A) (A) (A) (A) (A)
                 (A) (A) (A) (A) (A) (A) (A) (A) (A) (A) (A) (A)
                 (A) (A) (A) (A) (A) (A) (A) (A) (A) (A) (A) (A)
                 (A) (A) (A) (A) (A) (A) (A) (A) (A) (A) (A) (A)
                 (A) (A) (A) (A) (A) (A) (A) (A) (A) (A) (A) (A)
                 (A) (A) (A) (A) (A) (A) (A) (A) (A) (A) (A) (A)
                 (A) (A) (A) (A) (A) (A) (A) (A) (A) (A) (A) (A)
                 (A) (A) (A) (A) (A) (A) (A) (A) (A) (A) (A) (A)
                 (A) (A) (A) (A) (A) (A) (A) (A) (A) (A) (A) (A)
                 (A) (A) (A) (A) (A) (A) (A) (A) (A) (A) (A) (A)
                 (A) (A) (A) (A) (A) (A) (A) (A) (A) (A) (A) (A)
                 (A) (A) (A) (A) (A) (A) (A) (A) (A) (A) (A) (A)
                 (A) (A) (A) (A) (A) (A) (A) (A) (A) (A) (A) (A)
                 (A) (A) (A) (A) (A) (A) (A) (A) (A) (A) (A) (A)
                 (A) (A) (A) (A) (A) (A) (A) (A) (A) (A) (A) (A)
                 (A) (A) (A) (A) (A) (A) (A) (A) (A) (A) (A) (A)
                 (A) (A) (A) (A) (A) (A) (A) (A) (A) (A) (A) (A)
                 (A) (A) (A) (A) (A) (A) (A) (A) (A) (A) (A) (A)
                 (A) (A) (A) (A) (A) (A) (A) (A) (A) (A) (A) (A)
                 (A) (A) (A) (A) (A) (A) (A) (A) (A) (A) (A) (A)
                 (A) (A) (A) (A) (A) (A) (A) (A) (A) (A) (A) (A)
                 (A) (A) (A) (A) (A) (A) (A) (A) (A) (A) (A) (A)
                 (A) (A) (A) (A) (A) (A) (A) (A) (A) (A) (A) (A)
                 (A) (A) (A) (A) (A) (A) (A) (A) (A) (A) (A) (A)
                 (A) (A) (A) (A) (A) (A) (A) (A) (A) (A) (A) (A)
                 (A) (A) (A) (A) (A) (A) (A) (A) (A) (A) (A) (A)
                 (A) (A) (A) (A) (A) (A) (A) (A) (A) (A) (A) (A)
                 (A) (A) (A) (A) (A) (A) (A) (A) (A) (A) (A) (A)
                 (A) (A) (A) (A) (A) (A) (A) (A) (A) (A) (A) (A)
                 (A) (A) (A) (A) (A) (A) (A) (A) (A) (A) (A) (A)
                 (A) (A) (A) (A) (A) (A) (A) (A) (A) (A) (A) (A)
                 (A) (A) (A) (A) (A) (A) (A) (A) (A) (A) (A) (A)
                 (A) (A) (A) (A) (A) (A) (A) (A) (A) (A) (A) (A)
                 (A) (A) (A) (A) (A) (A) (A) (A) (A) (A) (A) (A)
                 (A) (A) (A) (A) (A) (A) (A) (A) (A) (A) (A) (A)
                 (A) (A) (A) (A) (A) (A) (A) (A) (A) (A) (A) (A)
                 (A) (A) (A) (A) (A) (A) (A) (A) (A) (A) (A) (A)
                 (A) (A) (A) (A) (A) (A) (A) (A) (A) (A) (A) (A)
                 (A) (A) (A) (A) (A) (A) (A) (A) (A) (A) (A) (A)
                 (A) (A) (A) (A) (A) (A) (A) (A) (A) (A) (A) (A)
                 (A) (A) (A) (A) (A) (A) (A) (A) (A) (A) (A) (A)
                 (A) (A) (A) (A) (A) (A) (A) (A) (A) (A) (A) (A)
                 (A) (A) (A) (A) (A) (A) (A) (A) (A) (A) (A) (A)
                 (A) (A) (A) (A) (A) (A) (A) (A) (A) (A) (A) (A)
                 (A) (A) (A) (A) (A) (A) (A) (A) (A) (A) (A) (A)
                 (A) (A) (A) (A) (A) (A) (A) (A) (A) (A) (A) (A)
                 (A) (A) (A) (A) (A) (A) (A) (A) (A) (A) (A) (A)
                 (A) (A) (A) (A) (A) (A) (A) (A) (A) (A) (A) (A)
                 (A) (A) (A) (A) (A) (A) (A) (A) (A) (A) (A) (A)
                 (A) (A) (A) (A) (A) (A) (A) (A) (A) (A) (A) (A)
                 (A) (A) (A) (A) (A) (A) (A) (A) (A) (A) (A) (A)
                 (A) (A) (A) (A) (A) (A) (A) (A) (A) (A) (A) (A)
                 (A) (A) (A) (A) (A) (A) (A) (A) (A) (A) (A) (A)
                 (A) (A) (A) (A) (A) (A) (A) (A) (A) (A) (A) (A)
                 (A) (A) (A) (A) (A) (A) (A) (A) (A) (A) (A) (A)
                 (A) (A) (A) (A) (A) (A) (A) (A) (A) (A) (A) (A)
                 (A) (A) (A) (A) (A) (A) (A) (A) (A) (A) (A) (A)
                 (A) (A) (A) (A) (A) (A) (A) (A) (A) (A) (A) (A)
                 (A) (A) (A) (A) (A) (A) (A) (A) (A) (A) (A) (A)
                 (A) (A) (A) (A) (A) (A) (A) (A) (A) (A) (A) (A)
                 (A) (A) (A) (A) (A) (A) (A) (A) (A) (A) (A) (A)
                 (A) (A) (A) (A) (A) (A) (A) (A) (A) (A) (A) (A)
                 (A) (A) (A) (A) (A) (A) (A) (A) (A) (A) (A) (A)
                 (A) (A) (A) (A) (A) (A) (A) (A) (A) (A) (A) (A)
                 (A) (A) (A) (A) (A) (A) (A) (A) (A) (A) (A) (A)
                 (A) (A) (A) (A) (A) (A) (A) (A) (A) (A) (A) (A)
                 (A) (A) (A) (A) (A) (A) (A) (A) (A) (A) (A) (A)
                 (A) (A) (A) (A) (A) (A) (A) (A) (A) (A) (A) (A)
                 (A) (A) (A) (A) (A) (A) (A) (A) (A) (A) (A) (A)
                 (A) (A) (A) (A) (A) (A) (A) (A) (A) (A) (A) (A)
                 (A) (A) (A) (A) (A) (A) (A) (A) (A) (A) (A) (A)
                 (A) (A) (A) (A) (A) (A) (A) (A) (A) (A) (A) (A)
                 (A) (A) (A) (A) (A) (A) (A) (A) (A) (A) (A) (A)
                 (A) (A) (A) (A) (A) (A) (A) (A) (A) (A) (A) (A)
                 (A) (A) (A) (A) (A) (A) (A) (A) (A) (A) (A) (A)
                 (A) (A) (A) (A) (A) (A) (A)
 The electronic state is 1-A.
 Alpha  occ. eigenvalues --  -20.60489 -20.59390 -20.59390 -20.58498 -20.58498
 Alpha  occ. eigenvalues --  -20.57722 -20.57722 -20.57181 -20.57181 -20.55878
 Alpha  occ. eigenvalues --  -20.55878 -11.36628 -11.36626 -11.30887 -11.30886
 Alpha  occ. eigenvalues --  -11.30278 -11.30278 -11.30227 -11.30227 -11.30169
 Alpha  occ. eigenvalues --  -11.30169 -11.28304 -11.28304  -1.46579  -1.42088
 Alpha  occ. eigenvalues --   -1.39829  -1.39728  -1.38810  -1.38323  -1.36849
 Alpha  occ. eigenvalues --   -1.36389  -1.36388  -1.35884  -1.35246  -1.07700
 Alpha  occ. eigenvalues --   -1.07633  -1.07156  -1.04232  -0.96007  -0.93895
 Alpha  occ. eigenvalues --   -0.89657  -0.87677  -0.85767  -0.85493  -0.82672
 Alpha  occ. eigenvalues --   -0.79222  -0.75650  -0.75642  -0.73900  -0.73567
 Alpha  occ. eigenvalues --   -0.72429  -0.71191  -0.71150  -0.69504  -0.68264
 Alpha  occ. eigenvalues --   -0.67187  -0.67161  -0.66360  -0.66045  -0.63672
 Alpha  occ. eigenvalues --   -0.63652  -0.62948  -0.62699  -0.62579  -0.60515
 Alpha  occ. eigenvalues --   -0.60052  -0.59368  -0.58644  -0.58232  -0.57689
 Alpha  occ. eigenvalues --   -0.56147  -0.56141  -0.55024  -0.55014  -0.54583
 Alpha  occ. eigenvalues --   -0.54011  -0.51947  -0.51714  -0.51205  -0.50054
 Alpha  occ. eigenvalues --   -0.50019  -0.49288  -0.48758  -0.46820  -0.46560
 Alpha  occ. eigenvalues --   -0.46037  -0.45854  -0.44477  -0.44285  -0.43814
 Alpha  occ. eigenvalues --   -0.43532
 Alpha virt. eigenvalues --    0.11186   0.13447   0.13723   0.14726   0.15016
 Alpha virt. eigenvalues --    0.15332   0.15995   0.17166   0.17292   0.17870
 Alpha virt. eigenvalues --    0.18738   0.19709   0.19986   0.20671   0.21604
 Alpha virt. eigenvalues --    0.21978   0.23623   0.24868   0.24903   0.26191
 Alpha virt. eigenvalues --    0.26421   0.27174   0.27665   0.28124   0.28954
 Alpha virt. eigenvalues --    0.31324   0.32178   0.32679   0.32798   0.32987
 Alpha virt. eigenvalues --    0.34348   0.34903   0.35060   0.36441   0.36604
 Alpha virt. eigenvalues --    0.38031   0.38744   0.39926   0.40047   0.42203
 Alpha virt. eigenvalues --    0.42218   0.44112   0.44515   0.44707   0.45258
 Alpha virt. eigenvalues --    0.46250   0.46643   0.47320   0.48396   0.49186
 Alpha virt. eigenvalues --    0.49866   0.49897   0.49999   0.50634   0.51122
 Alpha virt. eigenvalues --    0.51902   0.52697   0.53176   0.53494   0.53878
 Alpha virt. eigenvalues --    0.54099   0.55316   0.55423   0.56212   0.56525
 Alpha virt. eigenvalues --    0.56832   0.56947   0.57071   0.57506   0.57817
 Alpha virt. eigenvalues --    0.58381   0.58382   0.59349   0.59425   0.60121
 Alpha virt. eigenvalues --    0.60613   0.60740   0.61197   0.61470   0.61583
 Alpha virt. eigenvalues --    0.62433   0.63025   0.63037   0.63523   0.63667
 Alpha virt. eigenvalues --    0.64263   0.64415   0.64593   0.64664   0.66169
 Alpha virt. eigenvalues --    0.66201   0.66975   0.67031   0.68139   0.68471
 Alpha virt. eigenvalues --    0.69270   0.69598   0.71080   0.71315   0.71422
 Alpha virt. eigenvalues --    0.71669   0.73007   0.74476   0.74631   0.75638
 Alpha virt. eigenvalues --    0.75962   0.76058   0.77800   0.78949   0.79387
 Alpha virt. eigenvalues --    0.80149   0.80770   0.81342   0.82145   0.82523
 Alpha virt. eigenvalues --    0.83073   0.83713   0.84154   0.84941   0.85981
 Alpha virt. eigenvalues --    0.87029   0.87158   0.87719   0.87958   0.88686
 Alpha virt. eigenvalues --    0.89724   0.89966   0.90229   0.91161   0.92952
 Alpha virt. eigenvalues --    0.93408   0.94232   0.94555   0.95236   0.95362
 Alpha virt. eigenvalues --    0.95797   0.96107   0.96506   0.97326   0.97550
 Alpha virt. eigenvalues --    0.98146   0.99040   1.00090   1.00588   1.00738
 Alpha virt. eigenvalues --    1.00977   1.02086   1.02286   1.04363   1.04476
 Alpha virt. eigenvalues --    1.04661   1.05714   1.05795   1.07197   1.07803
 Alpha virt. eigenvalues --    1.08580   1.08880   1.09644   1.10594   1.11012
 Alpha virt. eigenvalues --    1.11774   1.12498   1.14182   1.14356   1.14776
 Alpha virt. eigenvalues --    1.17215   1.17966   1.18107   1.18129   1.19818
 Alpha virt. eigenvalues --    1.20110   1.20915   1.21049   1.21724   1.22269
 Alpha virt. eigenvalues --    1.23357   1.23657   1.24548   1.24749   1.24992
 Alpha virt. eigenvalues --    1.26459   1.27205   1.27425   1.27755   1.28136
 Alpha virt. eigenvalues --    1.29306   1.29398   1.30110   1.31046   1.31500
 Alpha virt. eigenvalues --    1.32252   1.32492   1.33270   1.33517   1.35286
 Alpha virt. eigenvalues --    1.35384   1.36357   1.36955   1.37523   1.37953
 Alpha virt. eigenvalues --    1.38314   1.38951   1.39216   1.39603   1.40669
 Alpha virt. eigenvalues --    1.40909   1.42781   1.43188   1.43230   1.44453
 Alpha virt. eigenvalues --    1.45471   1.45798   1.46182   1.46652   1.47956
 Alpha virt. eigenvalues --    1.48438   1.49051   1.49083   1.49499   1.49781
 Alpha virt. eigenvalues --    1.50661   1.51157   1.51685   1.51701   1.52522
 Alpha virt. eigenvalues --    1.52717   1.53051   1.54529   1.54546   1.55163
 Alpha virt. eigenvalues --    1.55311   1.56445   1.56865   1.57072   1.57206
 Alpha virt. eigenvalues --    1.58113   1.58869   1.59309   1.60509   1.61378
 Alpha virt. eigenvalues --    1.62067   1.62201   1.63274   1.64811   1.65271
 Alpha virt. eigenvalues --    1.65402   1.66168   1.66539   1.68162   1.69014
 Alpha virt. eigenvalues --    1.69455   1.70379   1.70913   1.71106   1.72063
 Alpha virt. eigenvalues --    1.73031   1.73459   1.75465   1.77254   1.79042
 Alpha virt. eigenvalues --    1.79260   1.80438   1.81293   1.81646   1.82077
 Alpha virt. eigenvalues --    1.84416   1.85734   1.85920   1.87328   1.88396
 Alpha virt. eigenvalues --    1.90692   1.91684   1.93210   1.93919   1.95099
 Alpha virt. eigenvalues --    1.95940   1.98841   1.99152   2.00737   2.00940
 Alpha virt. eigenvalues --    2.02372   2.05723   2.05860   2.08828   2.11420
 Alpha virt. eigenvalues --    2.12920   2.13096   2.13308   2.15931   2.16079
 Alpha virt. eigenvalues --    2.17706   2.18090   2.18782   2.20893   2.21214
 Alpha virt. eigenvalues --    2.21363   2.23093   2.23825   2.24117   2.25568
 Alpha virt. eigenvalues --    2.25836   2.26369   2.27419   2.28494   2.28951
 Alpha virt. eigenvalues --    2.29344   2.30809   2.31914   2.32477   2.33421
 Alpha virt. eigenvalues --    2.34124   2.34678   2.35090   2.36383   2.38510
 Alpha virt. eigenvalues --    2.39511   2.39851   2.40020   2.40717   2.40936
 Alpha virt. eigenvalues --    2.41077   2.42449   2.42962   2.43846   2.44422
 Alpha virt. eigenvalues --    2.44572   2.46179   2.47357   2.47999   2.48396
 Alpha virt. eigenvalues --    2.49730   2.51875   2.52020   2.54464   2.56132
 Alpha virt. eigenvalues --    2.56918   2.57720   2.58112   2.60485   2.62312
 Alpha virt. eigenvalues --    2.63006   2.69469   2.71284   2.71703   2.72750
 Alpha virt. eigenvalues --    2.75006   2.75499   2.76934   2.77176   2.79350
 Alpha virt. eigenvalues --    2.80251   2.82326   2.83011   2.83591   2.84890
 Alpha virt. eigenvalues --    2.85565   2.86001   2.87432   2.88071   2.88526
 Alpha virt. eigenvalues --    2.88906   2.90347   2.90476   2.90753   2.91326
 Alpha virt. eigenvalues --    2.92858   2.93041   2.95234   2.95243   2.96215
 Alpha virt. eigenvalues --    2.96704   2.96873   2.98689   2.99820   3.00157
 Alpha virt. eigenvalues --    3.01829   3.01986   3.02817   3.03592   3.03801
 Alpha virt. eigenvalues --    3.05599   3.05697   3.06385   3.08594   3.08980
 Alpha virt. eigenvalues --    3.09142   3.10252   3.10579   3.11523   3.11964
 Alpha virt. eigenvalues --    3.12829   3.13420   3.15039   3.16224   3.16676
 Alpha virt. eigenvalues --    3.17173   3.17967   3.18080   3.18551   3.19439
 Alpha virt. eigenvalues --    3.20500   3.21002   3.21394   3.22882   3.23106
 Alpha virt. eigenvalues --    3.23519   3.24318   3.25069   3.25823   3.26308
 Alpha virt. eigenvalues --    3.26448   3.27567   3.28527   3.28644   3.28775
 Alpha virt. eigenvalues --    3.29378   3.30388   3.30426   3.31275   3.31344
 Alpha virt. eigenvalues --    3.33070   3.33766   3.33961   3.34305   3.36121
 Alpha virt. eigenvalues --    3.36217   3.37718   3.37991   3.38734   3.38899
 Alpha virt. eigenvalues --    3.39390   3.39622   3.40182   3.40354   3.40814
 Alpha virt. eigenvalues --    3.41809   3.42022   3.43027   3.43931   3.44545
 Alpha virt. eigenvalues --    3.44767   3.45058   3.46077   3.46320   3.47273
 Alpha virt. eigenvalues --    3.48502   3.48792   3.49275   3.49386   3.50042
 Alpha virt. eigenvalues --    3.50832   3.51068   3.52721   3.52968   3.53237
 Alpha virt. eigenvalues --    3.53948   3.54518   3.55577   3.56658   3.57011
 Alpha virt. eigenvalues --    3.58085   3.58498   3.58830   3.59265   3.59599
 Alpha virt. eigenvalues --    3.60453   3.60842   3.62455   3.62721   3.63527
 Alpha virt. eigenvalues --    3.64455   3.65040   3.65704   3.66537   3.66660
 Alpha virt. eigenvalues --    3.68005   3.68503   3.68919   3.70688   3.70771
 Alpha virt. eigenvalues --    3.71592   3.73606   3.73660   3.74004   3.74865
 Alpha virt. eigenvalues --    3.75171   3.77052   3.77237   3.77432   3.77725
 Alpha virt. eigenvalues --    3.78566   3.78814   3.79976   3.80477   3.81038
 Alpha virt. eigenvalues --    3.81844   3.81947   3.82122   3.82420   3.84072
 Alpha virt. eigenvalues --    3.84133   3.84787   3.84921   3.85321   3.87090
 Alpha virt. eigenvalues --    3.87694   3.87800   3.88426   3.88793   3.88982
 Alpha virt. eigenvalues --    3.90237   3.90252   3.91029   3.92297   3.92989
 Alpha virt. eigenvalues --    3.94925   3.95053   3.95695   3.96303   3.97218
 Alpha virt. eigenvalues --    3.97226   3.98319   3.98352   3.98868   3.99610
 Alpha virt. eigenvalues --    4.00932   4.01109   4.01531   4.01822   4.02661
 Alpha virt. eigenvalues --    4.03790   4.03879   4.04536   4.06076   4.06434
 Alpha virt. eigenvalues --    4.07130   4.08254   4.09127   4.09210   4.09531
 Alpha virt. eigenvalues --    4.10786   4.11004   4.12765   4.13917   4.13955
 Alpha virt. eigenvalues --    4.14576   4.14838   4.14943   4.15386   4.16655
 Alpha virt. eigenvalues --    4.16691   4.16999   4.17175   4.18275   4.18552
 Alpha virt. eigenvalues --    4.19054   4.19062   4.19605   4.20733   4.21038
 Alpha virt. eigenvalues --    4.22473   4.23185   4.23854   4.24572   4.24645
 Alpha virt. eigenvalues --    4.25231   4.25274   4.26443   4.26919   4.27897
 Alpha virt. eigenvalues --    4.27917   4.28322   4.28615   4.29037   4.29247
 Alpha virt. eigenvalues --    4.30509   4.31056   4.31750   4.32177   4.32526
 Alpha virt. eigenvalues --    4.33188   4.34564   4.34771   4.35751   4.36622
 Alpha virt. eigenvalues --    4.36822   4.37859   4.38658   4.40397   4.41631
 Alpha virt. eigenvalues --    4.42634   4.42868   4.43914   4.43965   4.45139
 Alpha virt. eigenvalues --    4.45143   4.46550   4.46917   4.47128   4.47602
 Alpha virt. eigenvalues --    4.48733   4.49012   4.49364   4.50634   4.51358
 Alpha virt. eigenvalues --    4.51933   4.52613   4.53880   4.54404   4.55216
 Alpha virt. eigenvalues --    4.55544   4.55697   4.56117   4.56595   4.56987
 Alpha virt. eigenvalues --    4.58430   4.58517   4.60082   4.60322   4.60866
 Alpha virt. eigenvalues --    4.61344   4.62218   4.62343   4.63320   4.63488
 Alpha virt. eigenvalues --    4.64753   4.66250   4.67293   4.68214   4.68833
 Alpha virt. eigenvalues --    4.68930   4.70458   4.71709   4.72900   4.73539
 Alpha virt. eigenvalues --    4.73541   4.74171   4.74743   4.76005   4.77437
 Alpha virt. eigenvalues --    4.77635   4.78422   4.79294   4.80427   4.80694
 Alpha virt. eigenvalues --    4.81064   4.82346   4.84642   4.85009   4.85201
 Alpha virt. eigenvalues --    4.86788   4.88520   4.90455   4.91663   4.92853
 Alpha virt. eigenvalues --    4.93533   4.94023   4.95850   4.96640   4.98844
 Alpha virt. eigenvalues --    5.00050   5.00438   5.00810   5.01786   5.02808
 Alpha virt. eigenvalues --    5.03326   5.04178   5.04989   5.07003   5.07511
 Alpha virt. eigenvalues --    5.07808   5.08557   5.09463   5.09469   5.11057
 Alpha virt. eigenvalues --    5.12870   5.12905   5.14208   5.14499   5.14929
 Alpha virt. eigenvalues --    5.16116   5.16751   5.17608   5.17657   5.20330
 Alpha virt. eigenvalues --    5.21382   5.22946   5.25392   5.25928   5.27166
 Alpha virt. eigenvalues --    5.27316   5.28552   5.29219   5.29994   5.30675
 Alpha virt. eigenvalues --    5.32484   5.32716   5.34044   5.34285   5.35263
 Alpha virt. eigenvalues --    5.35346   5.35743   5.36532   5.36906   5.37290
 Alpha virt. eigenvalues --    5.39354   5.39466   5.42442   5.42518   5.43099
 Alpha virt. eigenvalues --    5.44027   5.44846   5.46335   5.47576   5.48414
 Alpha virt. eigenvalues --    5.51381   5.51701   5.53473   5.55221   5.59473
 Alpha virt. eigenvalues --    5.59999   5.63404   5.63406   5.64933   5.65872
 Alpha virt. eigenvalues --    5.67111   5.70823   5.70950   5.71833   5.71954
 Alpha virt. eigenvalues --    5.75501   5.77195   5.77687   5.78593   5.78916
 Alpha virt. eigenvalues --    5.79769   5.80447   5.81142   5.82510   5.83730
 Alpha virt. eigenvalues --    5.86688   5.87069   5.90712   5.90806   5.94261
 Alpha virt. eigenvalues --    5.95237   5.95271   5.95580   5.96613   5.96667
 Alpha virt. eigenvalues --    5.96759   5.97300   5.97667   5.98290   5.99746
 Alpha virt. eigenvalues --    5.99951   6.01709   6.01734   6.08728   6.09617
 Alpha virt. eigenvalues --    6.12043   6.12173   6.12380   6.13135   6.14708
 Alpha virt. eigenvalues --    6.15164   6.15869   6.16526   6.16918   6.17220
 Alpha virt. eigenvalues --    6.18696   6.20438   6.21413   6.22572   6.28264
 Alpha virt. eigenvalues --    6.29113   6.30288   6.31125   6.33112   6.33461
 Alpha virt. eigenvalues --    6.34806   6.35376   6.39989   6.40117   6.43417
 Alpha virt. eigenvalues --    6.43494   6.50995   6.53832   6.62240   6.63029
 Alpha virt. eigenvalues --    6.63929   6.64175   6.65206   6.66302   6.68084
 Alpha virt. eigenvalues --    6.70528   6.71251   6.75766   6.76081   6.77300
 Alpha virt. eigenvalues --    6.77784   6.80045   6.87902   6.93424   6.95772
 Alpha virt. eigenvalues --    6.96442   6.96727   6.96741   6.97242   6.97262
 Alpha virt. eigenvalues --    6.97852   6.97872   6.97956   7.10121   7.10524
 Alpha virt. eigenvalues --    7.10861   7.11034   7.13751   7.14245   7.14519
 Alpha virt. eigenvalues --    7.14973   7.15050   7.15184   7.16168   7.16405
 Alpha virt. eigenvalues --    7.17191   7.17208   7.18073   7.18465   7.23305
 Alpha virt. eigenvalues --    7.24557   7.26447   7.26541   7.27655   7.28079
 Alpha virt. eigenvalues --    7.28670   7.28775   7.30117   7.30822   7.33316
 Alpha virt. eigenvalues --    7.33434   7.34565   7.37603   7.37914   7.40218
 Alpha virt. eigenvalues --    7.40351   7.40417   7.41573   7.42505   7.44959
 Alpha virt. eigenvalues --    7.45382   7.48338   7.51199   7.51879   7.52594
 Alpha virt. eigenvalues --    7.52901   7.54522   7.55153   7.56282   7.57079
 Alpha virt. eigenvalues --    7.63033   7.66379   7.69315   7.69333   7.71124
 Alpha virt. eigenvalues --    7.72232   7.75970   7.76575   7.80676   7.80761
 Alpha virt. eigenvalues --    7.83673   7.87780   7.91331   7.91564   7.92502
 Alpha virt. eigenvalues --    7.93415   7.94558   7.95177   7.97731   7.97767
 Alpha virt. eigenvalues --    7.98660   8.01809   8.09963   8.14592  11.38934
 Alpha virt. eigenvalues --   11.53769  11.59630  11.88748  12.12072  12.24193
 Alpha virt. eigenvalues --   12.36535  12.41496  12.42040  12.68253  12.71426
 Alpha virt. eigenvalues --   12.84800  12.94804  13.13806  13.16816  13.26353
 Alpha virt. eigenvalues --   13.29475  13.61881  13.63934  13.72039  13.73081
 Alpha virt. eigenvalues --   13.89348  13.97563
          Condensed to atoms (all electrons):
               1          2          3          4          5          6
     1  C    4.830628   0.326033   0.244072  -0.028413  -0.059421   0.022764
     2  C    0.326033   4.762894  -0.022582   0.005545   0.355512  -0.064143
     3  C    0.244072  -0.022582   4.996375   0.244231  -0.000813  -0.055850
     4  O   -0.028413   0.005545   0.244231   8.053240  -0.038971   0.327778
     5  C   -0.059421   0.355512  -0.000813  -0.038971   4.838664   0.329761
     6  C    0.022764  -0.064143  -0.055850   0.327778   0.329761   4.544825
     7  O   -0.000166   0.001507   0.008238  -0.044838  -0.045463   0.251226
     8  C   -0.000981   0.000799  -0.000726   0.006210  -0.001005  -0.012389
     9  O    0.000003   0.000022  -0.000113  -0.000240   0.000224   0.006209
    10  C    0.000123  -0.000402  -0.000288   0.000224   0.001633  -0.001005
    11  C    0.000011  -0.000050  -0.000076  -0.000113  -0.000288  -0.000726
    12  C    0.000003  -0.000017   0.000011   0.000003   0.000123  -0.000981
    13  C   -0.000017   0.000058  -0.000050   0.000022  -0.000402   0.000799
    14  H    0.424541  -0.043349  -0.041629   0.003343   0.000837   0.002999
    15  O    0.285666  -0.028321  -0.031332   0.001125   0.005247  -0.000586
    16  H   -0.046131   0.401438   0.004275   0.000951  -0.031469   0.005878
    17  O   -0.027800   0.300241   0.001353  -0.000136  -0.039111   0.006611
    18  H   -0.026999  -0.009777   0.358861  -0.035032   0.001110   0.000798
    19  C   -0.035916   0.001781   0.361439  -0.036800   0.000233  -0.001565
    20  O    0.005339  -0.030461  -0.000189   0.001987   0.279442  -0.030761
    21  H   -0.001455  -0.039417   0.002172   0.001683   0.423186  -0.026307
    22  H   -0.001033   0.004093   0.004335  -0.022568  -0.033719   0.416715
    23  H    0.000882  -0.000133  -0.003378   0.007039  -0.000468  -0.003639
    24  H   -0.000002   0.000001   0.000017   0.000006   0.000006   0.000095
    25  O   -0.000100   0.000029  -0.001466   0.000007  -0.000147   0.000168
    26  H   -0.000036   0.000078   0.000027   0.000085   0.000521  -0.003528
    27  C   -0.000000   0.000001  -0.000001  -0.000002  -0.000025  -0.000059
    28  O   -0.000000   0.000000  -0.000000   0.000000   0.000000  -0.000001
    29  H    0.000000  -0.000000   0.000000   0.000000   0.000002  -0.000019
    30  O    0.000000   0.000000   0.000000   0.000000   0.000001  -0.000007
    31  H   -0.000004   0.000019   0.000006   0.000017  -0.000173   0.000342
    32  H    0.008009   0.000056  -0.075233   0.000273  -0.000163  -0.000272
    33  H   -0.004898  -0.000337  -0.033030   0.002963  -0.000028   0.000177
    34  O    0.002643  -0.000297  -0.043466  -0.003122   0.000029   0.000007
    35  H    0.000000  -0.000000  -0.000000   0.000000  -0.000001  -0.000166
    36  H    0.000000  -0.000000   0.000000  -0.000000   0.000002   0.000018
    37  O    0.000000  -0.000001  -0.000001   0.000002  -0.000028  -0.002099
    38  H    0.000000  -0.000001   0.000002  -0.000009   0.000040   0.000458
    39  H   -0.000167   0.000415   0.001093   0.000030  -0.000786  -0.000255
    40  H    0.000000  -0.000000   0.000001   0.000000   0.000001  -0.000006
    41  H    0.000000  -0.000000  -0.000000  -0.000000   0.000000  -0.000000
    42  H    0.000943   0.002203  -0.000097   0.000083  -0.050441  -0.007244
    43  H    0.007882  -0.031578  -0.001095  -0.000021  -0.011062   0.001196
    44  H   -0.036156  -0.003312   0.007021  -0.000231   0.000916  -0.000208
    45  H   -0.000314  -0.000103  -0.006624   0.007987   0.000077  -0.000071
               7          8          9         10         11         12
     1  C   -0.000166  -0.000981   0.000003   0.000123   0.000011   0.000003
     2  C    0.001507   0.000799   0.000022  -0.000402  -0.000050  -0.000017
     3  C    0.008238  -0.000726  -0.000113  -0.000288  -0.000076   0.000011
     4  O   -0.044838   0.006210  -0.000240   0.000224  -0.000113   0.000003
     5  C   -0.045463  -0.001005   0.000224   0.001633  -0.000288   0.000123
     6  C    0.251226  -0.012389   0.006209  -0.001005  -0.000726  -0.000981
     7  O    8.209392   0.251226  -0.044838  -0.045463   0.008238  -0.000166
     8  C    0.251226   4.544824   0.327778   0.329762  -0.055850   0.022765
     9  O   -0.044838   0.327778   8.053241  -0.038971   0.244230  -0.028413
    10  C   -0.045463   0.329762  -0.038971   4.838664  -0.000813  -0.059421
    11  C    0.008238  -0.055850   0.244230  -0.000813   4.996376   0.244072
    12  C   -0.000166   0.022765  -0.028413  -0.059421   0.244072   4.830629
    13  C    0.001507  -0.064143   0.005545   0.355512  -0.022582   0.326033
    14  H    0.000014  -0.000019   0.000000   0.000002   0.000000   0.000000
    15  O    0.000007  -0.000001   0.000000   0.000000  -0.000000  -0.000000
    16  H    0.001589   0.000342   0.000017  -0.000173   0.000006  -0.000004
    17  O   -0.000040  -0.000007   0.000000   0.000001   0.000000   0.000000
    18  H    0.002870  -0.003528   0.000085   0.000521   0.000027  -0.000036
    19  C    0.000428  -0.000059  -0.000002  -0.000025  -0.000001  -0.000000
    20  O   -0.002536   0.000168   0.000007  -0.000147  -0.001466  -0.000100
    21  H    0.002762   0.000095   0.000006   0.000006   0.000017  -0.000002
    22  H   -0.033966  -0.003639   0.007039  -0.000468  -0.003378   0.000882
    23  H   -0.033966   0.416716  -0.022568  -0.033719   0.004335  -0.001033
    24  H    0.002762  -0.026307   0.001683   0.423186   0.002172  -0.001455
    25  O   -0.002536  -0.030761   0.001987   0.279443  -0.000189   0.005339
    26  H    0.002870   0.000798  -0.035032   0.001110   0.358861  -0.026999
    27  C    0.000428  -0.001565  -0.036800   0.000233   0.361438  -0.035916
    28  O    0.000007  -0.000586   0.001125   0.005247  -0.031332   0.285665
    29  H    0.000014   0.002999   0.003343   0.000837  -0.041629   0.424541
    30  O   -0.000040   0.006611  -0.000136  -0.039111   0.001353  -0.027799
    31  H    0.001589   0.005878   0.000951  -0.031469   0.004275  -0.046131
    32  H    0.000024  -0.000166   0.000000  -0.000001  -0.000000   0.000000
    33  H    0.000021   0.000018  -0.000000   0.000002   0.000000   0.000000
    34  O   -0.000010  -0.002099   0.000002  -0.000028  -0.000001   0.000000
    35  H    0.000024  -0.000272   0.000273  -0.000163  -0.075233   0.008009
    36  H    0.000021   0.000177   0.002963  -0.000028  -0.033031  -0.004898
    37  O   -0.000010   0.000007  -0.003122   0.000029  -0.043466   0.002643
    38  H    0.000023  -0.000071   0.007987   0.000077  -0.006624  -0.000314
    39  H    0.009716  -0.007244   0.000083  -0.050441  -0.000097   0.000943
    40  H   -0.000025   0.001196  -0.000021  -0.011062  -0.001095   0.007882
    41  H    0.000003  -0.000208  -0.000231   0.000916   0.007021  -0.036156
    42  H    0.009716  -0.000255   0.000030  -0.000786   0.001094  -0.000167
    43  H   -0.000025  -0.000006   0.000000   0.000001   0.000001   0.000000
    44  H    0.000003  -0.000000  -0.000000   0.000000  -0.000000   0.000000
    45  H    0.000023   0.000458  -0.000009   0.000040   0.000002   0.000000
              13         14         15         16         17         18
     1  C   -0.000017   0.424541   0.285666  -0.046131  -0.027800  -0.026999
     2  C    0.000058  -0.043349  -0.028321   0.401438   0.300241  -0.009777
     3  C   -0.000050  -0.041629  -0.031332   0.004275   0.001353   0.358861
     4  O    0.000022   0.003343   0.001125   0.000951  -0.000136  -0.035032
     5  C   -0.000402   0.000837   0.005247  -0.031469  -0.039111   0.001110
     6  C    0.000799   0.002999  -0.000586   0.005878   0.006611   0.000798
     7  O    0.001507   0.000014   0.000007   0.001589  -0.000040   0.002870
     8  C   -0.064143  -0.000019  -0.000001   0.000342  -0.000007  -0.003528
     9  O    0.005545   0.000000   0.000000   0.000017   0.000000   0.000085
    10  C    0.355512   0.000002   0.000000  -0.000173   0.000001   0.000521
    11  C   -0.022582   0.000000  -0.000000   0.000006   0.000000   0.000027
    12  C    0.326033   0.000000  -0.000000  -0.000004   0.000000  -0.000036
    13  C    4.762894  -0.000000   0.000000   0.000019   0.000000   0.000078
    14  H   -0.000000   0.580397  -0.034748   0.008513   0.002360   0.007616
    15  O    0.000000  -0.034748   7.885041   0.006817  -0.003096   0.008637
    16  H    0.000019   0.008513   0.006817   0.597881  -0.036847   0.001618
    17  O    0.000000   0.002360  -0.003096  -0.036847   7.887642  -0.000001
    18  H    0.000078   0.007616   0.008637   0.001618  -0.000001   0.591542
    19  C    0.000001  -0.006712  -0.004438  -0.000216  -0.000017  -0.020590
    20  O    0.000029   0.000080  -0.000040  -0.001243  -0.002313   0.000006
    21  H    0.000001   0.002724   0.000044   0.005975   0.003609   0.000163
    22  H   -0.000133  -0.000081   0.000019  -0.000131  -0.000140  -0.000125
    23  H    0.004093  -0.000001  -0.000006   0.000022  -0.000000   0.001916
    24  H   -0.039417  -0.000000   0.000000  -0.000000   0.000000  -0.000136
    25  O   -0.030461  -0.000001   0.000001   0.000188   0.000000   0.005074
    26  H   -0.009777  -0.000000   0.000000  -0.000039  -0.000002   0.000029
    27  C    0.001781  -0.000000  -0.000000   0.000000   0.000000  -0.000000
    28  O   -0.028321  -0.000000   0.000000   0.000000  -0.000000   0.000000
    29  H   -0.043348   0.000000  -0.000000  -0.000000   0.000000  -0.000000
    30  O    0.300241   0.000000  -0.000000  -0.000002  -0.000000  -0.000002
    31  H    0.401439  -0.000000   0.000000   0.000100  -0.000002  -0.000039
    32  H   -0.000000   0.002562   0.000315  -0.000052  -0.000012   0.008270
    33  H   -0.000000   0.000797   0.008081  -0.000008  -0.000005  -0.002278
    34  O   -0.000001   0.000124   0.000027  -0.000003   0.000000   0.004279
    35  H    0.000056   0.000000  -0.000000   0.000000   0.000000   0.000000
    36  H   -0.000337   0.000000  -0.000000  -0.000000   0.000000  -0.000000
    37  O   -0.000297   0.000000  -0.000000   0.000000   0.000000   0.000000
    38  H   -0.000103  -0.000000  -0.000000  -0.000000   0.000000  -0.000001
    39  H    0.002203  -0.000010  -0.000082   0.001114  -0.000014  -0.001883
    40  H   -0.031578   0.000000  -0.000000  -0.000002  -0.000000  -0.000009
    41  H   -0.003312  -0.000000  -0.000000   0.000000   0.000000   0.000000
    42  H    0.000415  -0.000004  -0.000016   0.001708   0.000188  -0.000069
    43  H   -0.000000  -0.000272  -0.000355  -0.004189   0.342456  -0.000030
    44  H   -0.000000  -0.003560   0.337654  -0.000823   0.008504  -0.000451
    45  H   -0.000001  -0.000045  -0.000021  -0.000002   0.000000  -0.001377
              19         20         21         22         23         24
     1  C   -0.035916   0.005339  -0.001455  -0.001033   0.000882  -0.000002
     2  C    0.001781  -0.030461  -0.039417   0.004093  -0.000133   0.000001
     3  C    0.361439  -0.000189   0.002172   0.004335  -0.003378   0.000017
     4  O   -0.036800   0.001987   0.001683  -0.022568   0.007039   0.000006
     5  C    0.000233   0.279442   0.423186  -0.033719  -0.000468   0.000006
     6  C   -0.001565  -0.030761  -0.026307   0.416715  -0.003639   0.000095
     7  O    0.000428  -0.002536   0.002762  -0.033966  -0.033966   0.002762
     8  C   -0.000059   0.000168   0.000095  -0.003639   0.416716  -0.026307
     9  O   -0.000002   0.000007   0.000006   0.007039  -0.022568   0.001683
    10  C   -0.000025  -0.000147   0.000006  -0.000468  -0.033719   0.423186
    11  C   -0.000001  -0.001466   0.000017  -0.003378   0.004335   0.002172
    12  C   -0.000000  -0.000100  -0.000002   0.000882  -0.001033  -0.001455
    13  C    0.000001   0.000029   0.000001  -0.000133   0.004093  -0.039417
    14  H   -0.006712   0.000080   0.002724  -0.000081  -0.000001  -0.000000
    15  O   -0.004438  -0.000040   0.000044   0.000019  -0.000006   0.000000
    16  H   -0.000216  -0.001243   0.005975  -0.000131   0.000022  -0.000000
    17  O   -0.000017  -0.002313   0.003609  -0.000140  -0.000000   0.000000
    18  H   -0.020590   0.000006   0.000163  -0.000125   0.001916  -0.000136
    19  C    4.526900   0.000008   0.000114  -0.000338  -0.000370   0.000001
    20  O    0.000008   7.888351  -0.022058   0.002638  -0.000057  -0.000000
    21  H    0.000114  -0.022058   0.510133  -0.006469  -0.000001  -0.000001
    22  H   -0.000338   0.002638  -0.006469   0.525973  -0.000841  -0.000001
    23  H   -0.000370  -0.000057  -0.000001  -0.000841   0.525973  -0.006469
    24  H    0.000001  -0.000000  -0.000001  -0.000001  -0.006469   0.510133
    25  O   -0.000009   0.000002  -0.000000  -0.000057   0.002638  -0.022058
    26  H   -0.000000   0.005075  -0.000136   0.001916  -0.000125   0.000163
    27  C    0.000000  -0.000009   0.000001  -0.000370  -0.000338   0.000114
    28  O   -0.000000   0.000001   0.000000  -0.000006   0.000019   0.000044
    29  H   -0.000000  -0.000001  -0.000000  -0.000001  -0.000081   0.002724
    30  O    0.000000   0.000000   0.000000  -0.000000  -0.000140   0.003609
    31  H    0.000000   0.000188  -0.000000   0.000022  -0.000131   0.005974
    32  H    0.447628   0.000001   0.000059  -0.000068   0.000330  -0.000000
    33  H    0.414093   0.000000  -0.000009   0.000018  -0.000095   0.000000
    34  O    0.325586  -0.000000  -0.000001   0.000053   0.006153  -0.000008
    35  H   -0.000000  -0.000001  -0.000000   0.000330  -0.000068   0.000059
    36  H    0.000000  -0.000004   0.000000  -0.000095   0.000018  -0.000009
    37  O   -0.000000   0.000000  -0.000008   0.006154   0.000053  -0.000001
    38  H    0.000000  -0.000007   0.000003  -0.000468   0.000009  -0.000005
    39  H    0.000035   0.000015   0.000001   0.000067  -0.000767   0.006044
    40  H    0.000000   0.000000   0.000000  -0.000001  -0.000042  -0.000716
    41  H   -0.000000   0.000000  -0.000000   0.000002   0.000002  -0.000006
    42  H    0.000003   0.341776   0.006044  -0.000767   0.000067   0.000001
    43  H    0.000005   0.011653  -0.000716  -0.000042  -0.000001   0.000000
    44  H    0.000433  -0.000020  -0.000006   0.000002   0.000002  -0.000000
    45  H   -0.036997  -0.000001  -0.000005   0.000009  -0.000468   0.000003
              25         26         27         28         29         30
     1  C   -0.000100  -0.000036  -0.000000  -0.000000   0.000000   0.000000
     2  C    0.000029   0.000078   0.000001   0.000000  -0.000000   0.000000
     3  C   -0.001466   0.000027  -0.000001  -0.000000   0.000000   0.000000
     4  O    0.000007   0.000085  -0.000002   0.000000   0.000000   0.000000
     5  C   -0.000147   0.000521  -0.000025   0.000000   0.000002   0.000001
     6  C    0.000168  -0.003528  -0.000059  -0.000001  -0.000019  -0.000007
     7  O   -0.002536   0.002870   0.000428   0.000007   0.000014  -0.000040
     8  C   -0.030761   0.000798  -0.001565  -0.000586   0.002999   0.006611
     9  O    0.001987  -0.035032  -0.036800   0.001125   0.003343  -0.000136
    10  C    0.279443   0.001110   0.000233   0.005247   0.000837  -0.039111
    11  C   -0.000189   0.358861   0.361438  -0.031332  -0.041629   0.001353
    12  C    0.005339  -0.026999  -0.035916   0.285665   0.424541  -0.027799
    13  C   -0.030461  -0.009777   0.001781  -0.028321  -0.043348   0.300241
    14  H   -0.000001  -0.000000  -0.000000  -0.000000   0.000000   0.000000
    15  O    0.000001   0.000000  -0.000000   0.000000  -0.000000  -0.000000
    16  H    0.000188  -0.000039   0.000000   0.000000  -0.000000  -0.000002
    17  O    0.000000  -0.000002   0.000000  -0.000000   0.000000  -0.000000
    18  H    0.005074   0.000029  -0.000000   0.000000  -0.000000  -0.000002
    19  C   -0.000009  -0.000000   0.000000  -0.000000  -0.000000   0.000000
    20  O    0.000002   0.005075  -0.000009   0.000001  -0.000001   0.000000
    21  H   -0.000000  -0.000136   0.000001   0.000000  -0.000000   0.000000
    22  H   -0.000057   0.001916  -0.000370  -0.000006  -0.000001  -0.000000
    23  H    0.002638  -0.000125  -0.000338   0.000019  -0.000081  -0.000140
    24  H   -0.022058   0.000163   0.000114   0.000044   0.002724   0.003609
    25  O    7.888351   0.000006   0.000008  -0.000040   0.000080  -0.002313
    26  H    0.000006   0.591541  -0.020590   0.008637   0.007616  -0.000001
    27  C    0.000008  -0.020590   4.526900  -0.004438  -0.006712  -0.000017
    28  O   -0.000040   0.008637  -0.004438   7.885041  -0.034747  -0.003096
    29  H    0.000080   0.007616  -0.006712  -0.034747   0.580396   0.002360
    30  O   -0.002313  -0.000001  -0.000017  -0.003096   0.002360   7.887643
    31  H   -0.001243   0.001618  -0.000216   0.006817   0.008513  -0.036847
    32  H   -0.000001   0.000000  -0.000000  -0.000000   0.000000   0.000000
    33  H   -0.000004  -0.000000   0.000000  -0.000000   0.000000   0.000000
    34  O    0.000000   0.000000  -0.000000  -0.000000   0.000000   0.000000
    35  H    0.000001   0.008270   0.447628   0.000315   0.002562  -0.000012
    36  H    0.000000  -0.002278   0.414093   0.008081   0.000797  -0.000005
    37  O   -0.000000   0.004279   0.325586   0.000027   0.000124   0.000000
    38  H   -0.000001  -0.001377  -0.036997  -0.000021  -0.000045   0.000000
    39  H    0.341776  -0.000069   0.000003  -0.000016  -0.000004   0.000188
    40  H    0.011653  -0.000030   0.000005  -0.000355  -0.000272   0.342456
    41  H   -0.000020  -0.000451   0.000433   0.337654  -0.003560   0.008504
    42  H    0.000015  -0.001884   0.000035  -0.000082  -0.000010  -0.000014
    43  H    0.000000  -0.000009   0.000000  -0.000000   0.000000  -0.000000
    44  H    0.000000   0.000000  -0.000000  -0.000000  -0.000000   0.000000
    45  H   -0.000007  -0.000001   0.000000  -0.000000  -0.000000   0.000000
              31         32         33         34         35         36
     1  C   -0.000004   0.008009  -0.004898   0.002643   0.000000   0.000000
     2  C    0.000019   0.000056  -0.000337  -0.000297  -0.000000  -0.000000
     3  C    0.000006  -0.075233  -0.033030  -0.043466  -0.000000   0.000000
     4  O    0.000017   0.000273   0.002963  -0.003122   0.000000  -0.000000
     5  C   -0.000173  -0.000163  -0.000028   0.000029  -0.000001   0.000002
     6  C    0.000342  -0.000272   0.000177   0.000007  -0.000166   0.000018
     7  O    0.001589   0.000024   0.000021  -0.000010   0.000024   0.000021
     8  C    0.005878  -0.000166   0.000018  -0.002099  -0.000272   0.000177
     9  O    0.000951   0.000000  -0.000000   0.000002   0.000273   0.002963
    10  C   -0.031469  -0.000001   0.000002  -0.000028  -0.000163  -0.000028
    11  C    0.004275  -0.000000   0.000000  -0.000001  -0.075233  -0.033031
    12  C   -0.046131   0.000000   0.000000   0.000000   0.008009  -0.004898
    13  C    0.401439  -0.000000  -0.000000  -0.000001   0.000056  -0.000337
    14  H   -0.000000   0.002562   0.000797   0.000124   0.000000   0.000000
    15  O    0.000000   0.000315   0.008081   0.000027  -0.000000  -0.000000
    16  H    0.000100  -0.000052  -0.000008  -0.000003   0.000000  -0.000000
    17  O   -0.000002  -0.000012  -0.000005   0.000000   0.000000   0.000000
    18  H   -0.000039   0.008270  -0.002278   0.004279   0.000000  -0.000000
    19  C    0.000000   0.447628   0.414093   0.325586  -0.000000   0.000000
    20  O    0.000188   0.000001   0.000000  -0.000000  -0.000001  -0.000004
    21  H   -0.000000   0.000059  -0.000009  -0.000001  -0.000000   0.000000
    22  H    0.000022  -0.000068   0.000018   0.000053   0.000330  -0.000095
    23  H   -0.000131   0.000330  -0.000095   0.006153  -0.000068   0.000018
    24  H    0.005974  -0.000000   0.000000  -0.000008   0.000059  -0.000009
    25  O   -0.001243  -0.000001  -0.000004   0.000000   0.000001   0.000000
    26  H    0.001618   0.000000  -0.000000   0.000000   0.008270  -0.002278
    27  C   -0.000216  -0.000000   0.000000  -0.000000   0.447628   0.414093
    28  O    0.006817  -0.000000  -0.000000  -0.000000   0.000315   0.008081
    29  H    0.008513   0.000000   0.000000   0.000000   0.002562   0.000797
    30  O   -0.036847   0.000000   0.000000   0.000000  -0.000012  -0.000005
    31  H    0.597880   0.000000  -0.000000   0.000000  -0.000052  -0.000008
    32  H    0.000000   0.634160  -0.041124  -0.044102  -0.000000   0.000000
    33  H   -0.000000  -0.041124   0.556334  -0.024540   0.000000   0.000000
    34  O    0.000000  -0.044102  -0.024540   7.868013  -0.000000  -0.000000
    35  H   -0.000052  -0.000000   0.000000  -0.000000   0.634159  -0.041124
    36  H   -0.000008   0.000000   0.000000  -0.000000  -0.041124   0.556334
    37  O   -0.000003  -0.000000  -0.000000  -0.000000  -0.044102  -0.024540
    38  H   -0.000002  -0.000000  -0.000000  -0.000000  -0.009060   0.007434
    39  H    0.001708  -0.000003   0.000002  -0.000019  -0.000000   0.000000
    40  H   -0.004189   0.000000   0.000000  -0.000000  -0.000001   0.000002
    41  H   -0.000823  -0.000000   0.000000  -0.000000  -0.000001  -0.000393
    42  H    0.001114  -0.000000   0.000000  -0.000000  -0.000003   0.000002
    43  H   -0.000002  -0.000001   0.000002  -0.000000   0.000000   0.000000
    44  H    0.000000  -0.000001  -0.000393   0.000007  -0.000000   0.000000
    45  H   -0.000000  -0.009060   0.007434   0.336192  -0.000000  -0.000000
              37         38         39         40         41         42
     1  C    0.000000   0.000000  -0.000167   0.000000   0.000000   0.000943
     2  C   -0.000001  -0.000001   0.000415  -0.000000  -0.000000   0.002203
     3  C   -0.000001   0.000002   0.001093   0.000001  -0.000000  -0.000097
     4  O    0.000002  -0.000009   0.000030   0.000000  -0.000000   0.000083
     5  C   -0.000028   0.000040  -0.000786   0.000001   0.000000  -0.050441
     6  C   -0.002099   0.000458  -0.000255  -0.000006  -0.000000  -0.007244
     7  O   -0.000010   0.000023   0.009716  -0.000025   0.000003   0.009716
     8  C    0.000007  -0.000071  -0.007244   0.001196  -0.000208  -0.000255
     9  O   -0.003122   0.007987   0.000083  -0.000021  -0.000231   0.000030
    10  C    0.000029   0.000077  -0.050441  -0.011062   0.000916  -0.000786
    11  C   -0.043466  -0.006624  -0.000097  -0.001095   0.007021   0.001094
    12  C    0.002643  -0.000314   0.000943   0.007882  -0.036156  -0.000167
    13  C   -0.000297  -0.000103   0.002203  -0.031578  -0.003312   0.000415
    14  H    0.000000  -0.000000  -0.000010   0.000000  -0.000000  -0.000004
    15  O   -0.000000  -0.000000  -0.000082  -0.000000  -0.000000  -0.000016
    16  H    0.000000  -0.000000   0.001114  -0.000002   0.000000   0.001708
    17  O    0.000000   0.000000  -0.000014  -0.000000   0.000000   0.000188
    18  H    0.000000  -0.000001  -0.001883  -0.000009   0.000000  -0.000069
    19  C   -0.000000   0.000000   0.000035   0.000000  -0.000000   0.000003
    20  O    0.000000  -0.000007   0.000015   0.000000   0.000000   0.341776
    21  H   -0.000008   0.000003   0.000001   0.000000  -0.000000   0.006044
    22  H    0.006154  -0.000468   0.000067  -0.000001   0.000002  -0.000767
    23  H    0.000053   0.000009  -0.000767  -0.000042   0.000002   0.000067
    24  H   -0.000001  -0.000005   0.006044  -0.000716  -0.000006   0.000001
    25  O   -0.000000  -0.000001   0.341776   0.011653  -0.000020   0.000015
    26  H    0.004279  -0.001377  -0.000069  -0.000030  -0.000451  -0.001884
    27  C    0.325586  -0.036997   0.000003   0.000005   0.000433   0.000035
    28  O    0.000027  -0.000021  -0.000016  -0.000355   0.337654  -0.000082
    29  H    0.000124  -0.000045  -0.000004  -0.000272  -0.003560  -0.000010
    30  O    0.000000   0.000000   0.000188   0.342456   0.008504  -0.000014
    31  H   -0.000003  -0.000002   0.001708  -0.004189  -0.000823   0.001114
    32  H   -0.000000  -0.000000  -0.000003   0.000000  -0.000000  -0.000000
    33  H   -0.000000  -0.000000   0.000002   0.000000   0.000000   0.000000
    34  O   -0.000000  -0.000000  -0.000019  -0.000000  -0.000000  -0.000000
    35  H   -0.044102  -0.009060  -0.000000  -0.000001  -0.000001  -0.000003
    36  H   -0.024540   0.007434   0.000000   0.000002  -0.000393   0.000002
    37  O    7.868013   0.336192  -0.000000  -0.000000   0.000007  -0.000019
    38  H    0.336192   0.469438   0.000000   0.000000   0.000003   0.000007
    39  H   -0.000000   0.000000   0.450369  -0.000031  -0.000004   0.000071
    40  H   -0.000000   0.000000  -0.000031   0.441507  -0.000635  -0.000001
    41  H    0.000007   0.000003  -0.000004  -0.000635   0.444253   0.000002
    42  H   -0.000019   0.000007   0.000071  -0.000001   0.000002   0.450369
    43  H   -0.000000   0.000000  -0.000001  -0.000000   0.000000  -0.000031
    44  H   -0.000000  -0.000000   0.000002   0.000000  -0.000000  -0.000004
    45  H   -0.000000  -0.000000   0.000007   0.000000  -0.000000   0.000000
              43         44         45
     1  C    0.007882  -0.036156  -0.000314
     2  C   -0.031578  -0.003312  -0.000103
     3  C   -0.001095   0.007021  -0.006624
     4  O   -0.000021  -0.000231   0.007987
     5  C   -0.011062   0.000916   0.000077
     6  C    0.001196  -0.000208  -0.000071
     7  O   -0.000025   0.000003   0.000023
     8  C   -0.000006  -0.000000   0.000458
     9  O    0.000000  -0.000000  -0.000009
    10  C    0.000001   0.000000   0.000040
    11  C    0.000001  -0.000000   0.000002
    12  C    0.000000   0.000000   0.000000
    13  C   -0.000000  -0.000000  -0.000001
    14  H   -0.000272  -0.003560  -0.000045
    15  O   -0.000355   0.337654  -0.000021
    16  H   -0.004189  -0.000823  -0.000002
    17  O    0.342456   0.008504   0.000000
    18  H   -0.000030  -0.000451  -0.001377
    19  C    0.000005   0.000433  -0.036997
    20  O    0.011653  -0.000020  -0.000001
    21  H   -0.000716  -0.000006  -0.000005
    22  H   -0.000042   0.000002   0.000009
    23  H   -0.000001   0.000002  -0.000468
    24  H    0.000000  -0.000000   0.000003
    25  O    0.000000   0.000000  -0.000007
    26  H   -0.000009   0.000000  -0.000001
    27  C    0.000000  -0.000000   0.000000
    28  O   -0.000000  -0.000000  -0.000000
    29  H    0.000000  -0.000000  -0.000000
    30  O   -0.000000   0.000000   0.000000
    31  H   -0.000002   0.000000  -0.000000
    32  H   -0.000001  -0.000001  -0.009060
    33  H    0.000002  -0.000393   0.007434
    34  O   -0.000000   0.000007   0.336192
    35  H    0.000000  -0.000000  -0.000000
    36  H    0.000000   0.000000  -0.000000
    37  O   -0.000000  -0.000000  -0.000000
    38  H    0.000000  -0.000000  -0.000000
    39  H   -0.000001   0.000002   0.000007
    40  H   -0.000000   0.000000   0.000000
    41  H    0.000000  -0.000000  -0.000000
    42  H   -0.000031  -0.000004   0.000000
    43  H    0.441508  -0.000635   0.000000
    44  H   -0.000635   0.444252   0.000003
    45  H    0.000000   0.000003   0.469438
 Mulliken charges:
               1
     1  C    0.110464
     2  C    0.111556
     3  C    0.084509
     4  O   -0.454340
     5  C    0.076418
     6  C    0.293061
     7  O   -0.512164
     8  C    0.293061
     9  O   -0.454341
    10  C    0.076418
    11  C    0.084509
    12  C    0.110464
    13  C    0.111556
    14  H    0.093520
    15  O   -0.435639
    16  H    0.082884
    17  O   -0.443424
    18  H    0.108862
    19  C    0.065368
    20  O   -0.445355
    21  H    0.137796
    22  H    0.138637
    23  H    0.138637
    24  H    0.137796
    25  O   -0.445355
    26  H    0.108863
    27  C    0.065368
    28  O   -0.435639
    29  H    0.093521
    30  O   -0.443425
    31  H    0.082885
    32  H    0.068570
    33  H    0.116807
    34  O   -0.425422
    35  H    0.068571
    36  H    0.116807
    37  O   -0.425422
    38  H    0.233433
    39  H    0.246010
    40  H    0.245366
    41  H    0.246999
    42  H    0.246010
    43  H    0.245366
    44  H    0.247000
    45  H    0.233433
 Sum of Mulliken charges =  -0.00000
 Mulliken charges with hydrogens summed into heavy atoms:
               1
     1  C    0.203984
     2  C    0.194440
     3  C    0.193371
     4  O   -0.454340
     5  C    0.214214
     6  C    0.431698
     7  O   -0.512164
     8  C    0.431698
     9  O   -0.454341
    10  C    0.214214
    11  C    0.193371
    12  C    0.203985
    13  C    0.194440
    15  O   -0.188639
    17  O   -0.198059
    19  C    0.250745
    20  O   -0.199345
    25  O   -0.199345
    27  C    0.250746
    28  O   -0.188639
    30  O   -0.198059
    34  O   -0.191988
    37  O   -0.191988
 Electronic spatial extent (au):  <R**2>=           8099.2740
 Charge=             -0.0000 electrons
 Dipole moment (field-independent basis, Debye):
    X=             -0.0000    Y=              0.0000    Z=             -1.5828  Tot=              1.5828
 Quadrupole moment (field-independent basis, Debye-Ang):
   XX=           -144.0732   YY=           -154.1382   ZZ=           -131.6540
   XY=             15.5044   XZ=              0.0000   YZ=             -0.0002
 Traceless Quadrupole moment (field-independent basis, Debye-Ang):
   XX=             -0.7847   YY=            -10.8497   ZZ=             11.6344
   XY=             15.5044   XZ=              0.0000   YZ=             -0.0002
 Octapole moment (field-independent basis, Debye-Ang**2):
  XXX=             -0.0004  YYY=              0.0006  ZZZ=            -33.1707  XYY=             -0.0004
  XXY=              0.0003  XXZ=            -12.2402  XZZ=              0.0003  YZZ=             -0.0002
  YYZ=            -24.3152  XYZ=             28.4969
 Hexadecapole moment (field-independent basis, Debye-Ang**3):
 XXXX=          -6481.9341 YYYY=          -1907.4173 ZZZZ=          -1554.4523 XXXY=            145.8874
 XXXZ=             -0.0005 YYYX=            120.2380 YYYZ=             -0.0004 ZZZX=              0.0020
 ZZZY=             -0.0022 XXYY=          -1520.6619 XXZZ=          -1381.3943 YYZZ=           -622.0652
 XXYZ=             -0.0007 YYXZ=             -0.0009 ZZXY=            112.1618
 N-N= 2.333141384435D+03 E-N=-7.707597474788D+03  KE= 1.288946122958D+03
 1\1\GINC-C7028\SP\RMP2-FC\CC-pVTZ\C12H22O11\UVIQOPSC\12-Jul-2018\0\\# 
 mp2/cc-pVTZ\\aagtxgtx6060_single_point\\0,1\C\C,1,1.5264958\C,1,1.5314
 329,2,109.74936249\O,3,1.44808018,1,109.77414873,2,-55.43615636,0\C,2,
 1.53149675,1,110.68639582,3,55.31620628,0\C,4,1.40571444,3,116.7916491
 2,1,57.46762588,0\O,6,1.43203073,4,112.88810879,3,64.8826499,0\C,7,1.4
 3203035,6,115.39009575,4,64.6929836,0\O,8,1.40571464,7,112.88815262,6,
 64.69272284,0\C,8,1.53601984,7,106.62851602,6,-172.62119739,0\C,9,1.44
 808123,8,116.79157522,7,64.8824953,0\C,11,1.53143241,9,109.77410328,8,
 57.46774119,0\C,12,1.52649583,11,109.74938412,9,-55.43623894,0\H,1,1.1
 0182668,2,108.28593771,5,-63.67111832,0\O,1,1.42146898,2,111.49371548,
 5,174.79927579,0\H,2,1.10148788,1,108.36768159,15,54.93407453,0\O,2,1.
 42366572,1,107.43909698,15,-63.50492796,0\H,3,1.09727397,1,109.7041929
 5,15,-56.93296213,0\C,3,1.52451749,1,113.15284647,15,65.01908771,0\O,5
 ,1.42316336,2,111.10625466,1,-178.62063385,0\H,5,1.09475191,2,108.6137
 296,1,65.43909217,0\H,6,1.0930793,4,105.51004106,3,-175.91818228,0\H,8
 ,1.09307922,7,109.21214057,6,-52.33978025,0\H,10,1.09475185,8,107.7258
 1191,7,168.75925659,0\O,10,1.42316339,8,112.53384305,7,52.55604907,0\H
 ,11,1.09727392,9,109.3397157,8,-62.92320689,0\C,11,1.5245171,9,105.757
 29458,8,179.85098992,0\O,12,1.42146959,11,107.89025474,9,-177.10250818
 ,0\H,12,1.10182624,11,109.09028478,9,63.0550385,0\O,13,1.4236661,12,10
 7.43914014,11,177.01202584,0\H,13,1.10148777,12,108.36774413,11,-64.54
 89294,0\H,19,1.10043494,3,109.23460476,1,56.65217181,0\H,19,1.09153765
 ,3,109.01677604,1,-61.75044488,0\O,19,1.42077849,3,111.96736186,1,-179
 .9083062,0\H,27,1.10043356,11,109.23463745,9,-63.54497237,0\H,27,1.091
 53774,11,109.01675705,9,178.05236994,0\O,27,1.420779,11,111.96736495,9
 ,59.8945862,0\H,37,0.96698049,27,107.57548717,11,-61.48085289,0\H,25,0
 .96902181,10,107.72954036,8,-45.51154128,0\H,30,0.96852353,13,108.0530
 966,12,-171.93470192,0\H,28,0.96825518,12,107.56069532,11,172.27959833
 ,0\H,20,0.96902139,5,107.72951725,2,79.43969137,0\H,17,0.96852339,2,10
 8.05308072,1,-171.93483825,0\H,15,0.96825577,1,107.56073177,2,51.70041
 161,0\H,34,0.9669805,19,107.57553565,3,-61.48060852,0\\Version=ES64L-G
 09RevE.01\State=1-A\HF=-1291.1584821\MP2=-1295.7910949\RMSD=1.534e-09\
 PG=C01 [X(C12H22O11)]\\@


 THE MOST BEAUTIFUL EXPERIENCE WE CAN HAVE IS THE MYSTERIOUS.
 IT IS THE FUNDAMENTAL EMOTION WHICH STANDS AT AT THE CRADLE 
 OF TRUE ART AND TRUE SCIENCE.

                                    -- ALBERT EINSTEIN
 Job cpu time:       1 days  1 hours 15 minutes 21.3 seconds.
 File lengths (MBytes):  RWF=    532 Int=      0 D2E=      0 Chk=     58 Scr=      1
 Normal termination of Gaussian 09 at Thu Jul 12 01:32:33 2018.
