 Entering Gaussian System, Link 0=g09
 Input=cis_2_6_DiMe_cyclOMe_ecl.gjf
 Output=cis_2_6_DiMe_cyclOMe_ecl.out
 Initial command:
 /usr/local/g09/l1.exe /home/scratch/stylianakis/Gau-25557.inp -scrdir=/home/scratch/stylianakis/
 Entering Link 1 = /usr/local/g09/l1.exe PID=     25558.
  
 Copyright (c) 1988,1990,1992,1993,1995,1998,2003,2009, Gaussian, Inc.
                  All Rights Reserved.
  
 This is part of the Gaussian(R) 09 program.  It is based on
 the Gaussian(R) 03 system (copyright 2003, Gaussian, Inc.),
 the Gaussian(R) 98 system (copyright 1998, Gaussian, Inc.),
 the Gaussian(R) 94 system (copyright 1995, Gaussian, Inc.),
 the Gaussian 92(TM) system (copyright 1992, Gaussian, Inc.),
 the Gaussian 90(TM) system (copyright 1990, Gaussian, Inc.),
 the Gaussian 88(TM) system (copyright 1988, Gaussian, Inc.),
 the Gaussian 86(TM) system (copyright 1986, Carnegie Mellon
 University), and the Gaussian 82(TM) system (copyright 1983,
 Carnegie Mellon University). Gaussian is a federally registered
 trademark of Gaussian, Inc.
  
 This software contains proprietary and confidential information,
 including trade secrets, belonging to Gaussian, Inc.
  
 This software is provided under written license and may be
 used, copied, transmitted, or stored only in accord with that
 written license.
  
 The following legend is applicable only to US Government
 contracts under FAR:
  
                    RESTRICTED RIGHTS LEGEND
  
 Use, reproduction and disclosure by the US Government is
 subject to restrictions as set forth in subparagraphs (a)
 and (c) of the Commercial Computer Software - Restricted
 Rights clause in FAR 52.227-19.
  
 Gaussian, Inc.
 340 Quinnipiac St., Bldg. 40, Wallingford CT 06492
  
  
 ---------------------------------------------------------------
 Warning -- This program may not be used in any manner that
 competes with the business of Gaussian, Inc. or will provide
 assistance to any competitor of Gaussian, Inc.  The licensee
 of this program is prohibited from giving any competitor of
 Gaussian, Inc. access to this program.  By using this program,
 the user acknowledges that Gaussian, Inc. is engaged in the
 business of creating and licensing software in the field of
 computational chemistry and represents and warrants to the
 licensee that it is not a competitor of Gaussian, Inc. and that
 it will not use this program in any manner prohibited above.
 ---------------------------------------------------------------
  

 Cite this work as:
 Gaussian 09, Revision A.01,
 M. J. Frisch, G. W. Trucks, H. B. Schlegel, G. E. Scuseria, 
 M. A. Robb, J. R. Cheeseman, G. Scalmani, V. Barone, B. Mennucci, 
 G. A. Petersson, H. Nakatsuji, M. Caricato, X. Li, H. P. Hratchian, 
 A. F. Izmaylov, J. Bloino, G. Zheng, J. L. Sonnenberg, M. Hada, 
 M. Ehara, K. Toyota, R. Fukuda, J. Hasegawa, M. Ishida, T. Nakajima, 
 Y. Honda, O. Kitao, H. Nakai, T. Vreven, J. A. Montgomery, Jr., 
 J. E. Peralta, F. Ogliaro, M. Bearpark, J. J. Heyd, E. Brothers, 
 K. N. Kudin, V. N. Staroverov, R. Kobayashi, J. Normand, 
 K. Raghavachari, A. Rendell, J. C. Burant, S. S. Iyengar, J. Tomasi, 
 M. Cossi, N. Rega, J. M. Millam, M. Klene, J. E. Knox, J. B. Cross, 
 V. Bakken, C. Adamo, J. Jaramillo, R. Gomperts, R. E. Stratmann, 
 O. Yazyev, A. J. Austin, R. Cammi, C. Pomelli, J. W. Ochterski, 
 R. L. Martin, K. Morokuma, V. G. Zakrzewski, G. A. Voth, 
 P. Salvador, J. J. Dannenberg, S. Dapprich, A. D. Daniels, 
 O. Farkas, J. B. Foresman, J. V. Ortiz, J. Cioslowski, 
 and D. J. Fox, Gaussian, Inc., Wallingford CT, 2009.
 
 ******************************************
 Gaussian 09:  EM64L-G09RevA.01  8-May-2009
                 4-Mar-2016 
 ******************************************
 %mem=8000Mb
 %nproc=8
 Will use up to    8 processors via shared memory.
 -------------
 # mp2/cc-pVTZ
 -------------
 1/38=1/1;
 2/12=2,17=6,18=5,40=1/2;
 3/5=16,6=1,11=9,16=1,25=1,30=1/1,2,3;
 4//1;
 5/5=2,38=5/2;
 8/10=1/1;
 9/16=-3/6;
 6/7=2,8=2,9=2,10=2/1;
 99/5=1,9=1/99;
 -------------------------------------
 cis_2_6_DiMe_cyclOMe_ecl_single_point
 -------------------------------------
 Symbolic Z-matrix:
 Charge =  0 Multiplicity = 1
 c
 c                    1    cc2
 c                    2    cc3      1    ccc3
 c                    3    cc4      2    ccc4     1    dih4     0
 c                    4    cc5      3    ccc5     2    dih5     0
 c                    5    cc6      4    ccc6     3    dih6     0
 c                    2    cc7      3    ccc7     4    dih7     0
 c                    6    cc8      5    ccc8     4    dih8     0
 o                    1    oc9      2    occ9     3    dih9     0
 c                    9    co10     1    coc10    2    dih10    0
 h                    3    hc11     4    hcc11    5    dih11    0
 h                    4    hc12     3    hcc12    2    dih12    0
 h                    4    hc13     3    hcc13    2    dih13    0
 h                    5    hc14     4    hcc14    3    dih14    0
 h                    5    hc15     4    hcc15    3    dih15    0
 h                    2    hc16     3    hcc16    4    dih16    0
 h                    6    hc17     5    hcc17    4    dih17    0
 h                    1    hc18     2    hcc18    3    dih18    0
 h                    10   hc19     9    hco19    1    dih19    0
 h                    10   hc20     9    hco20    1    dih20    0
 h                    10   hc21     9    hco21    1    dih21    0
 h                    7    hc22     2    hcc22    3    dih22    0
 h                    7    hc23     2    hcc23    3    dih23    0
 h                    7    hc24     2    hcc24    3    dih24    0
 h                    3    hc25     4    hcc25    5    dih25    0
 h                    8    hc26     6    hcc26    5    dih26    0
 h                    8    hc27     6    hcc27    5    dih27    0
 h                    8    hc28     6    hcc28    5    dih28    0
       Variables:
  cc2                   1.54233                  
  cc3                   1.54086                  
  ccc3                110.615                    
  cc4                   1.53328                  
  ccc4                112.367                    
  dih4                 54.527                    
  cc5                   1.53328                  
  ccc5                110.877                    
  dih5                -54.943                    
  cc6                   1.54086                  
  ccc6                112.368                    
  dih6                 54.942                    
  cc7                   1.53396                  
  ccc7                111.383                    
  dih7               -179.996                    
  cc8                   1.53396                  
  ccc8                111.384                    
  dih8               -179.999                    
  oc9                   1.43693                  
  occ9                109.099                    
  dih9               -175.338                    
  co10                  1.41655                  
  coc10               115.816                    
  dih10              -118.446                    
  hc11                  1.09755                  
  hcc11               110.48                     
  dih11              -177.299                    
  hc12                  1.09712                  
  hcc12               110.274                    
  dih12              -177.37                     
  hc13                  1.09936                  
  hcc13               109.382                    
  dih13                65.77                     
  hc14                  1.10104                  
  hcc14               109.294                    
  dih14               -66.155                    
  hc15                  1.09755                  
  hcc15               110.481                    
  dih15               177.298                    
  hc16                  1.10065                  
  hcc16               108.148                    
  dih16               -61.471                    
  hc17                  1.10065                  
  hcc17               108.149                    
  dih17                61.474                    
  hc18                  1.10407                  
  hcc18               108.62                     
  dih18                65.949                    
  hc19                  1.09328                  
  hco19               106.787                    
  dih19               179.991                    
  hc20                  1.09993                  
  hco20               111.952                    
  dih20               -61.114                    
  hc21                  1.09992                  
  hco21               111.955                    
  dih21                61.094                    
  hc22                  1.09594                  
  hcc22               110.673                    
  dih22                57.58                     
  hc23                  1.09342                  
  hcc23               111.211                    
  dih23               177.507                    
  hc24                  1.0979                   
  hcc24               111.113                    
  dih24               -61.735                    
  hc25                  1.10104                  
  hcc25               109.294                    
  dih25                66.154                    
  hc26                  1.0979                   
  hcc26               111.112                    
  dih26                61.728                    
  hc27                  1.09594                  
  hcc27               110.674                    
  dih27               -57.588                    
  hc28                  1.09342                  
  hcc28               111.21                     
  dih28              -177.517                    
 
                          Input orientation:                          
 ---------------------------------------------------------------------
 Center     Atomic      Atomic             Coordinates (Angstroms)
 Number     Number       Type             X           Y           Z
 ---------------------------------------------------------------------
      1          6           0        0.000000    0.000000    0.000000
      2          6           0        0.000000    0.000000    1.542326
      3          6           0        1.442198    0.000000    2.084844
      4          6           0        2.278023    1.154744    1.520116
      5          6           0        2.263874    1.140719   -0.013038
      6          6           0        0.833769    1.157465   -0.586422
      7          6           0       -0.815345   -1.163187    2.121317
      8          6           0        0.845954    1.143003   -2.120264
      9          8           0       -1.353340    0.110361   -0.470165
     10          6           0       -1.827380   -0.975918   -1.245977
     11          1           0        1.417316    0.044298    3.181215
     12          1           0        3.308704    1.095043    1.891329
     13          1           0        1.870446    2.110216    1.880043
     14          1           0        2.783434    0.239344   -0.373420
     15          1           0        2.823898    1.997062   -0.410100
     16          1           0       -0.482286    0.940061    1.850724
     17          1           0        0.343969    2.087136   -0.258955
     18          1           0        0.426412   -0.955447   -0.352520
     19          1           0       -2.858748   -0.740532   -1.521903
     20          1           0       -1.238437   -1.112917   -2.164790
     21          1           0       -1.819562   -1.919381   -0.680605
     22          1           0       -0.831021   -1.117443    3.216195
     23          1           0       -1.850015   -1.135068    1.768862
     24          1           0       -0.380335   -2.130622    1.838089
     25          1           0        1.921877   -0.956727    1.826246
     26          1           0        1.320220    0.229940   -2.503372
     27          1           0        1.411909    1.996402   -2.510766
     28          1           0       -0.168459    1.199073   -2.524464
 ---------------------------------------------------------------------
                    Distance matrix (angstroms):
                    1          2          3          4          5
     1  C    0.000000
     2  C    1.542326   0.000000
     3  C    2.535056   1.540864   0.000000
     4  C    2.972133   2.554078   1.533282   0.000000
     5  C    2.535061   2.974142   2.525371   1.533283   0.000000
     6  C    1.542332   2.562512   2.974151   2.554091   1.540860
     7  C    2.552994   1.533957   2.539850   3.911928   4.398301
     8  C    2.552961   3.928951   4.398283   3.911946   2.539863
     9  O    1.436929   2.427721   3.788837   4.270686   3.788778
    10  C    2.417476   3.473667   4.768325   5.389371   4.768506
    11  H    3.482941   2.167188   1.097548   2.175582   3.481674
    12  H    3.965321   3.502634   2.172651   1.097117   2.172641
    13  H    3.389122   2.840006   2.162950   1.099361   2.162976
    14  H    2.818552   3.387459   2.810562   2.163071   1.101043
    15  H    3.482935   3.971728   3.481680   2.175595   1.097547
    16  H    2.131078   1.100647   2.154569   2.788315   3.324947
    17  H    2.131082   2.778321   3.325002   2.788372   2.154580
    18  H    1.104073   2.164520   2.808103   3.374631   2.808100
    19  H    3.322200   4.255623   5.661727   6.263575   5.661893
    20  H    2.731049   4.063868   5.146240   5.575510   4.687760
    21  H    2.730943   3.454888   4.687303   5.575268   5.146291
    22  H    3.504738   2.177410   2.774196   4.207811   5.010551
    23  H    2.799965   2.182258   3.496697   4.727135   5.027768
    24  H    2.839503   2.184418   2.814617   4.238114   4.595670
    25  H    2.818530   2.165536   1.101041   2.163068   2.810553
    26  H    2.839494   4.261869   4.595593   4.238054   2.814563
    27  H    3.504719   4.733568   5.010606   4.207916   2.774290
    28  H    2.799835   4.243223   5.027695   4.727142   3.496701
                    6          7          8          9         10
     6  C    0.000000
     7  C    3.928977   0.000000
     8  C    1.533958   5.105824   0.000000
     9  O    2.427631   2.937200   2.937017   0.000000
    10  C    3.473910   3.521073   3.521493   1.416545   0.000000
    11  H    3.971745   2.750669   5.444197   4.584046   5.582913
    12  H    3.502635   4.707471   4.707475   5.317980   6.364820
    13  H    2.840051   4.241092   4.241172   4.462701   5.741964
    14  H    2.165528   4.598046   2.760778   4.139916   4.847456
    15  H    2.167170   5.444203   2.750698   4.583947   5.583161
    16  H    2.778300   2.146579   4.192154   2.614128   3.881985
    17  H    1.100649   4.192173   2.146590   2.614022   3.882174
    18  H    2.164497   2.775786   2.775685   2.077813   2.424513
    19  H    4.255843   4.198474   4.198875   2.023962   1.093280
    20  H    3.455419   4.307233   3.071781   2.093172   1.099928
    21  H    4.063990   3.071001   4.307643   2.093203   1.099922
    22  H    4.733565   1.095945   6.033213   3.920405   4.574247
    23  H    4.243320   1.093415   5.251966   2.609793   3.019121
    24  H    4.261903   1.097899   5.281000   3.361069   3.597046
    25  H    3.387440   2.760811   4.597979   4.139955   4.847251
    26  H    2.184407   5.281022   1.097900   3.360975   3.597572
    27  H    2.177421   6.033231   1.095942   3.920180   4.574645
    28  H    2.182247   5.251859   1.093415   2.609479   3.019459
                   11         12         13         14         15
    11  H    0.000000
    12  H    2.518972   0.000000
    13  H    2.483223   1.760479   0.000000
    14  H    3.813103   2.477341   3.067867   0.000000
    15  H    4.323113   2.518979   2.483270   1.758567   0.000000
    16  H    2.486179   3.794374   2.627827   4.012824   4.142395
    17  H    4.142467   3.794420   2.627923   3.062422   2.486163
    18  H    3.803769   4.188911   4.058062   2.642635   3.803757
    19  H    6.404686   7.284020   6.485775   5.840667   6.404919
    20  H    6.080456   6.481025   6.034436   4.605764   5.408648
    21  H    5.408056   6.480796   6.034131   5.093332   6.080577
    22  H    2.530985   4.877263   4.415995   5.271669   6.017358
    23  H    3.749813   5.621456   4.938224   5.286514   6.033537
    24  H    3.125031   4.900690   4.801301   4.529564   5.688519
    25  H    1.758572   2.477355   3.067846   2.647904   3.813103
    26  H    5.688447   4.900599   4.801304   2.584140   3.124989
    27  H    6.017424   4.877369   4.416155   3.088136   2.531109
    28  H    6.033487   5.621452   4.938320   3.776473   3.749870
                   16         17         18         19         20
    16  H    0.000000
    17  H    2.539533   0.000000
    18  H    3.045155   3.045138   0.000000
    19  H    4.454950   4.455125   3.493697   0.000000
    20  H    4.572837   4.046796   2.465937   1.782521   0.000000
    21  H    4.046274   4.572837   2.466010   1.782519   1.786308
    22  H    2.493882   4.870996   3.787229   5.167525   5.396389
    23  H    2.486672   4.394110   3.116832   3.464439   3.980972
    24  H    3.072401   4.765679   2.613550   4.400503   4.218424
    25  H    3.062418   4.012849   2.642619   5.840481   5.093167
    26  H    4.765654   3.072402   2.613465   4.401007   2.909403
    27  H    4.870979   2.493869   3.787169   5.167898   4.100232
    28  H    4.394070   2.486719   3.116596   3.464801   2.572842
                   21         22         23         24         25
    21  H    0.000000
    22  H    4.099435   0.000000
    23  H    2.572150   1.770150   0.000000
    24  H    2.908576   1.768849   1.776479   0.000000
    25  H    4.605363   3.088080   3.776541   2.584251   0.000000
    26  H    4.219039   6.257534   5.492323   5.226129   4.529433
    27  H    5.396782   6.893828   6.225871   6.257557   5.271690
    28  H    3.981295   6.225786   5.168026   5.492143   5.286365
                   26         27         28
    26  H    0.000000
    27  H    1.768856   0.000000
    28  H    1.776466   1.770166   0.000000
 Stoichiometry    C9H18O
 Framework group  C1[X(C9H18O)]
 Deg. of freedom    78
 Full point group                 C1      NOp   1
 Largest Abelian subgroup         C1      NOp   1
 Largest concise Abelian subgroup C1      NOp   1
                         Standard orientation:                         
 ---------------------------------------------------------------------
 Center     Atomic      Atomic             Coordinates (Angstroms)
 Number     Number       Type             X           Y           Z
 ---------------------------------------------------------------------
      1          6           0        0.471380    0.000125    0.076626
      2          6           0       -0.290493   -1.281271   -0.318777
      3          6           0       -1.719067   -1.262974    0.258373
      4          6           0       -2.492898   -0.000443   -0.139315
      5          6           0       -1.719552    1.262397    0.258340
      6          6           0       -0.290976    1.281240   -0.318777
      7          6           0        0.462592   -2.552806    0.092427
      8          6           0        0.461662    2.553018    0.092495
      9          8           0        1.756373    0.000456   -0.566459
     10          6           0        2.878718    0.000253    0.297799
     11          1           0       -2.255210   -2.161948   -0.071792
     12          1           0       -3.486035   -0.000619    0.326887
     13          1           0       -2.657275   -0.000511   -1.226317
     14          1           0       -1.662878    1.323693    1.356213
     15          1           0       -2.256017    2.161165   -0.071857
     16          1           0       -0.364220   -1.269785   -1.416892
     17          1           0       -0.364656    1.269748   -1.416897
     18          1           0        0.616932    0.000175    1.171063
     19          1           0        3.767497    0.000384   -0.338857
     20          1           0        2.903753    0.893286    0.939444
     21          1           0        2.903763   -0.893023    0.939095
     22          1           0       -0.080698   -3.446891   -0.233983
     23          1           0        1.460070   -2.583774   -0.354377
     24          1           0        0.570943   -2.612942    1.183310
     25          1           0       -1.662354   -1.324211    1.356246
     26          1           0        0.569860    2.613187    1.183392
     27          1           0       -0.081847    3.446936   -0.233997
     28          1           0        1.459199    2.584251   -0.354161
 ---------------------------------------------------------------------
 Rotational constants (GHZ):      1.5335264      1.2547474      0.7439281
 Standard basis: CC-pVTZ (5D, 7F)
 There are   552 symmetry adapted basis functions of A   symmetry.
 Integral buffers will be    131072 words long.
 Raffenetti 1 integral format.
 Two-electron integral symmetry is turned on.
   552 basis functions,   826 primitive gaussians,   620 cartesian basis functions
    40 alpha electrons       40 beta electrons
       nuclear repulsion energy       597.4308787170 Hartrees.
 NAtoms=   28 NActive=   28 NUniq=   28 SFac= 7.50D-01 NAtFMM=   80 NAOKFM=F Big=F
 One-electron integrals computed using PRISM.
 NBasis=   552 RedAO= T  NBF=   552
 NBsUse=   552 1.00D-06 NBFU=   552
 Harris functional with IExCor=  205 diagonalized for initial guess.
 ExpMin= 1.03D-01 ExpMax= 1.53D+04 ExpMxC= 5.22D+02 IAcc=1 IRadAn=         1 AccDes= 0.00D+00
 HarFok:  IExCor=  205 AccDes= 0.00D+00 IRadAn=         1 IDoV= 1
 ScaDFX=  1.000000  1.000000  1.000000  1.000000
 FoFCou: FMM=F IPFlag=           0 FMFlag=      100000 FMFlg1=           0
         NFxFlg=           0 DoJE=T BraDBF=F KetDBF=T FulRan=T
         Omega=  0.000000  0.000000  1.000000  0.000000  0.000000 ICntrl=     500 IOpCl=  0
         NMat0=    1 NMatS0=    1 NMatT0=    0 NMatD0=    1 NMtDS0=    0 NMtDT0=    0
         I1Cent=           4 NGrid=           0.
 Petite list used in FoFCou.
 Initial guess orbital symmetries:
       Occupied  (A) (A) (A) (A) (A) (A) (A) (A) (A) (A) (A) (A)
                 (A) (A) (A) (A) (A) (A) (A) (A) (A) (A) (A) (A)
                 (A) (A) (A) (A) (A) (A) (A) (A) (A) (A) (A) (A)
                 (A) (A) (A) (A)
       Virtual   (A) (A) (A) (A) (A) (A) (A) (A) (A) (A) (A) (A)
                 (A) (A) (A) (A) (A) (A) (A) (A) (A) (A) (A) (A)
                 (A) (A) (A) (A) (A) (A) (A) (A) (A) (A) (A) (A)
                 (A) (A) (A) (A) (A) (A) (A) (A) (A) (A) (A) (A)
                 (A) (A) (A) (A) (A) (A) (A) (A) (A) (A) (A) (A)
                 (A) (A) (A) (A) (A) (A) (A) (A) (A) (A) (A) (A)
                 (A) (A) (A) (A) (A) (A) (A) (A) (A) (A) (A) (A)
                 (A) (A) (A) (A) (A) (A) (A) (A) (A) (A) (A) (A)
                 (A) (A) (A) (A) (A) (A) (A) (A) (A) (A) (A) (A)
                 (A) (A) (A) (A) (A) (A) (A) (A) (A) (A) (A) (A)
                 (A) (A) (A) (A) (A) (A) (A) (A) (A) (A) (A) (A)
                 (A) (A) (A) (A) (A) (A) (A) (A) (A) (A) (A) (A)
                 (A) (A) (A) (A) (A) (A) (A) (A) (A) (A) (A) (A)
                 (A) (A) (A) (A) (A) (A) (A) (A) (A) (A) (A) (A)
                 (A) (A) (A) (A) (A) (A) (A) (A) (A) (A) (A) (A)
                 (A) (A) (A) (A) (A) (A) (A) (A) (A) (A) (A) (A)
                 (A) (A) (A) (A) (A) (A) (A) (A) (A) (A) (A) (A)
                 (A) (A) (A) (A) (A) (A) (A) (A) (A) (A) (A) (A)
                 (A) (A) (A) (A) (A) (A) (A) (A) (A) (A) (A) (A)
                 (A) (A) (A) (A) (A) (A) (A) (A) (A) (A) (A) (A)
                 (A) (A) (A) (A) (A) (A) (A) (A) (A) (A) (A) (A)
                 (A) (A) (A) (A) (A) (A) (A) (A) (A) (A) (A) (A)
                 (A) (A) (A) (A) (A) (A) (A) (A) (A) (A) (A) (A)
                 (A) (A) (A) (A) (A) (A) (A) (A) (A) (A) (A) (A)
                 (A) (A) (A) (A) (A) (A) (A) (A) (A) (A) (A) (A)
                 (A) (A) (A) (A) (A) (A) (A) (A) (A) (A) (A) (A)
                 (A) (A) (A) (A) (A) (A) (A) (A) (A) (A) (A) (A)
                 (A) (A) (A) (A) (A) (A) (A) (A) (A) (A) (A) (A)
                 (A) (A) (A) (A) (A) (A) (A) (A) (A) (A) (A) (A)
                 (A) (A) (A) (A) (A) (A) (A) (A) (A) (A) (A) (A)
                 (A) (A) (A) (A) (A) (A) (A) (A) (A) (A) (A) (A)
                 (A) (A) (A) (A) (A) (A) (A) (A) (A) (A) (A) (A)
                 (A) (A) (A) (A) (A) (A) (A) (A) (A) (A) (A) (A)
                 (A) (A) (A) (A) (A) (A) (A) (A) (A) (A) (A) (A)
                 (A) (A) (A) (A) (A) (A) (A) (A) (A) (A) (A) (A)
                 (A) (A) (A) (A) (A) (A) (A) (A) (A) (A) (A) (A)
                 (A) (A) (A) (A) (A) (A) (A) (A) (A) (A) (A) (A)
                 (A) (A) (A) (A) (A) (A) (A) (A) (A) (A) (A) (A)
                 (A) (A) (A) (A) (A) (A) (A) (A) (A) (A) (A) (A)
                 (A) (A) (A) (A) (A) (A) (A) (A) (A) (A) (A) (A)
                 (A) (A) (A) (A) (A) (A) (A) (A) (A) (A) (A) (A)
                 (A) (A) (A) (A) (A) (A) (A) (A) (A) (A) (A) (A)
                 (A) (A) (A) (A) (A) (A) (A) (A)
 The electronic state of the initial guess is 1-A.
 Requested convergence on RMS density matrix=1.00D-08 within 128 cycles.
 Requested convergence on MAX density matrix=1.00D-06.
 Requested convergence on             energy=1.00D-06.
 No special actions if energy rises.
 Integral accuracy reduced to 1.0D-05 until final iterations.
 Initial convergence to 1.0D-05 achieved.  Increase integral accuracy.
 SCF Done:  E(RHF) =  -426.299562111     A.U. after   12 cycles
             Convg  =    0.3396D-08             -V/T =  2.0018
 ExpMin= 1.03D-01 ExpMax= 1.53D+04 ExpMxC= 5.22D+02 IAcc=1 IRadAn=         1 AccDes= 0.00D+00
 HarFok:  IExCor=  205 AccDes= 0.00D+00 IRadAn=         1 IDoV=-2
 ScaDFX=  1.000000  1.000000  1.000000  1.000000
 Range of M.O.s used for correlation:    11   552
 NBasis=   552 NAE=    40 NBE=    40 NFC=    10 NFV=     0
 NROrb=    542 NOA=    30 NOB=    30 NVA=   512 NVB=   512

 **** Warning!!: The largest alpha MO coefficient is  0.12363812D+02

 Fully direct method using O(OVN) memory.
 JobTyp=1 Pass  1:  I=   1 to  17 NPSUse=  8 ParTrn=T ParDer=T DoDerP=F.
 JobTyp=1 Pass  2:  I=  18 to  30 NPSUse=  8 ParTrn=T ParDer=T DoDerP=F.
 Spin components of T(2) and E(2):
     alpha-alpha T2 =       0.6770893055D-01 E2=     -0.2091967422D+00
     alpha-beta  T2 =       0.4085984179D+00 E2=     -0.1386509792D+01
     beta-beta   T2 =       0.6770893055D-01 E2=     -0.2091967422D+00
 ANorm=    0.1242584516D+01
 E2 =    -0.1804903276D+01 EUMP2 =    -0.42810446538783D+03

 **********************************************************************

            Population analysis using the SCF density.

 **********************************************************************

 Orbital symmetries:
       Occupied  (A) (A) (A) (A) (A) (A) (A) (A) (A) (A) (A) (A)
                 (A) (A) (A) (A) (A) (A) (A) (A) (A) (A) (A) (A)
                 (A) (A) (A) (A) (A) (A) (A) (A) (A) (A) (A) (A)
                 (A) (A) (A) (A)
       Virtual   (A) (A) (A) (A) (A) (A) (A) (A) (A) (A) (A) (A)
                 (A) (A) (A) (A) (A) (A) (A) (A) (A) (A) (A) (A)
                 (A) (A) (A) (A) (A) (A) (A) (A) (A) (A) (A) (A)
                 (A) (A) (A) (A) (A) (A) (A) (A) (A) (A) (A) (A)
                 (A) (A) (A) (A) (A) (A) (A) (A) (A) (A) (A) (A)
                 (A) (A) (A) (A) (A) (A) (A) (A) (A) (A) (A) (A)
                 (A) (A) (A) (A) (A) (A) (A) (A) (A) (A) (A) (A)
                 (A) (A) (A) (A) (A) (A) (A) (A) (A) (A) (A) (A)
                 (A) (A) (A) (A) (A) (A) (A) (A) (A) (A) (A) (A)
                 (A) (A) (A) (A) (A) (A) (A) (A) (A) (A) (A) (A)
                 (A) (A) (A) (A) (A) (A) (A) (A) (A) (A) (A) (A)
                 (A) (A) (A) (A) (A) (A) (A) (A) (A) (A) (A) (A)
                 (A) (A) (A) (A) (A) (A) (A) (A) (A) (A) (A) (A)
                 (A) (A) (A) (A) (A) (A) (A) (A) (A) (A) (A) (A)
                 (A) (A) (A) (A) (A) (A) (A) (A) (A) (A) (A) (A)
                 (A) (A) (A) (A) (A) (A) (A) (A) (A) (A) (A) (A)
                 (A) (A) (A) (A) (A) (A) (A) (A) (A) (A) (A) (A)
                 (A) (A) (A) (A) (A) (A) (A) (A) (A) (A) (A) (A)
                 (A) (A) (A) (A) (A) (A) (A) (A) (A) (A) (A) (A)
                 (A) (A) (A) (A) (A) (A) (A) (A) (A) (A) (A) (A)
                 (A) (A) (A) (A) (A) (A) (A) (A) (A) (A) (A) (A)
                 (A) (A) (A) (A) (A) (A) (A) (A) (A) (A) (A) (A)
                 (A) (A) (A) (A) (A) (A) (A) (A) (A) (A) (A) (A)
                 (A) (A) (A) (A) (A) (A) (A) (A) (A) (A) (A) (A)
                 (A) (A) (A) (A) (A) (A) (A) (A) (A) (A) (A) (A)
                 (A) (A) (A) (A) (A) (A) (A) (A) (A) (A) (A) (A)
                 (A) (A) (A) (A) (A) (A) (A) (A) (A) (A) (A) (A)
                 (A) (A) (A) (A) (A) (A) (A) (A) (A) (A) (A) (A)
                 (A) (A) (A) (A) (A) (A) (A) (A) (A) (A) (A) (A)
                 (A) (A) (A) (A) (A) (A) (A) (A) (A) (A) (A) (A)
                 (A) (A) (A) (A) (A) (A) (A) (A) (A) (A) (A) (A)
                 (A) (A) (A) (A) (A) (A) (A) (A) (A) (A) (A) (A)
                 (A) (A) (A) (A) (A) (A) (A) (A) (A) (A) (A) (A)
                 (A) (A) (A) (A) (A) (A) (A) (A) (A) (A) (A) (A)
                 (A) (A) (A) (A) (A) (A) (A) (A) (A) (A) (A) (A)
                 (A) (A) (A) (A) (A) (A) (A) (A) (A) (A) (A) (A)
                 (A) (A) (A) (A) (A) (A) (A) (A) (A) (A) (A) (A)
                 (A) (A) (A) (A) (A) (A) (A) (A) (A) (A) (A) (A)
                 (A) (A) (A) (A) (A) (A) (A) (A) (A) (A) (A) (A)
                 (A) (A) (A) (A) (A) (A) (A) (A) (A) (A) (A) (A)
                 (A) (A) (A) (A) (A) (A) (A) (A) (A) (A) (A) (A)
                 (A) (A) (A) (A) (A) (A) (A) (A) (A) (A) (A) (A)
                 (A) (A) (A) (A) (A) (A) (A) (A)
 The electronic state is 1-A.
 Alpha  occ. eigenvalues --  -20.54404 -11.27133 -11.26753 -11.22086 -11.22085
 Alpha  occ. eigenvalues --  -11.21702 -11.21661 -11.21617 -11.20776 -11.20776
 Alpha  occ. eigenvalues --   -1.35906  -1.11714  -1.04330  -1.01150  -0.94138
 Alpha  occ. eigenvalues --   -0.91278  -0.88479  -0.80742  -0.78622  -0.75808
 Alpha  occ. eigenvalues --   -0.65462  -0.64489  -0.63345  -0.61234  -0.59774
 Alpha  occ. eigenvalues --   -0.58545  -0.56384  -0.55677  -0.54183  -0.53199
 Alpha  occ. eigenvalues --   -0.51923  -0.50510  -0.48741  -0.48667  -0.46495
 Alpha  occ. eigenvalues --   -0.46116  -0.44819  -0.44706  -0.42807  -0.39348
 Alpha virt. eigenvalues --    0.14093   0.14758   0.15689   0.15820   0.18304
 Alpha virt. eigenvalues --    0.19133   0.20091   0.20693   0.21298   0.22389
 Alpha virt. eigenvalues --    0.23408   0.23526   0.24010   0.24461   0.24519
 Alpha virt. eigenvalues --    0.25338   0.25811   0.28850   0.29082   0.31978
 Alpha virt. eigenvalues --    0.32341   0.33583   0.35355   0.36766   0.37308
 Alpha virt. eigenvalues --    0.38006   0.38380   0.40358   0.42089   0.43077
 Alpha virt. eigenvalues --    0.44123   0.45052   0.47345   0.47454   0.48732
 Alpha virt. eigenvalues --    0.49647   0.50376   0.51736   0.52999   0.54527
 Alpha virt. eigenvalues --    0.56643   0.57386   0.57716   0.58140   0.59274
 Alpha virt. eigenvalues --    0.59436   0.60403   0.61092   0.61724   0.62293
 Alpha virt. eigenvalues --    0.63068   0.63511   0.64740   0.64897   0.65150
 Alpha virt. eigenvalues --    0.65884   0.66232   0.66487   0.66655   0.67133
 Alpha virt. eigenvalues --    0.67680   0.69196   0.69291   0.70128   0.71041
 Alpha virt. eigenvalues --    0.71252   0.72427   0.72525   0.72798   0.75476
 Alpha virt. eigenvalues --    0.75836   0.78562   0.81145   0.82433   0.83180
 Alpha virt. eigenvalues --    0.85105   0.85698   0.89641   0.90432   0.91669
 Alpha virt. eigenvalues --    0.96328   0.96576   0.98070   0.98870   0.99573
 Alpha virt. eigenvalues --    1.00262   1.01888   1.02629   1.02794   1.05497
 Alpha virt. eigenvalues --    1.06111   1.06725   1.08101   1.09565   1.10036
 Alpha virt. eigenvalues --    1.12098   1.12111   1.13325   1.14891   1.15699
 Alpha virt. eigenvalues --    1.16176   1.17225   1.18012   1.19205   1.19707
 Alpha virt. eigenvalues --    1.21677   1.24187   1.24530   1.25247   1.26244
 Alpha virt. eigenvalues --    1.28529   1.29103   1.30358   1.30560   1.31462
 Alpha virt. eigenvalues --    1.31896   1.32863   1.33746   1.34183   1.34874
 Alpha virt. eigenvalues --    1.36140   1.36609   1.38167   1.38295   1.39799
 Alpha virt. eigenvalues --    1.39877   1.40522   1.40913   1.41760   1.42910
 Alpha virt. eigenvalues --    1.44681   1.46864   1.47439   1.47514   1.48371
 Alpha virt. eigenvalues --    1.48459   1.49577   1.51149   1.52896   1.54203
 Alpha virt. eigenvalues --    1.54701   1.54868   1.55271   1.56092   1.56550
 Alpha virt. eigenvalues --    1.56840   1.57021   1.57275   1.59642   1.60121
 Alpha virt. eigenvalues --    1.61368   1.62568   1.64110   1.65588   1.65977
 Alpha virt. eigenvalues --    1.67932   1.68186   1.68897   1.69492   1.71479
 Alpha virt. eigenvalues --    1.72610   1.74047   1.74411   1.77179   1.77663
 Alpha virt. eigenvalues --    1.79317   1.80069   1.81726   1.84107   1.86025
 Alpha virt. eigenvalues --    1.88302   1.88965   1.90153   1.91992   1.93132
 Alpha virt. eigenvalues --    1.93523   1.95412   1.96251   1.97876   2.05386
 Alpha virt. eigenvalues --    2.07201   2.07582   2.10346   2.11348   2.17616
 Alpha virt. eigenvalues --    2.27564   2.33617   2.34759   2.42366   2.52619
 Alpha virt. eigenvalues --    2.56417   2.57926   2.60381   2.63386   2.64356
 Alpha virt. eigenvalues --    2.64716   2.67179   2.68929   2.70171   2.70877
 Alpha virt. eigenvalues --    2.71652   2.74049   2.76337   2.78101   2.79168
 Alpha virt. eigenvalues --    2.81259   2.82121   2.84476   2.86212   2.88232
 Alpha virt. eigenvalues --    2.88756   2.89983   2.91752   2.93071   2.93613
 Alpha virt. eigenvalues --    2.95275   2.95969   2.96128   2.96298   2.97310
 Alpha virt. eigenvalues --    2.98925   3.00175   3.00613   3.04479   3.04662
 Alpha virt. eigenvalues --    3.06445   3.06788   3.07378   3.07397   3.09194
 Alpha virt. eigenvalues --    3.11620   3.12611   3.12827   3.13032   3.13514
 Alpha virt. eigenvalues --    3.15388   3.16735   3.17833   3.18127   3.20510
 Alpha virt. eigenvalues --    3.21008   3.22297   3.23343   3.24747   3.26269
 Alpha virt. eigenvalues --    3.26812   3.27976   3.29227   3.29861   3.30175
 Alpha virt. eigenvalues --    3.31783   3.32104   3.32541   3.32662   3.34277
 Alpha virt. eigenvalues --    3.36298   3.36958   3.37702   3.37730   3.39277
 Alpha virt. eigenvalues --    3.40226   3.40241   3.41874   3.43488   3.43870
 Alpha virt. eigenvalues --    3.44296   3.45037   3.46605   3.46606   3.47030
 Alpha virt. eigenvalues --    3.47707   3.49915   3.50597   3.51770   3.53170
 Alpha virt. eigenvalues --    3.53565   3.54586   3.55324   3.55560   3.56050
 Alpha virt. eigenvalues --    3.57614   3.59380   3.60720   3.60725   3.62045
 Alpha virt. eigenvalues --    3.64650   3.64679   3.65778   3.65795   3.66278
 Alpha virt. eigenvalues --    3.67939   3.68587   3.69276   3.70129   3.70294
 Alpha virt. eigenvalues --    3.73426   3.74157   3.74682   3.75343   3.76356
 Alpha virt. eigenvalues --    3.77088   3.77796   3.79256   3.79847   3.80228
 Alpha virt. eigenvalues --    3.81141   3.81642   3.82086   3.82594   3.86430
 Alpha virt. eigenvalues --    3.86581   3.88275   3.89042   3.90402   3.91962
 Alpha virt. eigenvalues --    3.93421   3.94212   3.96001   3.96743   3.96782
 Alpha virt. eigenvalues --    3.98834   3.98847   3.98951   4.00092   4.00757
 Alpha virt. eigenvalues --    4.03030   4.03168   4.05702   4.07216   4.07740
 Alpha virt. eigenvalues --    4.08187   4.09289   4.09975   4.11635   4.12411
 Alpha virt. eigenvalues --    4.13064   4.16196   4.16720   4.17766   4.18321
 Alpha virt. eigenvalues --    4.20816   4.20824   4.22528   4.22723   4.23752
 Alpha virt. eigenvalues --    4.25656   4.26925   4.26993   4.28866   4.28898
 Alpha virt. eigenvalues --    4.29840   4.30563   4.32921   4.33453   4.34972
 Alpha virt. eigenvalues --    4.35614   4.36183   4.37277   4.38003   4.39090
 Alpha virt. eigenvalues --    4.39416   4.40682   4.40985   4.41806   4.43221
 Alpha virt. eigenvalues --    4.43450   4.45067   4.45924   4.47284   4.47954
 Alpha virt. eigenvalues --    4.48862   4.49346   4.49467   4.51247   4.51921
 Alpha virt. eigenvalues --    4.53309   4.53980   4.54094   4.54218   4.56225
 Alpha virt. eigenvalues --    4.57602   4.58687   4.59067   4.59907   4.61445
 Alpha virt. eigenvalues --    4.63090   4.63684   4.64778   4.67284   4.67818
 Alpha virt. eigenvalues --    4.68377   4.70282   4.72262   4.75075   4.75338
 Alpha virt. eigenvalues --    4.75817   4.77497   4.80588   4.81650   4.83555
 Alpha virt. eigenvalues --    4.84270   4.86679   4.87812   4.89598   4.91348
 Alpha virt. eigenvalues --    4.94356   4.97039   4.98738   5.00008   5.01608
 Alpha virt. eigenvalues --    5.01976   5.03655   5.05427   5.06526   5.07056
 Alpha virt. eigenvalues --    5.08493   5.10618   5.10996   5.12357   5.12709
 Alpha virt. eigenvalues --    5.16361   5.19914   5.21596   5.21793   5.22917
 Alpha virt. eigenvalues --    5.24468   5.24855   5.25496   5.26181   5.27726
 Alpha virt. eigenvalues --    5.29209   5.32527   5.34253   5.35217   5.36261
 Alpha virt. eigenvalues --    5.37539   5.38037   5.38381   5.38754   5.42294
 Alpha virt. eigenvalues --    5.44294   5.44527   5.45935   5.46449   5.48341
 Alpha virt. eigenvalues --    5.51727   5.51941   5.52022   5.56686   5.57668
 Alpha virt. eigenvalues --    5.58311   5.58492   5.61410   5.62234   5.62324
 Alpha virt. eigenvalues --    5.64279   5.64961   5.65968   5.67239   5.71550
 Alpha virt. eigenvalues --    5.73799   5.75509   5.76326   5.78248   5.78847
 Alpha virt. eigenvalues --    5.81038   5.83261   5.85174   5.86136   5.86666
 Alpha virt. eigenvalues --    5.87393   5.89647   5.90406   5.92913   5.94594
 Alpha virt. eigenvalues --    5.97637   5.99388   6.04135   6.08235   6.11442
 Alpha virt. eigenvalues --    6.20590   6.23261   6.24863   6.25550   6.26865
 Alpha virt. eigenvalues --    6.33072   6.33856   6.35914   6.37971   6.39714
 Alpha virt. eigenvalues --    6.43539   6.46451   6.50606   6.52110   6.74112
 Alpha virt. eigenvalues --    6.78821   6.91882   7.32617   7.38774   7.61055
 Alpha virt. eigenvalues --    7.86323   7.98415  11.64875  11.98436  12.52211
 Alpha virt. eigenvalues --   13.05773  13.41101  13.67939  13.72829  14.02298
 Alpha virt. eigenvalues --   14.29926  14.34044
          Condensed to atoms (all electrons):
              1          2          3          4          5          6
     1  C    4.712871   0.383897  -0.052845   0.005875  -0.052839   0.383878
     2  C    0.383897   4.895390   0.333490  -0.037239   0.002542  -0.048126
     3  C   -0.052845   0.333490   4.924663   0.348412  -0.049202   0.002540
     4  C    0.005875  -0.037239   0.348412   4.859636   0.348415  -0.037239
     5  C   -0.052839   0.002542  -0.049202   0.348415   4.924643   0.333497
     6  C    0.383878  -0.048126   0.002540  -0.037239   0.333497   4.895412
     7  C   -0.041458   0.348359  -0.053030   0.004857  -0.000977   0.005067
     8  C   -0.041464   0.005068  -0.000977   0.004857  -0.053028   0.348365
     9  O    0.249869  -0.029417   0.003057  -0.000343   0.003056  -0.029438
    10  C   -0.042732   0.002102  -0.000382   0.000052  -0.000382   0.002109
    11  H    0.006129  -0.034103   0.431021  -0.034390   0.006543  -0.001176
    12  H   -0.000870   0.006246  -0.036942   0.436122  -0.036942   0.006246
    13  H    0.000112  -0.001433  -0.039684   0.423330  -0.039681  -0.001432
    14  H   -0.001164  -0.000026  -0.001518  -0.038192   0.413562  -0.036740
    15  H    0.006129  -0.001177   0.006543  -0.034389   0.431021  -0.034106
    16  H   -0.034683   0.415837  -0.034637  -0.003263   0.001317  -0.002784
    17  H   -0.034684  -0.002786   0.001317  -0.003263  -0.034638   0.415840
    18  H    0.391780  -0.030031   0.006571  -0.002215   0.006566  -0.030014
    19  H    0.005624  -0.000622   0.000007  -0.000002   0.000007  -0.000622
    20  H   -0.002567  -0.000266   0.000182  -0.000004  -0.000218   0.002559
    21  H   -0.002559   0.002559  -0.000219  -0.000004   0.000182  -0.000267
    22  H    0.006492  -0.034924  -0.005157   0.000120  -0.000027  -0.000261
    23  H   -0.006731  -0.037903   0.007505  -0.000306  -0.000004   0.000228
    24  H   -0.001856  -0.045010  -0.003580   0.000070  -0.000131   0.000295
    25  H   -0.001165  -0.036741   0.413562  -0.038192  -0.001518  -0.000026
    26  H   -0.001857   0.000295  -0.000131   0.000070  -0.003581  -0.045006
    27  H    0.006493  -0.000260  -0.000027   0.000120  -0.005154  -0.034927
    28  H   -0.006732   0.000229  -0.000004  -0.000306   0.007505  -0.037903
              7          8          9         10         11         12
     1  C   -0.041458  -0.041464   0.249869  -0.042732   0.006129  -0.000870
     2  C    0.348359   0.005068  -0.029417   0.002102  -0.034103   0.006246
     3  C   -0.053030  -0.000977   0.003057  -0.000382   0.431021  -0.036942
     4  C    0.004857   0.004857  -0.000343   0.000052  -0.034390   0.436122
     5  C   -0.000977  -0.053028   0.003056  -0.000382   0.006543  -0.036942
     6  C    0.005067   0.348365  -0.029438   0.002109  -0.001176   0.006246
     7  C    4.869152  -0.000276   0.000851  -0.001923  -0.006463  -0.000299
     8  C   -0.000276   4.869132   0.000850  -0.001920   0.000074  -0.000299
     9  O    0.000851   0.000850   8.047832   0.313335  -0.000157   0.000012
    10  C   -0.001923  -0.001920   0.313335   4.600397   0.000017  -0.000001
    11  H   -0.006463   0.000074  -0.000157   0.000017   0.566804  -0.004630
    12  H   -0.000299  -0.000299   0.000012  -0.000001  -0.004630   0.567702
    13  H    0.000002   0.000002  -0.000027   0.000003  -0.004578  -0.030763
    14  H   -0.000047  -0.003329   0.000029  -0.000012  -0.000102  -0.004913
    15  H    0.000074  -0.006462  -0.000157   0.000017  -0.000315  -0.004630
    16  H   -0.032011  -0.000123   0.001269  -0.000604  -0.004081  -0.000037
    17  H   -0.000123  -0.032010   0.001269  -0.000604  -0.000159  -0.000038
    18  H   -0.010096  -0.010101  -0.039521  -0.014988  -0.000141  -0.000031
    19  H    0.000568   0.000568  -0.032631   0.420752  -0.000001   0.000000
    20  H    0.000003  -0.003640  -0.045919   0.414821  -0.000003   0.000000
    21  H   -0.003644   0.000003  -0.045914   0.414815   0.000021   0.000000
    22  H    0.422046   0.000015   0.000081   0.000106   0.002282  -0.000018
    23  H    0.426362  -0.000052   0.007007  -0.003819  -0.000176   0.000016
    24  H    0.414892  -0.000004   0.000256  -0.000396   0.000041   0.000002
    25  H   -0.003328  -0.000047   0.000029  -0.000012  -0.030698  -0.004912
    26  H   -0.000004   0.414889   0.000255  -0.000395  -0.000003   0.000002
    27  H    0.000015   0.422050   0.000082   0.000106  -0.000002  -0.000018
    28  H   -0.000052   0.426357   0.007011  -0.003817   0.000000   0.000016
             13         14         15         16         17         18
     1  C    0.000112  -0.001164   0.006129  -0.034683  -0.034684   0.391780
     2  C   -0.001433  -0.000026  -0.001177   0.415837  -0.002786  -0.030031
     3  C   -0.039684  -0.001518   0.006543  -0.034637   0.001317   0.006571
     4  C    0.423330  -0.038192  -0.034389  -0.003263  -0.003263  -0.002215
     5  C   -0.039681   0.413562   0.431021   0.001317  -0.034638   0.006566
     6  C   -0.001432  -0.036740  -0.034106  -0.002784   0.415840  -0.030014
     7  C    0.000002  -0.000047   0.000074  -0.032011  -0.000123  -0.010096
     8  C    0.000002  -0.003329  -0.006462  -0.000123  -0.032010  -0.010101
     9  O   -0.000027   0.000029  -0.000157   0.001269   0.001269  -0.039521
    10  C    0.000003  -0.000012   0.000017  -0.000604  -0.000604  -0.014988
    11  H   -0.004578  -0.000102  -0.000315  -0.004081  -0.000159  -0.000141
    12  H   -0.030763  -0.004913  -0.004630  -0.000037  -0.000038  -0.000031
    13  H    0.593207   0.006801  -0.004578   0.001177   0.001177  -0.000066
    14  H    0.006801   0.597766  -0.030698  -0.000005   0.006575   0.001650
    15  H   -0.004578  -0.030698   0.566806  -0.000159  -0.004082  -0.000141
    16  H    0.001177  -0.000005  -0.000159   0.578580   0.001757   0.007827
    17  H    0.001177   0.006575  -0.004082   0.001757   0.578578   0.007828
    18  H   -0.000066   0.001650  -0.000141   0.007827   0.007828   0.627449
    19  H    0.000000  -0.000001  -0.000001  -0.000018  -0.000018  -0.000081
    20  H   -0.000001  -0.000013   0.000021   0.000067   0.000093   0.003307
    21  H   -0.000001   0.000000  -0.000003   0.000093   0.000067   0.003298
    22  H    0.000019   0.000006  -0.000002  -0.005193   0.000000  -0.000154
    23  H    0.000005   0.000007   0.000000  -0.003390   0.000038   0.000814
    24  H   -0.000027  -0.000021  -0.000003   0.006764  -0.000024   0.002283
    25  H    0.006801   0.001427  -0.000102   0.006575  -0.000005   0.001650
    26  H   -0.000027   0.002070   0.000041  -0.000024   0.006764   0.002283
    27  H    0.000019  -0.000066   0.002282   0.000000  -0.005194  -0.000154
    28  H    0.000005  -0.000076  -0.000176   0.000038  -0.003389   0.000814
             19         20         21         22         23         24
     1  C    0.005624  -0.002567  -0.002559   0.006492  -0.006731  -0.001856
     2  C   -0.000622  -0.000266   0.002559  -0.034924  -0.037903  -0.045010
     3  C    0.000007   0.000182  -0.000219  -0.005157   0.007505  -0.003580
     4  C   -0.000002  -0.000004  -0.000004   0.000120  -0.000306   0.000070
     5  C    0.000007  -0.000218   0.000182  -0.000027  -0.000004  -0.000131
     6  C   -0.000622   0.002559  -0.000267  -0.000261   0.000228   0.000295
     7  C    0.000568   0.000003  -0.003644   0.422046   0.426362   0.414892
     8  C    0.000568  -0.003640   0.000003   0.000015  -0.000052  -0.000004
     9  O   -0.032631  -0.045919  -0.045914   0.000081   0.007007   0.000256
    10  C    0.420752   0.414821   0.414815   0.000106  -0.003819  -0.000396
    11  H   -0.000001  -0.000003   0.000021   0.002282  -0.000176   0.000041
    12  H    0.000000   0.000000   0.000000  -0.000018   0.000016   0.000002
    13  H    0.000000  -0.000001  -0.000001   0.000019   0.000005  -0.000027
    14  H   -0.000001  -0.000013   0.000000   0.000006   0.000007  -0.000021
    15  H   -0.000001   0.000021  -0.000003  -0.000002   0.000000  -0.000003
    16  H   -0.000018   0.000067   0.000093  -0.005193  -0.003390   0.006764
    17  H   -0.000018   0.000093   0.000067   0.000000   0.000038  -0.000024
    18  H   -0.000081   0.003307   0.003298  -0.000154   0.000814   0.002283
    19  H    0.568165  -0.034063  -0.034064  -0.000006  -0.000126   0.000031
    20  H   -0.034063   0.653115  -0.060190  -0.000005   0.000757   0.000046
    21  H   -0.034064  -0.060190   0.653130   0.000038  -0.003779  -0.000426
    22  H   -0.000006  -0.000005   0.000038   0.567574  -0.028234  -0.029714
    23  H   -0.000126   0.000757  -0.003779  -0.028234   0.555866  -0.031657
    24  H    0.000031   0.000046  -0.000426  -0.029714  -0.031657   0.601841
    25  H   -0.000001   0.000000  -0.000013  -0.000066  -0.000076   0.002070
    26  H    0.000031  -0.000424   0.000046   0.000000  -0.000002  -0.000005
    27  H   -0.000006   0.000038  -0.000005   0.000000   0.000000   0.000000
    28  H   -0.000126  -0.003772   0.000757   0.000000  -0.000010  -0.000002
             25         26         27         28
     1  C   -0.001165  -0.001857   0.006493  -0.006732
     2  C   -0.036741   0.000295  -0.000260   0.000229
     3  C    0.413562  -0.000131  -0.000027  -0.000004
     4  C   -0.038192   0.000070   0.000120  -0.000306
     5  C   -0.001518  -0.003581  -0.005154   0.007505
     6  C   -0.000026  -0.045006  -0.034927  -0.037903
     7  C   -0.003328  -0.000004   0.000015  -0.000052
     8  C   -0.000047   0.414889   0.422050   0.426357
     9  O    0.000029   0.000255   0.000082   0.007011
    10  C   -0.000012  -0.000395   0.000106  -0.003817
    11  H   -0.030698  -0.000003  -0.000002   0.000000
    12  H   -0.004912   0.000002  -0.000018   0.000016
    13  H    0.006801  -0.000027   0.000019   0.000005
    14  H    0.001427   0.002070  -0.000066  -0.000076
    15  H   -0.000102   0.000041   0.002282  -0.000176
    16  H    0.006575  -0.000024   0.000000   0.000038
    17  H   -0.000005   0.006764  -0.005194  -0.003389
    18  H    0.001650   0.002283  -0.000154   0.000814
    19  H   -0.000001   0.000031  -0.000006  -0.000126
    20  H    0.000000  -0.000424   0.000038  -0.003772
    21  H   -0.000013   0.000046  -0.000005   0.000757
    22  H   -0.000066   0.000000   0.000000   0.000000
    23  H   -0.000076  -0.000002   0.000000  -0.000010
    24  H    0.002070  -0.000005   0.000000  -0.000002
    25  H    0.597760  -0.000021   0.000006   0.000007
    26  H   -0.000021   0.601855  -0.029718  -0.031656
    27  H    0.000006  -0.029718   0.567581  -0.028232
    28  H    0.000007  -0.031656  -0.028232   0.555850
 Mulliken atomic charges:
              1
     1  C    0.167056
     2  C   -0.055949
     3  C   -0.200537
     4  C   -0.202589
     5  C   -0.200532
     6  C   -0.055971
     7  C   -0.338517
     8  C   -0.338495
     9  O   -0.412624
    10  C   -0.096645
    11  H    0.108248
    12  H    0.108978
    13  H    0.089638
    14  H    0.087032
    15  H    0.108248
    16  H    0.099710
    17  H    0.099712
    18  H    0.073616
    19  H    0.106634
    20  H    0.076076
    21  H    0.076078
    22  H    0.104980
    23  H    0.117658
    24  H    0.084267
    25  H    0.087035
    26  H    0.084255
    27  H    0.104974
    28  H    0.117662
 Sum of Mulliken atomic charges =   0.00000
 Mulliken charges with hydrogens summed into heavy atoms:
              1
     1  C    0.240672
     2  C    0.043761
     3  C   -0.005254
     4  C   -0.003973
     5  C   -0.005253
     6  C    0.043741
     7  C   -0.031611
     8  C   -0.031603
     9  O   -0.412624
    10  C    0.162143
 Sum of Mulliken charges with hydrogens summed into heavy atoms =   0.00000
 Electronic spatial extent (au):  <R**2>=           1681.9947
 Charge=              0.0000 electrons
 Dipole moment (field-independent basis, Debye):
    X=             -0.2435    Y=             -0.0006    Z=              1.0596  Tot=              1.0872
 Quadrupole moment (field-independent basis, Debye-Ang):
   XX=            -63.5805   YY=            -66.4248   ZZ=            -65.9904
   XY=             -0.0006   XZ=              2.6388   YZ=              0.0006
 Traceless Quadrupole moment (field-independent basis, Debye-Ang):
   XX=              1.7514   YY=             -1.0929   ZZ=             -0.6585
   XY=             -0.0006   XZ=              2.6388   YZ=              0.0006
 Octapole moment (field-independent basis, Debye-Ang**2):
  XXX=             22.8945  YYY=             -0.0004  ZZZ=             -1.5279  XYY=              0.6021
  XXY=              0.0009  XXZ=              2.0978  XZZ=              0.9219  YZZ=              0.0002
  YYZ=             -3.8772  XYZ=              0.0015
 Hexadecapole moment (field-independent basis, Debye-Ang**3):
 XXXX=          -1103.7553 YYYY=          -1018.3704 ZZZZ=           -164.4870 XXXY=              0.0075
 XXXZ=             -6.0988 YYYX=              0.0062 YYYZ=             -0.0010 ZZZX=             -0.8243
 ZZZY=             -0.0001 XXYY=           -359.8334 XXZZ=           -223.2511 YYZZ=           -196.3706
 XXYZ=             -0.0006 YYXZ=              2.7109 ZZXY=              0.0006
 N-N= 5.974308787170D+02 E-N=-2.189451293746D+03  KE= 4.255421444556D+02
 1\1\GINC-ROCK\SP\RMP2-FC\CC-pVTZ\C9H18O1\STYLIANAKIS\04-Mar-2016\0\\# 
 mp2/cc-pVTZ\\cis_2_6_DiMe_cyclOMe_ecl_single_point\\0,1\C\C,1,1.542326
 \C,2,1.540864,1,110.615\C,3,1.533282,2,112.367,1,54.527,0\C,4,1.533283
 ,3,110.877,2,-54.943,0\C,5,1.54086,4,112.368,3,54.942,0\C,2,1.533957,3
 ,111.383,4,-179.996,0\C,6,1.533958,5,111.384,4,-179.999,0\O,1,1.436929
 ,2,109.099,3,-175.338,0\C,9,1.416545,1,115.816,2,-118.446,0\H,3,1.0975
 48,4,110.48,5,-177.299,0\H,4,1.097117,3,110.274,2,-177.37,0\H,4,1.0993
 61,3,109.382,2,65.77,0\H,5,1.101043,4,109.294,3,-66.155,0\H,5,1.097547
 ,4,110.481,3,177.298,0\H,2,1.100647,3,108.148,4,-61.471,0\H,6,1.100649
 ,5,108.149,4,61.474,0\H,1,1.104073,2,108.62,3,65.949,0\H,10,1.09328,9,
 106.787,1,179.991,0\H,10,1.099928,9,111.952,1,-61.114,0\H,10,1.099922,
 9,111.955,1,61.094,0\H,7,1.095945,2,110.673,3,57.58,0\H,7,1.093415,2,1
 11.211,3,177.507,0\H,7,1.097899,2,111.113,3,-61.735,0\H,3,1.101041,4,1
 09.294,5,66.154,0\H,8,1.0979,6,111.112,5,61.728,0\H,8,1.095942,6,110.6
 74,5,-57.588,0\H,8,1.093415,6,111.21,5,-177.517,0\\Version=EM64L-G09Re
 vA.01\State=1-A\HF=-426.2995621\MP2=-428.1044654\RMSD=3.396e-09\PG=C01
  [X(C9H18O1)]\\@


 A MAN SHOULD NEVER BE ASHAMED TO OWN HE HAS BEEN IN THE WRONG
 WHICH IS BUT SAYING IN OTHER WORDS,
 THAT HE IS WISER TODAY THAN HE WAS YESTERDAY.

                          -- JONATHAN SWIFT
 Job cpu time:  0 days  6 hours 57 minutes 13.3 seconds.
 File lengths (MBytes):  RWF=    165 Int=      0 D2E=      0 Chk=     14 Scr=      1
 Normal termination of Gaussian 09 at Fri Mar  4 06:17:03 2016.
