 Entering Gaussian System, Link 0=g09
 Input=Formaldehyde_dimethylacetal_g_ecl.gjf
 Output=Formaldehyde_dimethylacetal_g_ecl.out
 Initial command:
 /usr/local/g09/l1.exe /home/scratch/stylianakis/Gau-18524.inp -scrdir=/home/scratch/stylianakis/
 Entering Link 1 = /usr/local/g09/l1.exe PID=     18525.
  
 Copyright (c) 1988,1990,1992,1993,1995,1998,2003,2009, Gaussian, Inc.
                  All Rights Reserved.
  
 This is part of the Gaussian(R) 09 program.  It is based on
 the Gaussian(R) 03 system (copyright 2003, Gaussian, Inc.),
 the Gaussian(R) 98 system (copyright 1998, Gaussian, Inc.),
 the Gaussian(R) 94 system (copyright 1995, Gaussian, Inc.),
 the Gaussian 92(TM) system (copyright 1992, Gaussian, Inc.),
 the Gaussian 90(TM) system (copyright 1990, Gaussian, Inc.),
 the Gaussian 88(TM) system (copyright 1988, Gaussian, Inc.),
 the Gaussian 86(TM) system (copyright 1986, Carnegie Mellon
 University), and the Gaussian 82(TM) system (copyright 1983,
 Carnegie Mellon University). Gaussian is a federally registered
 trademark of Gaussian, Inc.
  
 This software contains proprietary and confidential information,
 including trade secrets, belonging to Gaussian, Inc.
  
 This software is provided under written license and may be
 used, copied, transmitted, or stored only in accord with that
 written license.
  
 The following legend is applicable only to US Government
 contracts under FAR:
  
                    RESTRICTED RIGHTS LEGEND
  
 Use, reproduction and disclosure by the US Government is
 subject to restrictions as set forth in subparagraphs (a)
 and (c) of the Commercial Computer Software - Restricted
 Rights clause in FAR 52.227-19.
  
 Gaussian, Inc.
 340 Quinnipiac St., Bldg. 40, Wallingford CT 06492
  
  
 ---------------------------------------------------------------
 Warning -- This program may not be used in any manner that
 competes with the business of Gaussian, Inc. or will provide
 assistance to any competitor of Gaussian, Inc.  The licensee
 of this program is prohibited from giving any competitor of
 Gaussian, Inc. access to this program.  By using this program,
 the user acknowledges that Gaussian, Inc. is engaged in the
 business of creating and licensing software in the field of
 computational chemistry and represents and warrants to the
 licensee that it is not a competitor of Gaussian, Inc. and that
 it will not use this program in any manner prohibited above.
 ---------------------------------------------------------------
  

 Cite this work as:
 Gaussian 09, Revision A.01,
 M. J. Frisch, G. W. Trucks, H. B. Schlegel, G. E. Scuseria, 
 M. A. Robb, J. R. Cheeseman, G. Scalmani, V. Barone, B. Mennucci, 
 G. A. Petersson, H. Nakatsuji, M. Caricato, X. Li, H. P. Hratchian, 
 A. F. Izmaylov, J. Bloino, G. Zheng, J. L. Sonnenberg, M. Hada, 
 M. Ehara, K. Toyota, R. Fukuda, J. Hasegawa, M. Ishida, T. Nakajima, 
 Y. Honda, O. Kitao, H. Nakai, T. Vreven, J. A. Montgomery, Jr., 
 J. E. Peralta, F. Ogliaro, M. Bearpark, J. J. Heyd, E. Brothers, 
 K. N. Kudin, V. N. Staroverov, R. Kobayashi, J. Normand, 
 K. Raghavachari, A. Rendell, J. C. Burant, S. S. Iyengar, J. Tomasi, 
 M. Cossi, N. Rega, J. M. Millam, M. Klene, J. E. Knox, J. B. Cross, 
 V. Bakken, C. Adamo, J. Jaramillo, R. Gomperts, R. E. Stratmann, 
 O. Yazyev, A. J. Austin, R. Cammi, C. Pomelli, J. W. Ochterski, 
 R. L. Martin, K. Morokuma, V. G. Zakrzewski, G. A. Voth, 
 P. Salvador, J. J. Dannenberg, S. Dapprich, A. D. Daniels, 
 O. Farkas, J. B. Foresman, J. V. Ortiz, J. Cioslowski, 
 and D. J. Fox, Gaussian, Inc., Wallingford CT, 2009.
 
 ******************************************
 Gaussian 09:  EM64L-G09RevA.01  8-May-2009
                 3-Mar-2016 
 ******************************************
 %mem=8000Mb
 %nproc=4
 Will use up to    4 processors via shared memory.
 -------------
 # mp2/cc-pVTZ
 -------------
 1/38=1/1;
 2/12=2,17=6,18=5,40=1/2;
 3/5=16,6=1,11=9,16=1,25=1,30=1/1,2,3;
 4//1;
 5/5=2,38=5/2;
 8/10=1/1;
 9/16=-3/6;
 6/7=2,8=2,9=2,10=2/1;
 99/5=1,9=1/99;
 ----------------------------------------------
 Formaldehyde_dimethylacetal_g_ecl_single_point
 ----------------------------------------------
 Symbolic Z-matrix:
 Charge =  0 Multiplicity = 1
 c
 o                    1    oc2
 c                    2    co3      1    coc3
 o                    3    oc4      2    oco4     1    dih4     0
 c                    4    co5      3    coc5     2    dih5     0
 h                    1    hc6      2    hco6     3    dih6     0
 h                    1    hc7      2    hco7     3    dih7     0
 h                    1    hc8      2    hco8     3    dih8     0
 h                    3    hc9      2    hco9     1    dih9     0
 h                    3    hc10     2    hco10    1    dih10    0
 h                    5    hc11     4    hco11    3    dih11    0
 h                    5    hc12     4    hco12    3    dih12    0
 h                    5    hc13     4    hco13    3    dih13    0
       Variables:
  oc2                   1.42224                  
  co3                   1.39962                  
  coc3                114.535                    
  oc4                   1.41524                  
  oco4                112.629                    
  dih4                 66.168                    
  co5                   1.42183                  
  coc5                116.016                    
  dih5               -117.558                    
  hc6                   1.09155                  
  hco6                106.698                    
  dih6                175.11                     
  hc7                   1.09635                  
  hco7                111.368                    
  dih7                -65.814                    
  hc8                   1.10116                  
  hco8                111.029                    
  dih8                 56.354                    
  hc9                   1.09342                  
  hco9                105.163                    
  dih9               -175.866                    
  hc10                  1.10458                  
  hco10               110.469                    
  dih10               -56.768                    
  hc11                  1.0921                   
  hco11               106.565                    
  dih11               177.009                    
  hc12                  1.09896                  
  hco12               111.69                     
  dih12               -64.421                    
  hc13                  1.09907                  
  hco13               111.992                    
  dih13                58.029                    
 
                          Input orientation:                          
 ---------------------------------------------------------------------
 Center     Atomic      Atomic             Coordinates (Angstroms)
 Number     Number       Type             X           Y           Z
 ---------------------------------------------------------------------
      1          6           0        0.000000    0.000000    0.000000
      2          8           0        0.000000    0.000000    1.422236
      3          6           0        1.273248    0.000000    2.003428
      4          8           0        1.987786    1.194905    1.749388
      5          6           0        3.191148    1.055690    1.004985
      6          1           0       -1.041714   -0.089123   -0.313631
      7          1           0        0.418299    0.931367   -0.399464
      8          1           0        0.569472   -0.855634   -0.395139
      9          1           0        1.096331   -0.076080    3.079756
     10          1           0        1.860142   -0.865602    1.647910
     11          1           0        3.582211    2.064114    0.853857
     12          1           0        3.940402    0.465415    1.550804
     13          1           0        3.017079    0.590783    0.024417
 ---------------------------------------------------------------------
                    Distance matrix (angstroms):
                    1          2          3          4          5
     1  C    0.000000
     2  O    1.422236   0.000000
     3  C    2.373791   1.399623   0.000000
     4  O    2.905073   2.342246   1.415238   0.000000
     5  C    3.508262   3.387035   2.406182   1.421829   0.000000
     6  H    1.091547   2.026412   3.276546   3.883638   4.578915
     7  H    1.096353   2.088303   2.715192   2.674005   3.110727
     8  H    1.101155   2.087884   2.642070   3.288665   3.533651
     9  H    3.269958   1.988744   1.093421   2.044498   3.158138
    10  H    2.631540   2.064055   1.104583   2.066949   2.424106
    11  H    4.221596   4.173231   3.303542   2.024770   1.092103
    12  H    4.260091   3.969876   2.745031   2.093873   1.098965
    13  H    3.074473   3.377230   2.703045   2.097602   1.099069
                    6          7          8          9         10
     6  H    0.000000
     7  H    1.783369   0.000000
     8  H    1.786086   1.793389   0.000000
     9  H    4.010796   3.685057   3.600025   0.000000
    10  H    3.587663   3.082166   2.416604   1.804698   0.000000
    11  H    5.232604   3.586679   4.377387   3.964171   3.489882
    12  H    5.348375   4.052884   4.110357   3.274088   2.471542
    13  H    4.129206   2.655057   2.873835   3.670023   2.468864
                   11         12         13
    11  H    0.000000
    12  H    1.780414   0.000000
    13  H    1.782709   1.788323   0.000000
 Stoichiometry    C3H8O2
 Framework group  C1[X(C3H8O2)]
 Deg. of freedom    33
 Full point group                 C1      NOp   1
 Largest Abelian subgroup         C1      NOp   1
 Largest concise Abelian subgroup C1      NOp   1
                         Standard orientation:                         
 ---------------------------------------------------------------------
 Center     Atomic      Atomic             Coordinates (Angstroms)
 Number     Number       Type             X           Y           Z
 ---------------------------------------------------------------------
      1          6           0        1.621606    0.853627    0.011942
      2          8           0        1.317170   -0.528612   -0.127668
      3          6           0        0.030485   -0.885598    0.291792
      4          8           0       -0.982865   -0.319257   -0.517700
      5          6           0       -1.873602    0.577036    0.134102
      6          1           0        2.670652    0.973249   -0.264949
      7          1           0        1.001436    1.468213   -0.651128
      8          1           0        1.483850    1.185406    1.052849
      9          1           0       -0.011957   -1.973450    0.190081
     10          1           0       -0.128189   -0.591173    1.344522
     11          1           0       -2.548859    0.958902   -0.634594
     12          1           0       -2.469152    0.068705    0.905234
     13          1           0       -1.343161    1.422708    0.593911
 ---------------------------------------------------------------------
 Rotational constants (GHZ):      9.9846669      3.3122780      2.7809144
 Standard basis: CC-pVTZ (5D, 7F)
 There are   262 symmetry adapted basis functions of A   symmetry.
 Integral buffers will be    131072 words long.
 Raffenetti 1 integral format.
 Two-electron integral symmetry is turned on.
   262 basis functions,   396 primitive gaussians,   295 cartesian basis functions
    21 alpha electrons       21 beta electrons
       nuclear repulsion energy       196.4736147046 Hartrees.
 NAtoms=   13 NActive=   13 NUniq=   13 SFac= 7.50D-01 NAtFMM=   80 NAOKFM=F Big=F
 One-electron integrals computed using PRISM.
 NBasis=   262 RedAO= T  NBF=   262
 NBsUse=   262 1.00D-06 NBFU=   262
 Harris functional with IExCor=  205 diagonalized for initial guess.
 ExpMin= 1.03D-01 ExpMax= 1.53D+04 ExpMxC= 5.22D+02 IAcc=1 IRadAn=         1 AccDes= 0.00D+00
 HarFok:  IExCor=  205 AccDes= 0.00D+00 IRadAn=         1 IDoV= 1
 ScaDFX=  1.000000  1.000000  1.000000  1.000000
 FoFCou: FMM=F IPFlag=           0 FMFlag=      100000 FMFlg1=           0
         NFxFlg=           0 DoJE=T BraDBF=F KetDBF=T FulRan=T
         Omega=  0.000000  0.000000  1.000000  0.000000  0.000000 ICntrl=     500 IOpCl=  0
         NMat0=    1 NMatS0=    1 NMatT0=    0 NMatD0=    1 NMtDS0=    0 NMtDT0=    0
         I1Cent=           4 NGrid=           0.
 Petite list used in FoFCou.
 Initial guess orbital symmetries:
       Occupied  (A) (A) (A) (A) (A) (A) (A) (A) (A) (A) (A) (A)
                 (A) (A) (A) (A) (A) (A) (A) (A) (A)
       Virtual   (A) (A) (A) (A) (A) (A) (A) (A) (A) (A) (A) (A)
                 (A) (A) (A) (A) (A) (A) (A) (A) (A) (A) (A) (A)
                 (A) (A) (A) (A) (A) (A) (A) (A) (A) (A) (A) (A)
                 (A) (A) (A) (A) (A) (A) (A) (A) (A) (A) (A) (A)
                 (A) (A) (A) (A) (A) (A) (A) (A) (A) (A) (A) (A)
                 (A) (A) (A) (A) (A) (A) (A) (A) (A) (A) (A) (A)
                 (A) (A) (A) (A) (A) (A) (A) (A) (A) (A) (A) (A)
                 (A) (A) (A) (A) (A) (A) (A) (A) (A) (A) (A) (A)
                 (A) (A) (A) (A) (A) (A) (A) (A) (A) (A) (A) (A)
                 (A) (A) (A) (A) (A) (A) (A) (A) (A) (A) (A) (A)
                 (A) (A) (A) (A) (A) (A) (A) (A) (A) (A) (A) (A)
                 (A) (A) (A) (A) (A) (A) (A) (A) (A) (A) (A) (A)
                 (A) (A) (A) (A) (A) (A) (A) (A) (A) (A) (A) (A)
                 (A) (A) (A) (A) (A) (A) (A) (A) (A) (A) (A) (A)
                 (A) (A) (A) (A) (A) (A) (A) (A) (A) (A) (A) (A)
                 (A) (A) (A) (A) (A) (A) (A) (A) (A) (A) (A) (A)
                 (A) (A) (A) (A) (A) (A) (A) (A) (A) (A) (A) (A)
                 (A) (A) (A) (A) (A) (A) (A) (A) (A) (A) (A) (A)
                 (A) (A) (A) (A) (A) (A) (A) (A) (A) (A) (A) (A)
                 (A) (A) (A) (A) (A) (A) (A) (A) (A) (A) (A) (A)
                 (A)
 The electronic state of the initial guess is 1-A.
 Requested convergence on RMS density matrix=1.00D-08 within 128 cycles.
 Requested convergence on MAX density matrix=1.00D-06.
 Requested convergence on             energy=1.00D-06.
 No special actions if energy rises.
 Keep R1 ints in memory in canonical form, NReq=966369811.
 SCF Done:  E(RHF) =  -268.050728912     A.U. after   12 cycles
             Convg  =    0.2891D-08             -V/T =  2.0018
 ExpMin= 1.03D-01 ExpMax= 1.53D+04 ExpMxC= 5.22D+02 IAcc=1 IRadAn=         1 AccDes= 0.00D+00
 HarFok:  IExCor=  205 AccDes= 0.00D+00 IRadAn=         1 IDoV=-2
 ScaDFX=  1.000000  1.000000  1.000000  1.000000
 Range of M.O.s used for correlation:     6   262
 NBasis=   262 NAE=    21 NBE=    21 NFC=     5 NFV=     0
 NROrb=    257 NOA=    16 NOB=    16 NVA=   241 NVB=   241

 **** Warning!!: The largest alpha MO coefficient is  0.10433390D+02

 Fully direct method using O(OVN) memory.
 JobTyp=1 Pass  1:  I=   1 to  16 NPSUse=  4 ParTrn=T ParDer=T DoDerP=F.
 Spin components of T(2) and E(2):
     alpha-alpha T2 =       0.3303950336D-01 E2=     -0.1178903435D+00
     alpha-beta  T2 =       0.2027488202D+00 E2=     -0.7666426085D+00
     beta-beta   T2 =       0.3303950336D-01 E2=     -0.1178903435D+00
 ANorm=    0.1126422579D+01
 E2 =    -0.1002423295D+01 EUMP2 =    -0.26905315220711D+03

 **********************************************************************

            Population analysis using the SCF density.

 **********************************************************************

 Orbital symmetries:
       Occupied  (A) (A) (A) (A) (A) (A) (A) (A) (A) (A) (A) (A)
                 (A) (A) (A) (A) (A) (A) (A) (A) (A)
       Virtual   (A) (A) (A) (A) (A) (A) (A) (A) (A) (A) (A) (A)
                 (A) (A) (A) (A) (A) (A) (A) (A) (A) (A) (A) (A)
                 (A) (A) (A) (A) (A) (A) (A) (A) (A) (A) (A) (A)
                 (A) (A) (A) (A) (A) (A) (A) (A) (A) (A) (A) (A)
                 (A) (A) (A) (A) (A) (A) (A) (A) (A) (A) (A) (A)
                 (A) (A) (A) (A) (A) (A) (A) (A) (A) (A) (A) (A)
                 (A) (A) (A) (A) (A) (A) (A) (A) (A) (A) (A) (A)
                 (A) (A) (A) (A) (A) (A) (A) (A) (A) (A) (A) (A)
                 (A) (A) (A) (A) (A) (A) (A) (A) (A) (A) (A) (A)
                 (A) (A) (A) (A) (A) (A) (A) (A) (A) (A) (A) (A)
                 (A) (A) (A) (A) (A) (A) (A) (A) (A) (A) (A) (A)
                 (A) (A) (A) (A) (A) (A) (A) (A) (A) (A) (A) (A)
                 (A) (A) (A) (A) (A) (A) (A) (A) (A) (A) (A) (A)
                 (A) (A) (A) (A) (A) (A) (A) (A) (A) (A) (A) (A)
                 (A) (A) (A) (A) (A) (A) (A) (A) (A) (A) (A) (A)
                 (A) (A) (A) (A) (A) (A) (A) (A) (A) (A) (A) (A)
                 (A) (A) (A) (A) (A) (A) (A) (A) (A) (A) (A) (A)
                 (A) (A) (A) (A) (A) (A) (A) (A) (A) (A) (A) (A)
                 (A) (A) (A) (A) (A) (A) (A) (A) (A) (A) (A) (A)
                 (A) (A) (A) (A) (A) (A) (A) (A) (A) (A) (A) (A)
                 (A)
 The electronic state is 1-A.
 Alpha  occ. eigenvalues --  -20.55810 -20.55778 -11.32731 -11.27867 -11.27171
 Alpha  occ. eigenvalues --   -1.40659  -1.34168  -0.98322  -0.92314  -0.84746
 Alpha  occ. eigenvalues --   -0.68854  -0.68394  -0.67291  -0.60743  -0.59855
 Alpha  occ. eigenvalues --   -0.58737  -0.54085  -0.49424  -0.47929  -0.44434
 Alpha  occ. eigenvalues --   -0.42881
 Alpha virt. eigenvalues --    0.13722   0.16895   0.18094   0.19858   0.21147
 Alpha virt. eigenvalues --    0.21995   0.22591   0.24954   0.26545   0.27355
 Alpha virt. eigenvalues --    0.33996   0.35332   0.38756   0.40981   0.45857
 Alpha virt. eigenvalues --    0.46503   0.50652   0.53408   0.55898   0.57185
 Alpha virt. eigenvalues --    0.58979   0.59452   0.60438   0.61299   0.62004
 Alpha virt. eigenvalues --    0.63037   0.64080   0.65520   0.66177   0.69009
 Alpha virt. eigenvalues --    0.70309   0.71423   0.75334   0.77709   0.84364
 Alpha virt. eigenvalues --    0.86082   0.87641   0.90768   0.95557   0.96388
 Alpha virt. eigenvalues --    1.00912   1.03515   1.03907   1.08231   1.09264
 Alpha virt. eigenvalues --    1.11258   1.14284   1.16001   1.17950   1.19278
 Alpha virt. eigenvalues --    1.23584   1.24582   1.26309   1.27403   1.28011
 Alpha virt. eigenvalues --    1.31121   1.33739   1.35257   1.37084   1.37973
 Alpha virt. eigenvalues --    1.39588   1.41016   1.43537   1.45577   1.49821
 Alpha virt. eigenvalues --    1.51984   1.52165   1.53344   1.54235   1.56267
 Alpha virt. eigenvalues --    1.57810   1.64417   1.65518   1.71514   1.71703
 Alpha virt. eigenvalues --    1.75022   1.78067   1.83151   1.85728   2.09239
 Alpha virt. eigenvalues --    2.13596   2.17194   2.20874   2.25034   2.33838
 Alpha virt. eigenvalues --    2.33942   2.38329   2.45502   2.48722   2.50159
 Alpha virt. eigenvalues --    2.50686   2.57969   2.65552   2.65690   2.68262
 Alpha virt. eigenvalues --    2.74852   2.80941   2.89392   2.92434   2.94009
 Alpha virt. eigenvalues --    3.00335   3.04548   3.05177   3.06839   3.08635
 Alpha virt. eigenvalues --    3.10271   3.11520   3.15575   3.16679   3.19049
 Alpha virt. eigenvalues --    3.20316   3.21376   3.25012   3.26200   3.28278
 Alpha virt. eigenvalues --    3.28840   3.31757   3.33802   3.35279   3.38683
 Alpha virt. eigenvalues --    3.40460   3.42112   3.44849   3.45825   3.47871
 Alpha virt. eigenvalues --    3.51553   3.53759   3.57855   3.59624   3.61465
 Alpha virt. eigenvalues --    3.62106   3.63476   3.64765   3.65653   3.69541
 Alpha virt. eigenvalues --    3.70988   3.73466   3.75552   3.75985   3.78559
 Alpha virt. eigenvalues --    3.79001   3.81411   3.82908   3.86865   3.88711
 Alpha virt. eigenvalues --    3.90899   3.93749   3.99326   4.01491   4.04715
 Alpha virt. eigenvalues --    4.06597   4.08250   4.10675   4.13808   4.15051
 Alpha virt. eigenvalues --    4.17410   4.20318   4.24005   4.26276   4.28331
 Alpha virt. eigenvalues --    4.31458   4.33896   4.35994   4.38462   4.39866
 Alpha virt. eigenvalues --    4.40154   4.41246   4.44709   4.46757   4.47444
 Alpha virt. eigenvalues --    4.48815   4.54006   4.55370   4.59204   4.69880
 Alpha virt. eigenvalues --    4.70698   4.80097   4.83624   4.84642   4.93797
 Alpha virt. eigenvalues --    4.97777   5.00910   5.03141   5.10504   5.11391
 Alpha virt. eigenvalues --    5.13855   5.17020   5.20832   5.24807   5.27841
 Alpha virt. eigenvalues --    5.32376   5.33907   5.34974   5.38455   5.40193
 Alpha virt. eigenvalues --    5.42747   5.44174   5.46400   5.51441   5.54583
 Alpha virt. eigenvalues --    5.57366   5.58720   5.60774   5.63062   5.67195
 Alpha virt. eigenvalues --    5.77251   5.82241   5.90414   5.91075   6.01139
 Alpha virt. eigenvalues --    6.02883   6.17394   6.20798   6.21830   6.23660
 Alpha virt. eigenvalues --    6.24676   6.27468   6.41514   6.48723   6.56504
 Alpha virt. eigenvalues --    6.64055   6.73759   6.76623   6.79201   6.88739
 Alpha virt. eigenvalues --    6.90134   7.23600   7.27503   7.29019   7.30758
 Alpha virt. eigenvalues --    7.43959   7.59904   7.77468   7.82922   7.84850
 Alpha virt. eigenvalues --    7.95166  10.99533  11.21788  13.18497  13.81104
 Alpha virt. eigenvalues --   13.95450
          Condensed to atoms (all electrons):
              1          2          3          4          5          6
     1  C    4.585101   0.308191  -0.049906   0.004571  -0.001352   0.419430
     2  O    0.308191   7.934290   0.367756  -0.054010   0.003804  -0.029051
     3  C   -0.049906   0.367756   4.339520   0.312987  -0.043493   0.004489
     4  O    0.004571  -0.054010   0.312987   8.004674   0.308064   0.000046
     5  C   -0.001352   0.003804  -0.043493   0.308064   4.568642   0.000119
     6  H    0.419430  -0.029051   0.004489   0.000046   0.000119   0.552060
     7  H    0.418108  -0.043025  -0.008427   0.010330  -0.002521  -0.033475
     8  H    0.401373  -0.047925  -0.004195  -0.002115  -0.001107  -0.029473
     9  H    0.006996  -0.038116   0.424317  -0.032226   0.004526  -0.000222
    10  H   -0.017026  -0.054714   0.435624  -0.057844  -0.015576  -0.000070
    11  H    0.000353  -0.000286   0.005051  -0.030417   0.417351  -0.000008
    12  H    0.000022  -0.000573  -0.010934  -0.038855   0.426176  -0.000004
    13  H   -0.001924   0.001978   0.001046  -0.050797   0.399812   0.000031
              7          8          9         10         11         12
     1  C    0.418108   0.401373   0.006996  -0.017026   0.000353   0.000022
     2  O   -0.043025  -0.047925  -0.038116  -0.054714  -0.000286  -0.000573
     3  C   -0.008427  -0.004195   0.424317   0.435624   0.005051  -0.010934
     4  O    0.010330  -0.002115  -0.032226  -0.057844  -0.030417  -0.038855
     5  C   -0.002521  -0.001107   0.004526  -0.015576   0.417351   0.426176
     6  H   -0.033475  -0.029473  -0.000222  -0.000070  -0.000008  -0.000004
     7  H    0.641460  -0.061050  -0.000055  -0.001997   0.000041   0.000528
     8  H   -0.061050   0.676894  -0.000216   0.014056   0.000044   0.000081
     9  H   -0.000055  -0.000216   0.582893  -0.049501  -0.000364   0.001373
    10  H   -0.001997   0.014056  -0.049501   0.705943   0.000099   0.003219
    11  H    0.000041   0.000044  -0.000364   0.000099   0.565362  -0.032357
    12  H    0.000528   0.000081   0.001373   0.003219  -0.032357   0.636903
    13  H   -0.003477   0.000052  -0.000968   0.003762  -0.034382  -0.061854
             13
     1  C   -0.001924
     2  O    0.001978
     3  C    0.001046
     4  O   -0.050797
     5  C    0.399812
     6  H    0.000031
     7  H   -0.003477
     8  H    0.000052
     9  H   -0.000968
    10  H    0.003762
    11  H   -0.034382
    12  H   -0.061854
    13  H    0.686428
 Mulliken atomic charges:
              1
     1  C   -0.073937
     2  O   -0.348318
     3  C    0.226165
     4  O   -0.374409
     5  C   -0.064444
     6  H    0.116129
     7  H    0.083561
     8  H    0.053584
     9  H    0.101564
    10  H    0.034025
    11  H    0.109512
    12  H    0.076276
    13  H    0.060293
 Sum of Mulliken atomic charges =   0.00000
 Mulliken charges with hydrogens summed into heavy atoms:
              1
     1  C    0.179337
     2  O   -0.348318
     3  C    0.361753
     4  O   -0.374409
     5  C    0.181637
 Sum of Mulliken charges with hydrogens summed into heavy atoms =   0.00000
 Electronic spatial extent (au):  <R**2>=            486.8734
 Charge=              0.0000 electrons
 Dipole moment (field-independent basis, Debye):
    X=             -0.8539    Y=              1.4745    Z=              1.8052  Tot=              2.4824
 Quadrupole moment (field-independent basis, Debye-Ang):
   XX=            -30.6476   YY=            -29.9625   ZZ=            -32.5327
   XY=              1.2502   XZ=             -0.8410   YZ=             -1.2249
 Traceless Quadrupole moment (field-independent basis, Debye-Ang):
   XX=              0.4000   YY=              1.0851   ZZ=             -1.4851
   XY=              1.2502   XZ=             -0.8410   YZ=             -1.2249
 Octapole moment (field-independent basis, Debye-Ang**2):
  XXX=             -2.7137  YYY=             -5.9686  ZZZ=             -0.9793  XYY=             -0.2701
  XXY=              7.1671  XXZ=             -0.6440  XZZ=              0.3491  YZZ=             -0.2030
  YYZ=             -0.6597  XYZ=              0.8776
 Hexadecapole moment (field-independent basis, Debye-Ang**3):
 XXXX=           -390.2227 YYYY=           -142.8854 ZZZZ=            -65.8031 XXXY=              3.4310
 XXXZ=             -0.4457 YYYX=             -1.0296 YYYZ=              0.3644 ZZZX=              1.6456
 ZZZY=             -0.2279 XXYY=            -95.0308 XXZZ=            -79.4744 YYZZ=            -35.8656
 XXYZ=             -3.8699 YYXZ=              0.6264 ZZXY=             -0.8231
 N-N= 1.964736147046D+02 E-N=-1.023161476527D+03  KE= 2.675566739114D+02
 1\1\GINC-ROCK\SP\RMP2-FC\CC-pVTZ\C3H8O2\STYLIANAKIS\03-Mar-2016\0\\# m
 p2/cc-pVTZ\\Formaldehyde_dimethylacetal_g_ecl_single_point\\0,1\C\O,1,
 1.422236\C,2,1.399623,1,114.535\O,3,1.415238,2,112.629,1,66.168,0\C,4,
 1.421829,3,116.016,2,-117.558,0\H,1,1.091547,2,106.698,3,175.11,0\H,1,
 1.096353,2,111.368,3,-65.814,0\H,1,1.101155,2,111.029,3,56.354,0\H,3,1
 .093421,2,105.163,1,-175.866,0\H,3,1.104583,2,110.469,1,-56.768,0\H,5,
 1.092103,4,106.565,3,177.009,0\H,5,1.098965,4,111.69,3,-64.421,0\H,5,1
 .099069,4,111.992,3,58.029,0\\Version=EM64L-G09RevA.01\State=1-A\HF=-2
 68.0507289\MP2=-269.0531522\RMSD=2.891e-09\PG=C01 [X(C3H8O2)]\\@


 EXPERIENCE IS THE FRUIT OF THE TREE OF ERRORS.
 Job cpu time:  0 days  0 hours  7 minutes 13.5 seconds.
 File lengths (MBytes):  RWF=     30 Int=      0 D2E=      0 Chk=      4 Scr=      1
 Normal termination of Gaussian 09 at Thu Mar  3 21:57:14 2016.
