 Entering Gaussian System, Link 0=g09
 Input=Formaldehyde_dimethylacetal_aa.gjf
 Output=Formaldehyde_dimethylacetal_aa.out
 Initial command:
 /usr/local/g09/l1.exe /home/scratch/stylianakis/Gau-18439.inp -scrdir=/home/scratch/stylianakis/
 Entering Link 1 = /usr/local/g09/l1.exe PID=     18440.
  
 Copyright (c) 1988,1990,1992,1993,1995,1998,2003,2009, Gaussian, Inc.
                  All Rights Reserved.
  
 This is part of the Gaussian(R) 09 program.  It is based on
 the Gaussian(R) 03 system (copyright 2003, Gaussian, Inc.),
 the Gaussian(R) 98 system (copyright 1998, Gaussian, Inc.),
 the Gaussian(R) 94 system (copyright 1995, Gaussian, Inc.),
 the Gaussian 92(TM) system (copyright 1992, Gaussian, Inc.),
 the Gaussian 90(TM) system (copyright 1990, Gaussian, Inc.),
 the Gaussian 88(TM) system (copyright 1988, Gaussian, Inc.),
 the Gaussian 86(TM) system (copyright 1986, Carnegie Mellon
 University), and the Gaussian 82(TM) system (copyright 1983,
 Carnegie Mellon University). Gaussian is a federally registered
 trademark of Gaussian, Inc.
  
 This software contains proprietary and confidential information,
 including trade secrets, belonging to Gaussian, Inc.
  
 This software is provided under written license and may be
 used, copied, transmitted, or stored only in accord with that
 written license.
  
 The following legend is applicable only to US Government
 contracts under FAR:
  
                    RESTRICTED RIGHTS LEGEND
  
 Use, reproduction and disclosure by the US Government is
 subject to restrictions as set forth in subparagraphs (a)
 and (c) of the Commercial Computer Software - Restricted
 Rights clause in FAR 52.227-19.
  
 Gaussian, Inc.
 340 Quinnipiac St., Bldg. 40, Wallingford CT 06492
  
  
 ---------------------------------------------------------------
 Warning -- This program may not be used in any manner that
 competes with the business of Gaussian, Inc. or will provide
 assistance to any competitor of Gaussian, Inc.  The licensee
 of this program is prohibited from giving any competitor of
 Gaussian, Inc. access to this program.  By using this program,
 the user acknowledges that Gaussian, Inc. is engaged in the
 business of creating and licensing software in the field of
 computational chemistry and represents and warrants to the
 licensee that it is not a competitor of Gaussian, Inc. and that
 it will not use this program in any manner prohibited above.
 ---------------------------------------------------------------
  

 Cite this work as:
 Gaussian 09, Revision A.01,
 M. J. Frisch, G. W. Trucks, H. B. Schlegel, G. E. Scuseria, 
 M. A. Robb, J. R. Cheeseman, G. Scalmani, V. Barone, B. Mennucci, 
 G. A. Petersson, H. Nakatsuji, M. Caricato, X. Li, H. P. Hratchian, 
 A. F. Izmaylov, J. Bloino, G. Zheng, J. L. Sonnenberg, M. Hada, 
 M. Ehara, K. Toyota, R. Fukuda, J. Hasegawa, M. Ishida, T. Nakajima, 
 Y. Honda, O. Kitao, H. Nakai, T. Vreven, J. A. Montgomery, Jr., 
 J. E. Peralta, F. Ogliaro, M. Bearpark, J. J. Heyd, E. Brothers, 
 K. N. Kudin, V. N. Staroverov, R. Kobayashi, J. Normand, 
 K. Raghavachari, A. Rendell, J. C. Burant, S. S. Iyengar, J. Tomasi, 
 M. Cossi, N. Rega, J. M. Millam, M. Klene, J. E. Knox, J. B. Cross, 
 V. Bakken, C. Adamo, J. Jaramillo, R. Gomperts, R. E. Stratmann, 
 O. Yazyev, A. J. Austin, R. Cammi, C. Pomelli, J. W. Ochterski, 
 R. L. Martin, K. Morokuma, V. G. Zakrzewski, G. A. Voth, 
 P. Salvador, J. J. Dannenberg, S. Dapprich, A. D. Daniels, 
 O. Farkas, J. B. Foresman, J. V. Ortiz, J. Cioslowski, 
 and D. J. Fox, Gaussian, Inc., Wallingford CT, 2009.
 
 ******************************************
 Gaussian 09:  EM64L-G09RevA.01  8-May-2009
                 3-Mar-2016 
 ******************************************
 %mem=8000Mb
 %nproc=4
 Will use up to    4 processors via shared memory.
 -------------
 # mp2/cc-pVTZ
 -------------
 1/38=1/1;
 2/12=2,17=6,18=5,40=1/2;
 3/5=16,6=1,11=9,16=1,25=1,30=1/1,2,3;
 4//1;
 5/5=2,38=5/2;
 8/10=1/1;
 9/16=-3/6;
 6/7=2,8=2,9=2,10=2/1;
 99/5=1,9=1/99;
 -------------------------------------------
 Formaldehyde_dimethylacetal_aa_single_point
 -------------------------------------------
 Symbolic Z-matrix:
 Charge =  0 Multiplicity = 1
 c
 o                    1    oc2
 c                    2    co3      1    coc3
 o                    3    oc4      2    oco4     1    dih4     0
 c                    4    co5      3    coc5     2    dih5     0
 h                    1    hc6      2    hco6     3    dih6     0
 h                    1    hc7      2    hco7     3    dih7     0
 h                    1    hc8      2    hco8     3    dih8     0
 h                    3    hc9      2    hco9     1    dih9     0
 h                    3    hc10     2    hco10    1    dih10    0
 h                    5    hc11     4    hco11    3    dih11    0
 h                    5    hc12     4    hco12    3    dih12    0
 h                    5    hc13     4    hco13    3    dih13    0
       Variables:
  oc2                   1.41687                  
  co3                   1.39807                  
  coc3                112.643                    
  oc4                   1.39809                  
  oco4                106.132                    
  dih4               -179.981                    
  co5                   1.41685                  
  coc5                112.643                    
  dih5               -179.995                    
  hc6                   1.0911                   
  hco6                106.725                    
  dih6                179.997                    
  hc7                   1.10071                  
  hco7                111.567                    
  dih7                -60.946                    
  hc8                   1.10072                  
  hco8                111.567                    
  dih8                 60.944                    
  hc9                   1.10943                  
  hco9                110.533                    
  dih9                -60.098                    
  hc10                  1.10941                  
  hco10               110.534                    
  dih10                60.136                    
  hc11                  1.09111                  
  hco11               106.726                    
  dih11              -180.                       
  hc12                  1.1007                   
  hco12               111.568                    
  dih12               -60.946                    
  hc13                  1.10071                  
  hco13               111.568                    
  dih13                60.945                    
 
                          Input orientation:                          
 ---------------------------------------------------------------------
 Center     Atomic      Atomic             Coordinates (Angstroms)
 Number     Number       Type             X           Y           Z
 ---------------------------------------------------------------------
      1          6           0        0.000000    0.000000    0.000000
      2          8           0        0.000000    0.000000    1.416868
      3          6           0        1.290313    0.000000    1.955110
      4          8           0        1.131778   -0.000445    3.344177
      5          6           0        2.369132   -0.000385    4.034408
      6          1           0       -1.044943   -0.000055   -0.313995
      7          1           0        0.497115    0.894830   -0.404607
      8          1           0        0.497152   -0.894822   -0.404611
      9          1           0        1.848846   -0.900641    1.626908
     10          1           0        1.848623    0.900965    1.627474
     11          1           0        2.134311   -0.000750    5.099949
     12          1           0        2.964859   -0.895009    3.797125
     13          1           0        2.964487    0.894633    3.797640
 ---------------------------------------------------------------------
                    Distance matrix (angstroms):
                    1          2          3          4          5
     1  C    0.000000
     2  O    1.416868   0.000000
     3  C    2.342512   1.398074   0.000000
     4  O    3.530502   2.235049   1.398085   0.000000
     5  C    4.678593   3.530481   2.342505   1.416849   0.000000
     6  H    1.091100   2.021829   3.256111   4.256799   5.528518
     7  H    1.100705   2.089406   2.645401   3.906110   4.900072
     8  H    1.100717   2.089415   2.645391   3.905903   4.899920
     9  H    2.622254   2.067245   1.109428   2.067257   2.622445
    10  H    2.622559   2.067244   1.109411   2.067239   2.622344
    11  H    5.528541   4.256803   3.256124   2.021832   1.091109
    12  H    4.899958   3.906028   2.645405   2.089400   1.100703
    13  H    4.900063   3.905973   2.645401   2.089406   1.100711
                    6          7          8          9         10
     6  H    0.000000
     7  H    1.785210   0.000000
     8  H    1.785183   1.789653   0.000000
     9  H    3.598913   3.029512   2.440119   0.000000
    10  H    3.599147   2.440484   3.029966   1.801606   0.000000
    11  H    6.278411   5.812281   5.812042   3.599071   3.598998
    12  H    5.812122   5.191130   4.872799   2.440361   3.029668
    13  H    5.812189   4.873069   5.191224   3.029809   2.440248
                   11         12         13
    11  H    0.000000
    12  H    1.785177   0.000000
    13  H    1.785193   1.789642   0.000000
 Stoichiometry    C3H8O2
 Framework group  C1[X(C3H8O2)]
 Deg. of freedom    33
 Full point group                 C1      NOp   1
 Largest Abelian subgroup         C1      NOp   1
 Largest concise Abelian subgroup C1      NOp   1
                         Standard orientation:                         
 ---------------------------------------------------------------------
 Center     Atomic      Atomic             Coordinates (Angstroms)
 Number     Number       Type             X           Y           Z
 ---------------------------------------------------------------------
      1          6           0       -2.339303    0.194122   -0.000094
      2          8           0       -1.117520   -0.523347    0.000132
      3          6           0       -0.000003    0.316752    0.000112
      4          8           0        1.117529   -0.523346   -0.000098
      5          6           0        2.339290    0.194123   -0.000029
      6          1           0       -3.139199   -0.547945   -0.000113
      7          1           0       -2.436558    0.827811    0.894630
      8          1           0       -2.436372    0.827572   -0.895022
      9          1           0       -0.000101    0.964439   -0.900628
     10          1           0        0.000102    0.964234    0.900978
     11          1           0        3.139212   -0.547931   -0.000205
     12          1           0        2.436427    0.827844   -0.894741
     13          1           0        2.436510    0.827535    0.894902
 ---------------------------------------------------------------------
 Rotational constants (GHZ):     24.3517365      2.2977575      2.1880648
 Standard basis: CC-pVTZ (5D, 7F)
 There are   262 symmetry adapted basis functions of A   symmetry.
 Integral buffers will be    131072 words long.
 Raffenetti 1 integral format.
 Two-electron integral symmetry is turned on.
   262 basis functions,   396 primitive gaussians,   295 cartesian basis functions
    21 alpha electrons       21 beta electrons
       nuclear repulsion energy       192.3888292949 Hartrees.
 NAtoms=   13 NActive=   13 NUniq=   13 SFac= 7.50D-01 NAtFMM=   80 NAOKFM=F Big=F
 One-electron integrals computed using PRISM.
 NBasis=   262 RedAO= T  NBF=   262
 NBsUse=   262 1.00D-06 NBFU=   262
 Harris functional with IExCor=  205 diagonalized for initial guess.
 ExpMin= 1.03D-01 ExpMax= 1.53D+04 ExpMxC= 5.22D+02 IAcc=1 IRadAn=         1 AccDes= 0.00D+00
 HarFok:  IExCor=  205 AccDes= 0.00D+00 IRadAn=         1 IDoV= 1
 ScaDFX=  1.000000  1.000000  1.000000  1.000000
 FoFCou: FMM=F IPFlag=           0 FMFlag=      100000 FMFlg1=           0
         NFxFlg=           0 DoJE=T BraDBF=F KetDBF=T FulRan=T
         Omega=  0.000000  0.000000  1.000000  0.000000  0.000000 ICntrl=     500 IOpCl=  0
         NMat0=    1 NMatS0=    1 NMatT0=    0 NMatD0=    1 NMtDS0=    0 NMtDT0=    0
         I1Cent=           4 NGrid=           0.
 Petite list used in FoFCou.
 Initial guess orbital symmetries:
       Occupied  (A) (A) (A) (A) (A) (A) (A) (A) (A) (A) (A) (A)
                 (A) (A) (A) (A) (A) (A) (A) (A) (A)
       Virtual   (A) (A) (A) (A) (A) (A) (A) (A) (A) (A) (A) (A)
                 (A) (A) (A) (A) (A) (A) (A) (A) (A) (A) (A) (A)
                 (A) (A) (A) (A) (A) (A) (A) (A) (A) (A) (A) (A)
                 (A) (A) (A) (A) (A) (A) (A) (A) (A) (A) (A) (A)
                 (A) (A) (A) (A) (A) (A) (A) (A) (A) (A) (A) (A)
                 (A) (A) (A) (A) (A) (A) (A) (A) (A) (A) (A) (A)
                 (A) (A) (A) (A) (A) (A) (A) (A) (A) (A) (A) (A)
                 (A) (A) (A) (A) (A) (A) (A) (A) (A) (A) (A) (A)
                 (A) (A) (A) (A) (A) (A) (A) (A) (A) (A) (A) (A)
                 (A) (A) (A) (A) (A) (A) (A) (A) (A) (A) (A) (A)
                 (A) (A) (A) (A) (A) (A) (A) (A) (A) (A) (A) (A)
                 (A) (A) (A) (A) (A) (A) (A) (A) (A) (A) (A) (A)
                 (A) (A) (A) (A) (A) (A) (A) (A) (A) (A) (A) (A)
                 (A) (A) (A) (A) (A) (A) (A) (A) (A) (A) (A) (A)
                 (A) (A) (A) (A) (A) (A) (A) (A) (A) (A) (A) (A)
                 (A) (A) (A) (A) (A) (A) (A) (A) (A) (A) (A) (A)
                 (A) (A) (A) (A) (A) (A) (A) (A) (A) (A) (A) (A)
                 (A) (A) (A) (A) (A) (A) (A) (A) (A) (A) (A) (A)
                 (A) (A) (A) (A) (A) (A) (A) (A) (A) (A) (A) (A)
                 (A) (A) (A) (A) (A) (A) (A) (A) (A) (A) (A) (A)
                 (A)
 The electronic state of the initial guess is 1-A.
 Requested convergence on RMS density matrix=1.00D-08 within 128 cycles.
 Requested convergence on MAX density matrix=1.00D-06.
 Requested convergence on             energy=1.00D-06.
 No special actions if energy rises.
 Keep R1 ints in memory in canonical form, NReq=966369811.
 SCF Done:  E(RHF) =  -268.049414116     A.U. after   11 cycles
             Convg  =    0.3966D-08             -V/T =  2.0018
 ExpMin= 1.03D-01 ExpMax= 1.53D+04 ExpMxC= 5.22D+02 IAcc=1 IRadAn=         1 AccDes= 0.00D+00
 HarFok:  IExCor=  205 AccDes= 0.00D+00 IRadAn=         1 IDoV=-2
 ScaDFX=  1.000000  1.000000  1.000000  1.000000
 Range of M.O.s used for correlation:     6   262
 NBasis=   262 NAE=    21 NBE=    21 NFC=     5 NFV=     0
 NROrb=    257 NOA=    16 NOB=    16 NVA=   241 NVB=   241
 Fully direct method using O(OVN) memory.
 JobTyp=1 Pass  1:  I=   1 to  16 NPSUse=  4 ParTrn=T ParDer=T DoDerP=F.
 Spin components of T(2) and E(2):
     alpha-alpha T2 =       0.3283799783D-01 E2=     -0.1175060554D+00
     alpha-beta  T2 =       0.2021638303D+00 E2=     -0.7653433743D+00
     beta-beta   T2 =       0.3283799783D-01 E2=     -0.1175060554D+00
 ANorm=    0.1125983937D+01
 E2 =    -0.1000355485D+01 EUMP2 =    -0.26904976960107D+03

 **********************************************************************

            Population analysis using the SCF density.

 **********************************************************************

 Orbital symmetries:
       Occupied  (A) (A) (A) (A) (A) (A) (A) (A) (A) (A) (A) (A)
                 (A) (A) (A) (A) (A) (A) (A) (A) (A)
       Virtual   (A) (A) (A) (A) (A) (A) (A) (A) (A) (A) (A) (A)
                 (A) (A) (A) (A) (A) (A) (A) (A) (A) (A) (A) (A)
                 (A) (A) (A) (A) (A) (A) (A) (A) (A) (A) (A) (A)
                 (A) (A) (A) (A) (A) (A) (A) (A) (A) (A) (A) (A)
                 (A) (A) (A) (A) (A) (A) (A) (A) (A) (A) (A) (A)
                 (A) (A) (A) (A) (A) (A) (A) (A) (A) (A) (A) (A)
                 (A) (A) (A) (A) (A) (A) (A) (A) (A) (A) (A) (A)
                 (A) (A) (A) (A) (A) (A) (A) (A) (A) (A) (A) (A)
                 (A) (A) (A) (A) (A) (A) (A) (A) (A) (A) (A) (A)
                 (A) (A) (A) (A) (A) (A) (A) (A) (A) (A) (A) (A)
                 (A) (A) (A) (A) (A) (A) (A) (A) (A) (A) (A) (A)
                 (A) (A) (A) (A) (A) (A) (A) (A) (A) (A) (A) (A)
                 (A) (A) (A) (A) (A) (A) (A) (A) (A) (A) (A) (A)
                 (A) (A) (A) (A) (A) (A) (A) (A) (A) (A) (A) (A)
                 (A) (A) (A) (A) (A) (A) (A) (A) (A) (A) (A) (A)
                 (A) (A) (A) (A) (A) (A) (A) (A) (A) (A) (A) (A)
                 (A) (A) (A) (A) (A) (A) (A) (A) (A) (A) (A) (A)
                 (A) (A) (A) (A) (A) (A) (A) (A) (A) (A) (A) (A)
                 (A) (A) (A) (A) (A) (A) (A) (A) (A) (A) (A) (A)
                 (A) (A) (A) (A) (A) (A) (A) (A) (A) (A) (A) (A)
                 (A)
 The electronic state is 1-A.
 Alpha  occ. eigenvalues --  -20.55901 -20.55900 -11.32999 -11.27655 -11.27655
 Alpha  occ. eigenvalues --   -1.41352  -1.34735  -0.98067  -0.91208  -0.86019
 Alpha  occ. eigenvalues --   -0.69758  -0.67784  -0.67624  -0.62361  -0.59103
 Alpha  occ. eigenvalues --   -0.56536  -0.55334  -0.50362  -0.48424  -0.44739
 Alpha  occ. eigenvalues --   -0.41529
 Alpha virt. eigenvalues --    0.13671   0.15115   0.18972   0.20021   0.21839
 Alpha virt. eigenvalues --    0.22257   0.22764   0.26099   0.27196   0.27881
 Alpha virt. eigenvalues --    0.34486   0.34845   0.39182   0.39446   0.46142
 Alpha virt. eigenvalues --    0.47241   0.47356   0.51066   0.56474   0.56609
 Alpha virt. eigenvalues --    0.60490   0.60976   0.61123   0.62512   0.63415
 Alpha virt. eigenvalues --    0.63588   0.64385   0.64453   0.64836   0.64944
 Alpha virt. eigenvalues --    0.66012   0.72685   0.76595   0.78159   0.82559
 Alpha virt. eigenvalues --    0.89501   0.89997   0.90283   0.95280   0.97589
 Alpha virt. eigenvalues --    0.97736   1.00970   1.06058   1.06561   1.10904
 Alpha virt. eigenvalues --    1.12683   1.14606   1.15949   1.16934   1.17975
 Alpha virt. eigenvalues --    1.19164   1.20051   1.25549   1.26185   1.27251
 Alpha virt. eigenvalues --    1.30411   1.30736   1.33192   1.34328   1.35456
 Alpha virt. eigenvalues --    1.42246   1.45746   1.46089   1.46979   1.48809
 Alpha virt. eigenvalues --    1.49159   1.51790   1.53159   1.53900   1.54977
 Alpha virt. eigenvalues --    1.57558   1.61126   1.61250   1.64074   1.72045
 Alpha virt. eigenvalues --    1.72861   1.81515   1.82217   1.92363   2.05702
 Alpha virt. eigenvalues --    2.14034   2.18667   2.25577   2.31566   2.33882
 Alpha virt. eigenvalues --    2.35566   2.37424   2.47603   2.48439   2.49591
 Alpha virt. eigenvalues --    2.50183   2.57716   2.58204   2.62200   2.67723
 Alpha virt. eigenvalues --    2.68165   2.73932   2.87883   2.90653   2.97101
 Alpha virt. eigenvalues --    3.03742   3.04050   3.04625   3.08302   3.08562
 Alpha virt. eigenvalues --    3.09723   3.09935   3.13016   3.15602   3.15616
 Alpha virt. eigenvalues --    3.17163   3.21436   3.22037   3.28210   3.28959
 Alpha virt. eigenvalues --    3.29043   3.29454   3.31500   3.33631   3.33715
 Alpha virt. eigenvalues --    3.35629   3.38021   3.45343   3.46503   3.47123
 Alpha virt. eigenvalues --    3.48743   3.54003   3.58376   3.60872   3.60947
 Alpha virt. eigenvalues --    3.61730   3.64234   3.67741   3.69235   3.69391
 Alpha virt. eigenvalues --    3.72395   3.73397   3.73692   3.75550   3.76405
 Alpha virt. eigenvalues --    3.80890   3.81188   3.82092   3.85098   3.87965
 Alpha virt. eigenvalues --    3.89138   3.93915   3.95991   4.00349   4.04353
 Alpha virt. eigenvalues --    4.04393   4.07294   4.09091   4.11763   4.14527
 Alpha virt. eigenvalues --    4.14718   4.18346   4.25524   4.28511   4.30184
 Alpha virt. eigenvalues --    4.31495   4.32164   4.32322   4.36149   4.37562
 Alpha virt. eigenvalues --    4.38146   4.38328   4.44404   4.47882   4.51524
 Alpha virt. eigenvalues --    4.51575   4.54697   4.55987   4.62462   4.65555
 Alpha virt. eigenvalues --    4.73363   4.77506   4.81660   4.82114   4.95662
 Alpha virt. eigenvalues --    4.96966   4.97003   5.02182   5.07691   5.14307
 Alpha virt. eigenvalues --    5.15666   5.17057   5.18923   5.24664   5.27002
 Alpha virt. eigenvalues --    5.27590   5.29503   5.37166   5.38811   5.40139
 Alpha virt. eigenvalues --    5.40920   5.45021   5.47498   5.53317   5.53872
 Alpha virt. eigenvalues --    5.57617   5.57724   5.57922   5.64355   5.67387
 Alpha virt. eigenvalues --    5.75080   5.84440   5.89555   5.93281   5.97842
 Alpha virt. eigenvalues --    6.15540   6.15776   6.17127   6.18222   6.22451
 Alpha virt. eigenvalues --    6.23680   6.36145   6.42357   6.53617   6.53733
 Alpha virt. eigenvalues --    6.57921   6.58103   6.77804   6.88902   6.92027
 Alpha virt. eigenvalues --    6.93266   7.25376   7.28954   7.32595   7.32646
 Alpha virt. eigenvalues --    7.49531   7.53555   7.80080   7.80355   7.90943
 Alpha virt. eigenvalues --    7.93411  10.83464  11.02235  13.20945  13.79047
 Alpha virt. eigenvalues --   13.85956
          Condensed to atoms (all electrons):
              1          2          3          4          5          6
     1  C    4.558791   0.316749  -0.042787   0.002884  -0.000565   0.417649
     2  O    0.316749   7.917823   0.361306  -0.052294   0.002884  -0.029220
     3  C   -0.042787   0.361306   4.283888   0.361302  -0.042788   0.006178
     4  O    0.002884  -0.052294   0.361302   7.917820   0.316755  -0.000073
     5  C   -0.000565   0.002884  -0.042788   0.316755   4.558784   0.000023
     6  H    0.417649  -0.029220   0.006178  -0.000073   0.000023   0.559362
     7  H    0.412096  -0.044782  -0.010008  -0.000165  -0.000006  -0.032796
     8  H    0.412105  -0.044779  -0.010021  -0.000164  -0.000006  -0.032800
     9  H   -0.004623  -0.053141   0.405890  -0.053129  -0.004628  -0.000095
    10  H   -0.004627  -0.053132   0.405911  -0.053141  -0.004622  -0.000096
    11  H    0.000023  -0.000073   0.006178  -0.029220   0.417648  -0.000002
    12  H   -0.000006  -0.000165  -0.010011  -0.044783   0.412096   0.000003
    13  H   -0.000006  -0.000165  -0.010019  -0.044782   0.412106   0.000003
              7          8          9         10         11         12
     1  C    0.412096   0.412105  -0.004623  -0.004627   0.000023  -0.000006
     2  O   -0.044782  -0.044779  -0.053141  -0.053132  -0.000073  -0.000165
     3  C   -0.010008  -0.010021   0.405890   0.405911   0.006178  -0.010011
     4  O   -0.000165  -0.000164  -0.053129  -0.053141  -0.029220  -0.044783
     5  C   -0.000006  -0.000006  -0.004628  -0.004622   0.417648   0.412096
     6  H   -0.032796  -0.032800  -0.000095  -0.000096  -0.000002   0.000003
     7  H    0.669265  -0.063907  -0.005491   0.015152   0.000003  -0.000014
     8  H   -0.063907   0.669263   0.015157  -0.005486   0.000003   0.000008
     9  H   -0.005491   0.015157   0.790425  -0.107983  -0.000095   0.015154
    10  H    0.015152  -0.005486  -0.107983   0.790381  -0.000095  -0.005489
    11  H    0.000003   0.000003  -0.000095  -0.000095   0.559374  -0.032801
    12  H   -0.000014   0.000008   0.015154  -0.005489  -0.032801   0.669280
    13  H    0.000008  -0.000014  -0.005488   0.015156  -0.032799  -0.063910
             13
     1  C   -0.000006
     2  O   -0.000165
     3  C   -0.010019
     4  O   -0.044782
     5  C    0.412106
     6  H    0.000003
     7  H    0.000008
     8  H   -0.000014
     9  H   -0.005488
    10  H    0.015156
    11  H   -0.032799
    12  H   -0.063910
    13  H    0.669271
 Mulliken atomic charges:
              1
     1  C   -0.067683
     2  O   -0.321012
     3  C    0.294983
     4  O   -0.321009
     5  C   -0.067681
     6  H    0.111865
     7  H    0.060644
     8  H    0.060641
     9  H    0.008047
    10  H    0.008071
    11  H    0.111858
    12  H    0.060638
    13  H    0.060639
 Sum of Mulliken atomic charges =   0.00000
 Mulliken charges with hydrogens summed into heavy atoms:
              1
     1  C    0.165467
     2  O   -0.321012
     3  C    0.311100
     4  O   -0.321009
     5  C    0.165454
 Sum of Mulliken charges with hydrogens summed into heavy atoms =   0.00000
 Electronic spatial extent (au):  <R**2>=            583.1655
 Charge=              0.0000 electrons
 Dipole moment (field-independent basis, Debye):
    X=             -0.0001    Y=              2.7137    Z=              0.0000  Tot=              2.7137
 Quadrupole moment (field-independent basis, Debye-Ang):
   XX=            -24.7805   YY=            -33.5258   ZZ=            -31.6865
   XY=              0.0000   XZ=              0.0006   YZ=              0.0002
 Traceless Quadrupole moment (field-independent basis, Debye-Ang):
   XX=              5.2171   YY=             -3.5282   ZZ=             -1.6889
   XY=              0.0000   XZ=              0.0006   YZ=              0.0002
 Octapole moment (field-independent basis, Debye-Ang**2):
  XXX=             -0.0010  YYY=             -3.3914  ZZZ=              0.0004  XYY=             -0.0002
  XXY=             -1.4380  XXZ=             -0.0014  XZZ=             -0.0001  YZZ=              0.3178
  YYZ=             -0.0002  XYZ=             -0.0004
 Hexadecapole moment (field-independent basis, Debye-Ang**3):
 XXXX=           -573.2394 YYYY=            -80.5439 ZZZZ=            -51.8829 XXXY=              0.0005
 XXXZ=             -0.0011 YYYX=              0.0001 YYYZ=              0.0000 ZZZX=              0.0004
 ZZZY=              0.0001 XXYY=           -116.7524 XXZZ=           -115.6486 YYZZ=            -20.8374
 XXYZ=              0.0016 YYXZ=             -0.0011 ZZXY=             -0.0001
 N-N= 1.923888292949D+02 E-N=-1.014943211698D+03  KE= 2.675676182559D+02
 1\1\GINC-ROCK\SP\RMP2-FC\CC-pVTZ\C3H8O2\STYLIANAKIS\03-Mar-2016\0\\# m
 p2/cc-pVTZ\\Formaldehyde_dimethylacetal_aa_single_point\\0,1\C\O,1,1.4
 16868\C,2,1.398074,1,112.643\O,3,1.398085,2,106.132,1,-179.981,0\C,4,1
 .416849,3,112.643,2,-179.995,0\H,1,1.0911,2,106.725,3,179.997,0\H,1,1.
 100705,2,111.567,3,-60.946,0\H,1,1.100717,2,111.567,3,60.944,0\H,3,1.1
 09428,2,110.533,1,-60.098,0\H,3,1.109411,2,110.534,1,60.136,0\H,5,1.09
 1109,4,106.726,3,-180.,0\H,5,1.100703,4,111.568,3,-60.946,0\H,5,1.1007
 11,4,111.568,3,60.945,0\\Version=EM64L-G09RevA.01\State=1-A\HF=-268.04
 94141\MP2=-269.0497696\RMSD=3.966e-09\PG=C01 [X(C3H8O2)]\\@


 A ROPE OVER THE TOP OF A FENCE HAS THE SAME LENGTH ON EACH SIDE.
 WEIGHS 1/3 POUND PER FOOT.  ON ONE END HANGS A MONKEY HOLDING A
 BANANA, AND ON THE OTHER END A WEIGHT EQUAL TO THE WEIGHT
 OF THE MONKEY.  THE BANANA WEIGHS TWO OUNCES PER INCH.
 THE ROPE IS AS LONG AS THE AGE OF THE MONKEY, 
 AND THE WEIGHT OF THE MONKEY (IN OUNCES) IS AS MUCH
 AS THE AGE OF THE MONKEY'S MOTHER.  THE COMBINED AGES OF MONKEY
 AND MOTHER ARE THIRTY YEARS.  HALF THE WEIGHT OF THE MONKEY,
  PLUS THE WEIGHT OF THE BANANA, IS ONE FOURTH AS MUCH AS THE WEIGHT
 OF THE WEIGHT AND THE ROPE.
 THE MONKEY'S MOTHER IS HALF AS OLD AS THE MONKEY WILL BE
 WHEN IT IS 3 TIMES AS OLD AS ITS MOTHER WAS WHEN
 SHE WAS HALF AS OLD AS THE MONKEY WILL BE WHEN IT IS
 AS OLD AS ITS MOTHER WILL BE WHEN SHE IS 4 TIMES AS
 OLD AS THE MONKEY WAS WHEN IT WAS TWICE AS OLD AS 
 ITS MOTHER WAS WHEN SHE WAS ONE THIRD AS OLD AS THE
 MONKEY WAS WHEN IT WAS AS OLD AS ITS MOTHER WAS WHEN 
 SHE WAS 3 TIMES AS OLD AS THE MONKEY WAS WHEN IT WAS AS OLD AS ITS
 MOTHER WAS WHEN SHE WAS 3 TIMES AS OLD AS THE MONKEY 
 WAS WHEN IT WAS ONE FOURTH WAS OLD AS IT IS NOW.

 HOW LONG IS THE BANANA?
 Job cpu time:  0 days  0 hours  6 minutes 24.3 seconds.
 File lengths (MBytes):  RWF=     30 Int=      0 D2E=      0 Chk=      4 Scr=      1
 Normal termination of Gaussian 09 at Thu Mar  3 21:53:40 2016.
