 Entering Gaussian System, Link 0=g09
 Input=glycolic_acid_cis1.gjf
 Output=glycolic_acid_cis1.out
 Initial command:
 /usr/local/g09/l1.exe /home/scratch/stylianakis/Gau-18760.inp -scrdir=/home/scratch/stylianakis/
 Entering Link 1 = /usr/local/g09/l1.exe PID=     18761.
  
 Copyright (c) 1988,1990,1992,1993,1995,1998,2003,2009, Gaussian, Inc.
                  All Rights Reserved.
  
 This is part of the Gaussian(R) 09 program.  It is based on
 the Gaussian(R) 03 system (copyright 2003, Gaussian, Inc.),
 the Gaussian(R) 98 system (copyright 1998, Gaussian, Inc.),
 the Gaussian(R) 94 system (copyright 1995, Gaussian, Inc.),
 the Gaussian 92(TM) system (copyright 1992, Gaussian, Inc.),
 the Gaussian 90(TM) system (copyright 1990, Gaussian, Inc.),
 the Gaussian 88(TM) system (copyright 1988, Gaussian, Inc.),
 the Gaussian 86(TM) system (copyright 1986, Carnegie Mellon
 University), and the Gaussian 82(TM) system (copyright 1983,
 Carnegie Mellon University). Gaussian is a federally registered
 trademark of Gaussian, Inc.
  
 This software contains proprietary and confidential information,
 including trade secrets, belonging to Gaussian, Inc.
  
 This software is provided under written license and may be
 used, copied, transmitted, or stored only in accord with that
 written license.
  
 The following legend is applicable only to US Government
 contracts under FAR:
  
                    RESTRICTED RIGHTS LEGEND
  
 Use, reproduction and disclosure by the US Government is
 subject to restrictions as set forth in subparagraphs (a)
 and (c) of the Commercial Computer Software - Restricted
 Rights clause in FAR 52.227-19.
  
 Gaussian, Inc.
 340 Quinnipiac St., Bldg. 40, Wallingford CT 06492
  
  
 ---------------------------------------------------------------
 Warning -- This program may not be used in any manner that
 competes with the business of Gaussian, Inc. or will provide
 assistance to any competitor of Gaussian, Inc.  The licensee
 of this program is prohibited from giving any competitor of
 Gaussian, Inc. access to this program.  By using this program,
 the user acknowledges that Gaussian, Inc. is engaged in the
 business of creating and licensing software in the field of
 computational chemistry and represents and warrants to the
 licensee that it is not a competitor of Gaussian, Inc. and that
 it will not use this program in any manner prohibited above.
 ---------------------------------------------------------------
  

 Cite this work as:
 Gaussian 09, Revision A.01,
 M. J. Frisch, G. W. Trucks, H. B. Schlegel, G. E. Scuseria, 
 M. A. Robb, J. R. Cheeseman, G. Scalmani, V. Barone, B. Mennucci, 
 G. A. Petersson, H. Nakatsuji, M. Caricato, X. Li, H. P. Hratchian, 
 A. F. Izmaylov, J. Bloino, G. Zheng, J. L. Sonnenberg, M. Hada, 
 M. Ehara, K. Toyota, R. Fukuda, J. Hasegawa, M. Ishida, T. Nakajima, 
 Y. Honda, O. Kitao, H. Nakai, T. Vreven, J. A. Montgomery, Jr., 
 J. E. Peralta, F. Ogliaro, M. Bearpark, J. J. Heyd, E. Brothers, 
 K. N. Kudin, V. N. Staroverov, R. Kobayashi, J. Normand, 
 K. Raghavachari, A. Rendell, J. C. Burant, S. S. Iyengar, J. Tomasi, 
 M. Cossi, N. Rega, J. M. Millam, M. Klene, J. E. Knox, J. B. Cross, 
 V. Bakken, C. Adamo, J. Jaramillo, R. Gomperts, R. E. Stratmann, 
 O. Yazyev, A. J. Austin, R. Cammi, C. Pomelli, J. W. Ochterski, 
 R. L. Martin, K. Morokuma, V. G. Zakrzewski, G. A. Voth, 
 P. Salvador, J. J. Dannenberg, S. Dapprich, A. D. Daniels, 
 O. Farkas, J. B. Foresman, J. V. Ortiz, J. Cioslowski, 
 and D. J. Fox, Gaussian, Inc., Wallingford CT, 2009.
 
 ******************************************
 Gaussian 09:  EM64L-G09RevA.01  8-May-2009
                 3-Mar-2016 
 ******************************************
 %mem=8000Mb
 %nproc=4
 Will use up to    4 processors via shared memory.
 -------------
 # mp2/cc-pVTZ
 -------------
 1/38=1/1;
 2/12=2,17=6,18=5,40=1/2;
 3/5=16,6=1,11=9,16=1,25=1,30=1/1,2,3;
 4//1;
 5/5=2,38=5/2;
 8/10=1/1;
 9/16=-3/6;
 6/7=2,8=2,9=2,10=2/1;
 99/5=1,9=1/99;
 -------------------------------
 glycolic_acid_cis1_single_point
 -------------------------------
 Symbolic Z-matrix:
 Charge =  0 Multiplicity = 1
 c
 o                    1    oc2
 c                    1    cc3      2    cco3
 o                    3    oc4      1    occ4     2    dih4     0
 o                    3    oc5      1    occ5     2    dih5     0
 h                    1    hc6      3    hcc6     5    dih6     0
 h                    1    hc7      3    hcc7     5    dih7     0
 h                    5    ho8      3    hoc8     1    dih8     0
 h                    2    ho9      1    hoc9     3    dih9     0
       Variables:
  oc2                   1.4067                   
  cc3                   1.51474                  
  cco3                111.382                    
  oc4                   1.2146                   
  occ4                123.49                     
  dih4                  0.014                    
  oc5                   1.34657                  
  occ5                112.748                    
  dih5               -179.989                    
  hc6                   1.09882                  
  hcc6                108.324                    
  dih6                -58.023                    
  hc7                   1.09884                  
  hcc7                108.318                    
  dih7                 58.044                    
  ho8                   0.97273                  
  hoc8                107.906                    
  dih8               -179.995                    
  ho9                   0.97155                  
  hoc9                107.532                    
  dih9                 -0.033                    
 
                          Input orientation:                          
 ---------------------------------------------------------------------
 Center     Atomic      Atomic             Coordinates (Angstroms)
 Number     Number       Type             X           Y           Z
 ---------------------------------------------------------------------
      1          6           0        0.000000    0.000000    0.000000
      2          8           0        0.000000    0.000000    1.406698
      3          6           0        1.410478    0.000000   -0.552249
      4          8           0        2.403861   -0.000248    0.146637
      5          8           0        1.442579    0.000238   -1.898437
      6          1           0       -0.523017    0.884930   -0.388277
      7          1           0       -0.522936   -0.884964   -0.388355
      8          1           0        2.375058    0.000142   -2.175358
      9          1           0        0.926417   -0.000534    1.699365
 ---------------------------------------------------------------------
                    Distance matrix (angstroms):
                    1          2          3          4          5
     1  C    0.000000
     2  O    1.406698   0.000000
     3  C    1.514737   2.413902   0.000000
     4  O    2.408329   2.714093   1.214599   0.000000
     5  O    2.384344   3.606238   1.346570   2.259732   0.000000
     6  H    1.098821   2.068474   2.132696   3.104237   2.631887
     7  H    1.098837   2.068535   2.132630   3.104042   2.631954
     8  H    3.220727   4.297909   1.888093   2.322173   0.972729
     9  H    1.935482   0.971547   2.303060   2.143316   3.634639
                    6          7          8          9
     6  H    0.000000
     7  H    1.769894   0.000000
     8  H    3.517861   3.517834   0.000000
     9  H    2.691311   2.690988   4.136670   0.000000
 Stoichiometry    C2H4O3
 Framework group  C1[X(C2H4O3)]
 Deg. of freedom    21
 Full point group                 C1      NOp   1
 Largest Abelian subgroup         C1      NOp   1
 Largest concise Abelian subgroup C1      NOp   1
                         Standard orientation:                         
 ---------------------------------------------------------------------
 Center     Atomic      Atomic             Coordinates (Angstroms)
 Number     Number       Type             X           Y           Z
 ---------------------------------------------------------------------
      1          6           0       -0.742143   -0.747435    0.000086
      2          8           0       -1.897511    0.055015   -0.000117
      3          6           0        0.516043    0.096007   -0.000004
      4          8           0        0.508699    1.310584    0.000022
      5          8           0        1.640023   -0.645558   -0.000052
      6          1           0       -0.721549   -1.398659   -0.884725
      7          1           0       -0.721527   -1.398315    0.885170
      8          1           0        2.399399   -0.037652   -0.000028
      9          1           0       -1.609414    0.982864    0.000262
 ---------------------------------------------------------------------
 Rotational constants (GHZ):     10.6503400      4.0239662      2.9747927
 Standard basis: CC-pVTZ (5D, 7F)
 There are   206 symmetry adapted basis functions of A   symmetry.
 Integral buffers will be    131072 words long.
 Raffenetti 1 integral format.
 Two-electron integral symmetry is turned on.
   206 basis functions,   328 primitive gaussians,   235 cartesian basis functions
    20 alpha electrons       20 beta electrons
       nuclear repulsion energy       179.2482116693 Hartrees.
 NAtoms=    9 NActive=    9 NUniq=    9 SFac= 7.50D-01 NAtFMM=   80 NAOKFM=F Big=F
 One-electron integrals computed using PRISM.
 NBasis=   206 RedAO= T  NBF=   206
 NBsUse=   206 1.00D-06 NBFU=   206
 Harris functional with IExCor=  205 diagonalized for initial guess.
 ExpMin= 1.03D-01 ExpMax= 1.53D+04 ExpMxC= 5.22D+02 IAcc=1 IRadAn=         1 AccDes= 0.00D+00
 HarFok:  IExCor=  205 AccDes= 0.00D+00 IRadAn=         1 IDoV= 1
 ScaDFX=  1.000000  1.000000  1.000000  1.000000
 FoFCou: FMM=F IPFlag=           0 FMFlag=      100000 FMFlg1=           0
         NFxFlg=           0 DoJE=T BraDBF=F KetDBF=T FulRan=T
         Omega=  0.000000  0.000000  1.000000  0.000000  0.000000 ICntrl=     500 IOpCl=  0
         NMat0=    1 NMatS0=    1 NMatT0=    0 NMatD0=    1 NMtDS0=    0 NMtDT0=    0
         I1Cent=           4 NGrid=           0.
 Petite list used in FoFCou.
 Initial guess orbital symmetries:
       Occupied  (A) (A) (A) (A) (A) (A) (A) (A) (A) (A) (A) (A)
                 (A) (A) (A) (A) (A) (A) (A) (A)
       Virtual   (A) (A) (A) (A) (A) (A) (A) (A) (A) (A) (A) (A)
                 (A) (A) (A) (A) (A) (A) (A) (A) (A) (A) (A) (A)
                 (A) (A) (A) (A) (A) (A) (A) (A) (A) (A) (A) (A)
                 (A) (A) (A) (A) (A) (A) (A) (A) (A) (A) (A) (A)
                 (A) (A) (A) (A) (A) (A) (A) (A) (A) (A) (A) (A)
                 (A) (A) (A) (A) (A) (A) (A) (A) (A) (A) (A) (A)
                 (A) (A) (A) (A) (A) (A) (A) (A) (A) (A) (A) (A)
                 (A) (A) (A) (A) (A) (A) (A) (A) (A) (A) (A) (A)
                 (A) (A) (A) (A) (A) (A) (A) (A) (A) (A) (A) (A)
                 (A) (A) (A) (A) (A) (A) (A) (A) (A) (A) (A) (A)
                 (A) (A) (A) (A) (A) (A) (A) (A) (A) (A) (A) (A)
                 (A) (A) (A) (A) (A) (A) (A) (A) (A) (A) (A) (A)
                 (A) (A) (A) (A) (A) (A) (A) (A) (A) (A) (A) (A)
                 (A) (A) (A) (A) (A) (A) (A) (A) (A) (A) (A) (A)
                 (A) (A) (A) (A) (A) (A) (A) (A) (A) (A) (A) (A)
                 (A) (A) (A) (A) (A) (A)
 The electronic state of the initial guess is 1-A.
 Requested convergence on RMS density matrix=1.00D-08 within 128 cycles.
 Requested convergence on MAX density matrix=1.00D-06.
 Requested convergence on             energy=1.00D-06.
 No special actions if energy rises.
 Keep R1 ints in memory in canonical form, NReq=391249278.
 SCF Done:  E(RHF) =  -302.782296964     A.U. after   12 cycles
             Convg  =    0.9250D-08             -V/T =  2.0018
 ExpMin= 1.03D-01 ExpMax= 1.53D+04 ExpMxC= 5.22D+02 IAcc=1 IRadAn=         1 AccDes= 0.00D+00
 HarFok:  IExCor=  205 AccDes= 0.00D+00 IRadAn=         1 IDoV=-2
 ScaDFX=  1.000000  1.000000  1.000000  1.000000
 Range of M.O.s used for correlation:     6   206
 NBasis=   206 NAE=    20 NBE=    20 NFC=     5 NFV=     0
 NROrb=    201 NOA=    15 NOB=    15 NVA=   186 NVB=   186
 Fully in-core method, ICMem=   804666281.
 JobTyp=1 Pass  1 fully in-core, NPsUse=  4.
 Spin components of T(2) and E(2):
     alpha-alpha T2 =       0.3539313454D-01 E2=     -0.1321079946D+00
     alpha-beta  T2 =       0.1936769437D+00 E2=     -0.7705769650D+00
     beta-beta   T2 =       0.3539313454D-01 E2=     -0.1321079946D+00
 ANorm=    0.1124483532D+01
 E2 =    -0.1034792954D+01 EUMP2 =    -0.30381708991842D+03

 **********************************************************************

            Population analysis using the SCF density.

 **********************************************************************

 Orbital symmetries:
       Occupied  (A) (A) (A) (A) (A) (A) (A) (A) (A) (A) (A) (A)
                 (A) (A) (A) (A) (A) (A) (A) (A)
       Virtual   (A) (A) (A) (A) (A) (A) (A) (A) (A) (A) (A) (A)
                 (A) (A) (A) (A) (A) (A) (A) (A) (A) (A) (A) (A)
                 (A) (A) (A) (A) (A) (A) (A) (A) (A) (A) (A) (A)
                 (A) (A) (A) (A) (A) (A) (A) (A) (A) (A) (A) (A)
                 (A) (A) (A) (A) (A) (A) (A) (A) (A) (A) (A) (A)
                 (A) (A) (A) (A) (A) (A) (A) (A) (A) (A) (A) (A)
                 (A) (A) (A) (A) (A) (A) (A) (A) (A) (A) (A) (A)
                 (A) (A) (A) (A) (A) (A) (A) (A) (A) (A) (A) (A)
                 (A) (A) (A) (A) (A) (A) (A) (A) (A) (A) (A) (A)
                 (A) (A) (A) (A) (A) (A) (A) (A) (A) (A) (A) (A)
                 (A) (A) (A) (A) (A) (A) (A) (A) (A) (A) (A) (A)
                 (A) (A) (A) (A) (A) (A) (A) (A) (A) (A) (A) (A)
                 (A) (A) (A) (A) (A) (A) (A) (A) (A) (A) (A) (A)
                 (A) (A) (A) (A) (A) (A) (A) (A) (A) (A) (A) (A)
                 (A) (A) (A) (A) (A) (A) (A) (A) (A) (A) (A) (A)
                 (A) (A) (A) (A) (A) (A)
 The electronic state is 1-A.
 Alpha  occ. eigenvalues --  -20.63193 -20.56878 -20.56440 -11.40487 -11.30825
 Alpha  occ. eigenvalues --   -1.48291  -1.38803  -1.36304  -1.00565  -0.83610
 Alpha  occ. eigenvalues --   -0.74084  -0.72390  -0.68246  -0.64592  -0.61194
 Alpha  occ. eigenvalues --   -0.60939  -0.54078  -0.50247  -0.47487  -0.46397
 Alpha virt. eigenvalues --    0.13326   0.15553   0.15985   0.19625   0.21862
 Alpha virt. eigenvalues --    0.29330   0.32216   0.35927   0.40812   0.44504
 Alpha virt. eigenvalues --    0.48915   0.49260   0.50112   0.54508   0.57335
 Alpha virt. eigenvalues --    0.58948   0.59349   0.62760   0.64736   0.68367
 Alpha virt. eigenvalues --    0.70609   0.73296   0.76506   0.77575   0.78063
 Alpha virt. eigenvalues --    0.80513   0.82194   0.85435   0.87076   0.90088
 Alpha virt. eigenvalues --    0.93236   0.94925   0.95070   1.07184   1.07677
 Alpha virt. eigenvalues --    1.10652   1.17961   1.20022   1.22631   1.25054
 Alpha virt. eigenvalues --    1.30652   1.30757   1.33601   1.39242   1.43528
 Alpha virt. eigenvalues --    1.44803   1.48074   1.51046   1.53323   1.57598
 Alpha virt. eigenvalues --    1.61937   1.66810   1.73063   1.79732   1.79897
 Alpha virt. eigenvalues --    1.92274   1.98820   2.03543   2.04929   2.17365
 Alpha virt. eigenvalues --    2.18815   2.20611   2.26232   2.27648   2.30337
 Alpha virt. eigenvalues --    2.33768   2.42725   2.43456   2.44412   2.49166
 Alpha virt. eigenvalues --    2.57719   2.66781   2.67788   2.77970   2.82810
 Alpha virt. eigenvalues --    2.88177   2.88424   2.95523   2.98538   3.09667
 Alpha virt. eigenvalues --    3.09689   3.15131   3.17546   3.19950   3.23225
 Alpha virt. eigenvalues --    3.25595   3.31336   3.32711   3.38287   3.38296
 Alpha virt. eigenvalues --    3.45313   3.45800   3.51772   3.55247   3.56896
 Alpha virt. eigenvalues --    3.58079   3.64809   3.67230   3.68815   3.68908
 Alpha virt. eigenvalues --    3.74896   3.74960   3.82537   3.82778   3.85661
 Alpha virt. eigenvalues --    3.92593   3.93869   4.00362   4.02680   4.05207
 Alpha virt. eigenvalues --    4.11251   4.12376   4.14152   4.16190   4.18559
 Alpha virt. eigenvalues --    4.24658   4.27717   4.35295   4.37473   4.37889
 Alpha virt. eigenvalues --    4.38143   4.47709   4.49576   4.53777   4.58437
 Alpha virt. eigenvalues --    4.61066   4.64763   4.74179   4.80068   4.80791
 Alpha virt. eigenvalues --    4.84556   4.99164   5.06053   5.07020   5.11249
 Alpha virt. eigenvalues --    5.24459   5.30002   5.33711   5.37653   5.38050
 Alpha virt. eigenvalues --    5.57050   5.59273   5.62202   5.63560   5.70487
 Alpha virt. eigenvalues --    5.77258   5.82086   5.93441   5.97522   6.03201
 Alpha virt. eigenvalues --    6.12108   6.16927   6.17672   6.37896   6.42551
 Alpha virt. eigenvalues --    6.56207   6.61870   6.65976   6.67374   6.83331
 Alpha virt. eigenvalues --    6.90043   6.92171   6.92842   6.97935   7.03914
 Alpha virt. eigenvalues --    7.09390   7.11902   7.14452   7.23106   7.23548
 Alpha virt. eigenvalues --    7.26899   7.33487   7.40767   7.40861   7.51676
 Alpha virt. eigenvalues --    7.52659   7.65486   7.69312   7.78105   7.87950
 Alpha virt. eigenvalues --    7.93143   9.57356  12.26978  12.73726  13.30076
 Alpha virt. eigenvalues --   13.53368
          Condensed to atoms (all electrons):
              1          2          3          4          5          6
     1  C    4.528159   0.355963   0.374671  -0.072360  -0.060867   0.401598
     2  O    0.355963   7.840306  -0.037061  -0.007372   0.001567  -0.040626
     3  C    0.374671  -0.037061   4.224867   0.714719   0.434584  -0.023083
     4  O   -0.072360  -0.007372   0.714719   7.832664  -0.080625   0.000092
     5  O   -0.060867   0.001567   0.434584  -0.080625   7.703501   0.002126
     6  H    0.401598  -0.040626  -0.023083   0.000092   0.002126   0.643075
     7  H    0.401587  -0.040636  -0.023099   0.000090   0.002128  -0.069045
     8  H    0.008829  -0.000305  -0.030436   0.005334   0.327337  -0.000556
     9  H   -0.043074   0.350306  -0.015562   0.020245   0.000792   0.003819
              7          8          9
     1  C    0.401587   0.008829  -0.043074
     2  O   -0.040636  -0.000305   0.350306
     3  C   -0.023099  -0.030436  -0.015562
     4  O    0.000090   0.005334   0.020245
     5  O    0.002128   0.327337   0.000792
     6  H   -0.069045  -0.000556   0.003819
     7  H    0.643164  -0.000556   0.003807
     8  H   -0.000556   0.431945  -0.000233
     9  H    0.003807  -0.000233   0.424122
 Mulliken atomic charges:
              1
     1  C    0.105493
     2  O   -0.422143
     3  C    0.380400
     4  O   -0.412786
     5  O   -0.330543
     6  H    0.082599
     7  H    0.082560
     8  H    0.258643
     9  H    0.255777
 Sum of Mulliken atomic charges =   0.00000
 Mulliken charges with hydrogens summed into heavy atoms:
              1
     1  C    0.270652
     2  O   -0.166366
     3  C    0.380400
     4  O   -0.412786
     5  O   -0.071900
 Sum of Mulliken charges with hydrogens summed into heavy atoms =   0.00000
 Electronic spatial extent (au):  <R**2>=            399.7359
 Charge=              0.0000 electrons
 Dipole moment (field-independent basis, Debye):
    X=              2.0436    Y=             -1.1996    Z=              0.0008  Tot=              2.3697
 Quadrupole moment (field-independent basis, Debye-Ang):
   XX=            -28.8058   YY=            -30.9366   ZZ=            -28.1693
   XY=             -0.1306   XZ=             -0.0014   YZ=              0.0006
 Traceless Quadrupole moment (field-independent basis, Debye-Ang):
   XX=              0.4981   YY=             -1.6327   ZZ=              1.1346
   XY=             -0.1306   XZ=             -0.0014   YZ=              0.0006
 Octapole moment (field-independent basis, Debye-Ang**2):
  XXX=             32.8809  YYY=             -2.2795  ZZZ=              0.0003  XYY=             -8.5398
  XXY=              7.3849  XXZ=              0.0022  XZZ=              0.7135  YZZ=             -0.3806
  YYZ=             -0.0001  XYZ=             -0.0015
 Hexadecapole moment (field-independent basis, Debye-Ang**3):
 XXXX=           -270.1603 YYYY=           -136.8682 ZZZZ=            -29.7326 XXXY=             -2.1499
 XXXZ=             -0.0039 YYYX=             -6.4185 YYYZ=              0.0024 ZZZX=             -0.0007
 ZZZY=              0.0001 XXYY=            -69.3044 XXZZ=            -55.8822 YYZZ=            -25.6274
 XXYZ=              0.0020 YYXZ=             -0.0004 ZZXY=              0.4292
 N-N= 1.792482116693D+02 E-N=-1.073210652003D+03  KE= 3.022506067479D+02
 1\1\GINC-ROCK\SP\RMP2-FC\CC-pVTZ\C2H4O3\STYLIANAKIS\03-Mar-2016\0\\# m
 p2/cc-pVTZ\\glycolic_acid_cis1_single_point\\0,1\C\O,1,1.406698\C,1,1.
 514737,2,111.382\O,3,1.214599,1,123.49,2,0.014,0\O,3,1.34657,1,112.748
 ,2,-179.989,0\H,1,1.098821,3,108.324,5,-58.023,0\H,1,1.098837,3,108.31
 8,5,58.044,0\H,5,0.972729,3,107.906,1,-179.995,0\H,2,0.971547,1,107.53
 2,3,-0.033,0\\Version=EM64L-G09RevA.01\State=1-A\HF=-302.782297\MP2=-3
 03.8170899\RMSD=9.250e-09\PG=C01 [X(C2H4O3)]\\@


 REALITY IS FOR PEOPLE WHO CAN'T FACE SCIENCE FICTION.
 Job cpu time:  0 days  0 hours  5 minutes 24.9 seconds.
 File lengths (MBytes):  RWF=     21 Int=      0 D2E=      0 Chk=      3 Scr=      1
 Normal termination of Gaussian 09 at Thu Mar  3 22:00:42 2016.
