 Entering Gaussian System, Link 0=g09
 Input=Me_acetate_Z_lp.gjf
 Output=Me_acetate_Z_lp.out
 Initial command:
 /usr/local/g09/l1.exe /home/scratch/stylianakis/Gau-19134.inp -scrdir=/home/scratch/stylianakis/
 Entering Link 1 = /usr/local/g09/l1.exe PID=     19135.
  
 Copyright (c) 1988,1990,1992,1993,1995,1998,2003,2009, Gaussian, Inc.
                  All Rights Reserved.
  
 This is part of the Gaussian(R) 09 program.  It is based on
 the Gaussian(R) 03 system (copyright 2003, Gaussian, Inc.),
 the Gaussian(R) 98 system (copyright 1998, Gaussian, Inc.),
 the Gaussian(R) 94 system (copyright 1995, Gaussian, Inc.),
 the Gaussian 92(TM) system (copyright 1992, Gaussian, Inc.),
 the Gaussian 90(TM) system (copyright 1990, Gaussian, Inc.),
 the Gaussian 88(TM) system (copyright 1988, Gaussian, Inc.),
 the Gaussian 86(TM) system (copyright 1986, Carnegie Mellon
 University), and the Gaussian 82(TM) system (copyright 1983,
 Carnegie Mellon University). Gaussian is a federally registered
 trademark of Gaussian, Inc.
  
 This software contains proprietary and confidential information,
 including trade secrets, belonging to Gaussian, Inc.
  
 This software is provided under written license and may be
 used, copied, transmitted, or stored only in accord with that
 written license.
  
 The following legend is applicable only to US Government
 contracts under FAR:
  
                    RESTRICTED RIGHTS LEGEND
  
 Use, reproduction and disclosure by the US Government is
 subject to restrictions as set forth in subparagraphs (a)
 and (c) of the Commercial Computer Software - Restricted
 Rights clause in FAR 52.227-19.
  
 Gaussian, Inc.
 340 Quinnipiac St., Bldg. 40, Wallingford CT 06492
  
  
 ---------------------------------------------------------------
 Warning -- This program may not be used in any manner that
 competes with the business of Gaussian, Inc. or will provide
 assistance to any competitor of Gaussian, Inc.  The licensee
 of this program is prohibited from giving any competitor of
 Gaussian, Inc. access to this program.  By using this program,
 the user acknowledges that Gaussian, Inc. is engaged in the
 business of creating and licensing software in the field of
 computational chemistry and represents and warrants to the
 licensee that it is not a competitor of Gaussian, Inc. and that
 it will not use this program in any manner prohibited above.
 ---------------------------------------------------------------
  

 Cite this work as:
 Gaussian 09, Revision A.01,
 M. J. Frisch, G. W. Trucks, H. B. Schlegel, G. E. Scuseria, 
 M. A. Robb, J. R. Cheeseman, G. Scalmani, V. Barone, B. Mennucci, 
 G. A. Petersson, H. Nakatsuji, M. Caricato, X. Li, H. P. Hratchian, 
 A. F. Izmaylov, J. Bloino, G. Zheng, J. L. Sonnenberg, M. Hada, 
 M. Ehara, K. Toyota, R. Fukuda, J. Hasegawa, M. Ishida, T. Nakajima, 
 Y. Honda, O. Kitao, H. Nakai, T. Vreven, J. A. Montgomery, Jr., 
 J. E. Peralta, F. Ogliaro, M. Bearpark, J. J. Heyd, E. Brothers, 
 K. N. Kudin, V. N. Staroverov, R. Kobayashi, J. Normand, 
 K. Raghavachari, A. Rendell, J. C. Burant, S. S. Iyengar, J. Tomasi, 
 M. Cossi, N. Rega, J. M. Millam, M. Klene, J. E. Knox, J. B. Cross, 
 V. Bakken, C. Adamo, J. Jaramillo, R. Gomperts, R. E. Stratmann, 
 O. Yazyev, A. J. Austin, R. Cammi, C. Pomelli, J. W. Ochterski, 
 R. L. Martin, K. Morokuma, V. G. Zakrzewski, G. A. Voth, 
 P. Salvador, J. J. Dannenberg, S. Dapprich, A. D. Daniels, 
 O. Farkas, J. B. Foresman, J. V. Ortiz, J. Cioslowski, 
 and D. J. Fox, Gaussian, Inc., Wallingford CT, 2009.
 
 ******************************************
 Gaussian 09:  EM64L-G09RevA.01  8-May-2009
                 3-Mar-2016 
 ******************************************
 %mem=8000Mb
 %nproc=4
 Will use up to    4 processors via shared memory.
 -------------
 # mp2/cc-pVTZ
 -------------
 1/38=1/1;
 2/12=2,17=6,18=5,40=1/2;
 3/5=16,6=1,11=9,16=1,25=1,30=1/1,2,3;
 4//1;
 5/5=2,38=5/2;
 8/10=1/1;
 9/16=-3/6;
 6/7=2,8=2,9=2,10=2/1;
 99/5=1,9=1/99;
 ----------------------------
 Me_acetate_Z_lp_single_point
 ----------------------------
 Symbolic Z-matrix:
 Charge =  0 Multiplicity = 1
 c
 c                    1    cc2
 o                    2    oc3      1    occ3
 c                    3    co4      2    coc4     1    dih4     0
 o                    2    oc5      3    oco5     4    dih5     0
 h                    4    hc6      3    hco6     2    dih6     0
 h                    4    hc7      3    hco7     2    dih7     0
 h                    4    hc8      3    hco8     2    dih8     0
 h                    1    hc9      2    hcc9     5    dih9     0
 h                    1    hc10     2    hcc10    5    dih10    0
 h                    1    hc11     2    hcc11    5    dih11    0
       Variables:
  cc2                   1.50847                  
  oc3                   1.35469                  
  occ3                111.182                    
  co4                   1.44036                  
  coc4                115.96                     
  dih4                179.998                    
  oc5                   1.21408                  
  oco5                123.156                    
  dih5                  0.001                    
  hc6                   1.08967                  
  hco6                105.423                    
  dih6               -179.986                    
  hc7                   1.09292                  
  hco7                110.44                     
  dih7                -60.341                    
  hc8                   1.09293                  
  hco8                110.439                    
  dih8                 60.372                    
  hc9                   1.09437                  
  hcc9                110.003                    
  dih9                120.976                    
  hc10                  1.09438                  
  hcc10               110.                       
  dih10              -120.962                    
  hc11                  1.08976                  
  hcc11               109.433                    
  dih11                 0.004                    
 
                          Input orientation:                          
 ---------------------------------------------------------------------
 Center     Atomic      Atomic             Coordinates (Angstroms)
 Number     Number       Type             X           Y           Z
 ---------------------------------------------------------------------
      1          6           0        0.000000    0.000000    0.000000
      2          6           0        0.000000    0.000000    1.508471
      3          8           0        1.263162    0.000000    1.997963
      4          6           0        1.383137    0.000045    3.433320
      5          8           0       -0.986407    0.000053    2.216285
      6          1           0        2.454050    0.000295    3.634607
      7          1           0        0.909933    0.890004    3.855854
      8          1           0        0.910385   -0.890154    3.855855
      9          1           0        0.529318    0.881661   -0.374350
     10          1           0        0.529021   -0.881870   -0.374298
     11          1           0       -1.027680    0.000127   -0.362569
 ---------------------------------------------------------------------
                    Distance matrix (angstroms):
                    1          2          3          4          5
     1  C    0.000000
     2  C    1.508471   0.000000
     3  O    2.363775   1.354688   0.000000
     4  C    3.701453   2.370256   1.440363   0.000000
     5  O    2.425885   1.214084   2.260138   2.663816   0.000000
     6  H    4.385513   3.246970   2.024060   1.089665   3.721341
     7  H    4.060504   2.670261   2.090129   1.092924   2.660132
     8  H    4.060639   2.670466   2.090117   1.092925   2.660541
     9  H    1.094368   2.145348   2.635094   4.000576   3.128265
    10  H    1.094375   2.145315   2.635200   4.000656   3.128167
    11  H    1.089762   2.134693   3.289386   4.496755   2.579184
                    6          7          8          9         10
     6  H    0.000000
     7  H    1.795781   0.000000
     8  H    1.795759   1.780158   0.000000
     9  H    4.533556   4.247301   4.602084   0.000000
    10  H    4.533792   4.602045   4.247317   1.763531   0.000000
    11  H    5.300929   4.726660   4.726922   1.789268   1.789238
                   11
    11  H    0.000000
 Stoichiometry    C3H6O2
 Framework group  C1[X(C3H6O2)]
 Deg. of freedom    27
 Full point group                 C1      NOp   1
 Largest Abelian subgroup         C1      NOp   1
 Largest concise Abelian subgroup C1      NOp   1
                         Standard orientation:                         
 ---------------------------------------------------------------------
 Center     Atomic      Atomic             Coordinates (Angstroms)
 Number     Number       Type             X           Y           Z
 ---------------------------------------------------------------------
      1          6           0       -1.802802   -0.522225   -0.000014
      2          6           0       -0.465236    0.175200    0.000018
      3          8           0        0.552807   -0.718539    0.000008
      4          6           0        1.881012   -0.161299   -0.000009
      5          8           0       -0.293670    1.377100   -0.000004
      6          1           0        2.554618   -1.017818   -0.000272
      7          1           0        2.036903    0.453668   -0.889951
      8          1           0        2.037093    0.453224    0.890207
      9          1           0       -1.890005   -1.164628   -0.881692
     10          1           0       -1.890117   -1.164384    0.881839
     11          1           0       -2.599429    0.221392   -0.000132
 ---------------------------------------------------------------------
 Rotational constants (GHZ):     10.1568900      4.1233252      3.0445434
 Standard basis: CC-pVTZ (5D, 7F)
 There are   234 symmetry adapted basis functions of A   symmetry.
 Integral buffers will be    131072 words long.
 Raffenetti 1 integral format.
 Two-electron integral symmetry is turned on.
   234 basis functions,   362 primitive gaussians,   265 cartesian basis functions
    20 alpha electrons       20 beta electrons
       nuclear repulsion energy       180.8053850043 Hartrees.
 NAtoms=   11 NActive=   11 NUniq=   11 SFac= 7.50D-01 NAtFMM=   80 NAOKFM=F Big=F
 One-electron integrals computed using PRISM.
 NBasis=   234 RedAO= T  NBF=   234
 NBsUse=   234 1.00D-06 NBFU=   234
 Harris functional with IExCor=  205 diagonalized for initial guess.
 ExpMin= 1.03D-01 ExpMax= 1.53D+04 ExpMxC= 5.22D+02 IAcc=1 IRadAn=         1 AccDes= 0.00D+00
 HarFok:  IExCor=  205 AccDes= 0.00D+00 IRadAn=         1 IDoV= 1
 ScaDFX=  1.000000  1.000000  1.000000  1.000000
 FoFCou: FMM=F IPFlag=           0 FMFlag=      100000 FMFlg1=           0
         NFxFlg=           0 DoJE=T BraDBF=F KetDBF=T FulRan=T
         Omega=  0.000000  0.000000  1.000000  0.000000  0.000000 ICntrl=     500 IOpCl=  0
         NMat0=    1 NMatS0=    1 NMatT0=    0 NMatD0=    1 NMtDS0=    0 NMtDT0=    0
         I1Cent=           4 NGrid=           0.
 Petite list used in FoFCou.
 Initial guess orbital symmetries:
       Occupied  (A) (A) (A) (A) (A) (A) (A) (A) (A) (A) (A) (A)
                 (A) (A) (A) (A) (A) (A) (A) (A)
       Virtual   (A) (A) (A) (A) (A) (A) (A) (A) (A) (A) (A) (A)
                 (A) (A) (A) (A) (A) (A) (A) (A) (A) (A) (A) (A)
                 (A) (A) (A) (A) (A) (A) (A) (A) (A) (A) (A) (A)
                 (A) (A) (A) (A) (A) (A) (A) (A) (A) (A) (A) (A)
                 (A) (A) (A) (A) (A) (A) (A) (A) (A) (A) (A) (A)
                 (A) (A) (A) (A) (A) (A) (A) (A) (A) (A) (A) (A)
                 (A) (A) (A) (A) (A) (A) (A) (A) (A) (A) (A) (A)
                 (A) (A) (A) (A) (A) (A) (A) (A) (A) (A) (A) (A)
                 (A) (A) (A) (A) (A) (A) (A) (A) (A) (A) (A) (A)
                 (A) (A) (A) (A) (A) (A) (A) (A) (A) (A) (A) (A)
                 (A) (A) (A) (A) (A) (A) (A) (A) (A) (A) (A) (A)
                 (A) (A) (A) (A) (A) (A) (A) (A) (A) (A) (A) (A)
                 (A) (A) (A) (A) (A) (A) (A) (A) (A) (A) (A) (A)
                 (A) (A) (A) (A) (A) (A) (A) (A) (A) (A) (A) (A)
                 (A) (A) (A) (A) (A) (A) (A) (A) (A) (A) (A) (A)
                 (A) (A) (A) (A) (A) (A) (A) (A) (A) (A) (A) (A)
                 (A) (A) (A) (A) (A) (A) (A) (A) (A) (A) (A) (A)
                 (A) (A) (A) (A) (A) (A) (A) (A) (A) (A)
 The electronic state of the initial guess is 1-A.
 Requested convergence on RMS density matrix=1.00D-08 within 128 cycles.
 Requested convergence on MAX density matrix=1.00D-06.
 Requested convergence on             energy=1.00D-06.
 No special actions if energy rises.
 Keep R1 ints in memory in canonical form, NReq=630765407.
 SCF Done:  E(RHF) =  -266.935356590     A.U. after   12 cycles
             Convg  =    0.9432D-08             -V/T =  2.0019
 ExpMin= 1.03D-01 ExpMax= 1.53D+04 ExpMxC= 5.22D+02 IAcc=1 IRadAn=         1 AccDes= 0.00D+00
 HarFok:  IExCor=  205 AccDes= 0.00D+00 IRadAn=         1 IDoV=-2
 ScaDFX=  1.000000  1.000000  1.000000  1.000000
 Range of M.O.s used for correlation:     6   234
 NBasis=   234 NAE=    20 NBE=    20 NFC=     5 NFV=     0
 NROrb=    229 NOA=    15 NOB=    15 NVA=   214 NVB=   214

 **** Warning!!: The largest alpha MO coefficient is  0.11285103D+02

 Fully direct method using O(OVN) memory.
 JobTyp=1 Pass  1:  I=   1 to  15 NPSUse=  4 ParTrn=T ParDer=T DoDerP=F.
 Spin components of T(2) and E(2):
     alpha-alpha T2 =       0.3396179801D-01 E2=     -0.1185026362D+00
     alpha-beta  T2 =       0.1982779199D+00 E2=     -0.7358323034D+00
     beta-beta   T2 =       0.3396179801D-01 E2=     -0.1185026362D+00
 ANorm=    0.1125256200D+01
 E2 =    -0.9728375757D+00 EUMP2 =    -0.26790819416594D+03

 **********************************************************************

            Population analysis using the SCF density.

 **********************************************************************

 Orbital symmetries:
       Occupied  (A) (A) (A) (A) (A) (A) (A) (A) (A) (A) (A) (A)
                 (A) (A) (A) (A) (A) (A) (A) (A)
       Virtual   (A) (A) (A) (A) (A) (A) (A) (A) (A) (A) (A) (A)
                 (A) (A) (A) (A) (A) (A) (A) (A) (A) (A) (A) (A)
                 (A) (A) (A) (A) (A) (A) (A) (A) (A) (A) (A) (A)
                 (A) (A) (A) (A) (A) (A) (A) (A) (A) (A) (A) (A)
                 (A) (A) (A) (A) (A) (A) (A) (A) (A) (A) (A) (A)
                 (A) (A) (A) (A) (A) (A) (A) (A) (A) (A) (A) (A)
                 (A) (A) (A) (A) (A) (A) (A) (A) (A) (A) (A) (A)
                 (A) (A) (A) (A) (A) (A) (A) (A) (A) (A) (A) (A)
                 (A) (A) (A) (A) (A) (A) (A) (A) (A) (A) (A) (A)
                 (A) (A) (A) (A) (A) (A) (A) (A) (A) (A) (A) (A)
                 (A) (A) (A) (A) (A) (A) (A) (A) (A) (A) (A) (A)
                 (A) (A) (A) (A) (A) (A) (A) (A) (A) (A) (A) (A)
                 (A) (A) (A) (A) (A) (A) (A) (A) (A) (A) (A) (A)
                 (A) (A) (A) (A) (A) (A) (A) (A) (A) (A) (A) (A)
                 (A) (A) (A) (A) (A) (A) (A) (A) (A) (A) (A) (A)
                 (A) (A) (A) (A) (A) (A) (A) (A) (A) (A) (A) (A)
                 (A) (A) (A) (A) (A) (A) (A) (A) (A) (A) (A) (A)
                 (A) (A) (A) (A) (A) (A) (A) (A) (A) (A)
 The electronic state is 1-A.
 Alpha  occ. eigenvalues --  -20.60080 -20.54091 -11.38016 -11.28598 -11.24264
 Alpha  occ. eigenvalues --   -1.45267  -1.35186  -1.03152  -0.94608  -0.77496
 Alpha  occ. eigenvalues --   -0.69087  -0.67222  -0.67215  -0.59189  -0.58921
 Alpha  occ. eigenvalues --   -0.55820  -0.52637  -0.52073  -0.46012  -0.44746
 Alpha virt. eigenvalues --    0.14092   0.15927   0.17114   0.20955   0.21528
 Alpha virt. eigenvalues --    0.21589   0.24217   0.25066   0.29089   0.35832
 Alpha virt. eigenvalues --    0.37696   0.39564   0.39850   0.43495   0.45820
 Alpha virt. eigenvalues --    0.48631   0.53030   0.55312   0.58747   0.61019
 Alpha virt. eigenvalues --    0.61685   0.62138   0.62200   0.62559   0.64557
 Alpha virt. eigenvalues --    0.67898   0.68967   0.72652   0.73554   0.78186
 Alpha virt. eigenvalues --    0.80662   0.82521   0.85452   0.89529   0.90594
 Alpha virt. eigenvalues --    0.95338   0.96809   0.97342   1.02254   1.06304
 Alpha virt. eigenvalues --    1.06909   1.09896   1.13334   1.16774   1.18375
 Alpha virt. eigenvalues --    1.19198   1.20743   1.22733   1.23862   1.26652
 Alpha virt. eigenvalues --    1.32039   1.33385   1.34914   1.35555   1.43255
 Alpha virt. eigenvalues --    1.45102   1.48508   1.50296   1.51645   1.51954
 Alpha virt. eigenvalues --    1.53127   1.55032   1.57615   1.59855   1.70198
 Alpha virt. eigenvalues --    1.70932   1.74726   1.81191   1.83748   1.86841
 Alpha virt. eigenvalues --    1.94128   1.99823   2.10915   2.19289   2.22993
 Alpha virt. eigenvalues --    2.26956   2.31067   2.36730   2.44699   2.48172
 Alpha virt. eigenvalues --    2.51071   2.52609   2.60469   2.62325   2.67062
 Alpha virt. eigenvalues --    2.72014   2.74822   2.81553   2.83605   2.88778
 Alpha virt. eigenvalues --    2.90310   2.95253   3.01905   3.04000   3.07279
 Alpha virt. eigenvalues --    3.09092   3.10872   3.10931   3.12654   3.13695
 Alpha virt. eigenvalues --    3.23458   3.25556   3.25889   3.27123   3.29695
 Alpha virt. eigenvalues --    3.29738   3.32887   3.33625   3.35609   3.41099
 Alpha virt. eigenvalues --    3.41457   3.45327   3.45468   3.52426   3.53463
 Alpha virt. eigenvalues --    3.58390   3.59174   3.60476   3.62558   3.66587
 Alpha virt. eigenvalues --    3.68640   3.71414   3.72463   3.73335   3.73656
 Alpha virt. eigenvalues --    3.79901   3.81240   3.82239   3.82597   3.84255
 Alpha virt. eigenvalues --    3.89407   3.92222   4.03765   4.06914   4.09117
 Alpha virt. eigenvalues --    4.12410   4.14766   4.15733   4.17860   4.19573
 Alpha virt. eigenvalues --    4.19823   4.26033   4.28838   4.34684   4.35040
 Alpha virt. eigenvalues --    4.35893   4.38087   4.38210   4.40151   4.49393
 Alpha virt. eigenvalues --    4.53392   4.53835   4.57748   4.61320   4.61568
 Alpha virt. eigenvalues --    4.65224   4.72706   4.83787   4.84403   4.90373
 Alpha virt. eigenvalues --    5.01003   5.04120   5.11208   5.16619   5.21443
 Alpha virt. eigenvalues --    5.25894   5.27185   5.28784   5.36262   5.39852
 Alpha virt. eigenvalues --    5.46325   5.47948   5.48844   5.53476   5.54302
 Alpha virt. eigenvalues --    5.57665   5.58040   5.60347   5.63665   5.65094
 Alpha virt. eigenvalues --    5.67872   5.71157   5.78991   5.82553   5.96581
 Alpha virt. eigenvalues --    5.98073   6.09405   6.15374   6.17577   6.19892
 Alpha virt. eigenvalues --    6.20537   6.28175   6.49490   6.53695   6.62001
 Alpha virt. eigenvalues --    6.68807   6.77007   6.77936   6.88164   6.98743
 Alpha virt. eigenvalues --    7.20591   7.21490   7.34133   7.38102   7.43578
 Alpha virt. eigenvalues --    7.52990   7.60444   7.78762   7.93584   9.70738
 Alpha virt. eigenvalues --   11.63770  13.48899  14.02214  14.11309
          Condensed to atoms (all electrons):
              1          2          3          4          5          6
     1  C    4.787963   0.366774  -0.064633   0.004793  -0.056420   0.000123
     2  C    0.366774   4.268267   0.395181  -0.045796   0.710474   0.003982
     3  O   -0.064633   0.395181   7.892027   0.280633  -0.085730  -0.028999
     4  C    0.004793  -0.045796   0.280633   4.572423  -0.003118   0.412209
     5  O   -0.056420   0.710474  -0.085730  -0.003118   7.824005   0.001002
     6  H    0.000123   0.003982  -0.028999   0.412209   0.001002   0.566300
     7  H    0.000346  -0.005068  -0.037988   0.418256   0.005408  -0.031597
     8  H    0.000346  -0.005062  -0.037988   0.418260   0.005401  -0.031602
     9  H    0.400889  -0.025742   0.002534  -0.000060   0.000769  -0.000052
    10  H    0.400883  -0.025738   0.002532  -0.000060   0.000768  -0.000052
    11  H    0.422841  -0.048450   0.003747  -0.000359   0.005424   0.000002
              7          8          9         10         11
     1  C    0.000346   0.000346   0.400889   0.400883   0.422841
     2  C   -0.005068  -0.005062  -0.025742  -0.025738  -0.048450
     3  O   -0.037988  -0.037988   0.002534   0.002532   0.003747
     4  C    0.418256   0.418260  -0.000060  -0.000060  -0.000359
     5  O    0.005408   0.005401   0.000769   0.000768   0.005424
     6  H   -0.031597  -0.031602  -0.000052  -0.000052   0.000002
     7  H    0.604935  -0.047677  -0.000239   0.000101   0.000010
     8  H   -0.047677   0.604951   0.000101  -0.000239   0.000010
     9  H   -0.000239   0.000101   0.563430  -0.028908  -0.022591
    10  H    0.000101  -0.000239  -0.028908   0.563443  -0.022592
    11  H    0.000010   0.000010  -0.022591  -0.022592   0.538180
 Mulliken atomic charges:
              1
     1  C   -0.263905
     2  C    0.411178
     3  O   -0.321315
     4  C   -0.057181
     5  O   -0.407982
     6  H    0.108684
     7  H    0.093513
     8  H    0.093498
     9  H    0.109869
    10  H    0.109861
    11  H    0.123779
 Sum of Mulliken atomic charges =   0.00000
 Mulliken charges with hydrogens summed into heavy atoms:
              1
     1  C    0.079604
     2  C    0.411178
     3  O   -0.321315
     4  C    0.238515
     5  O   -0.407982
 Sum of Mulliken charges with hydrogens summed into heavy atoms =   0.00000
 Electronic spatial extent (au):  <R**2>=            431.9122
 Charge=              0.0000 electrons
 Dipole moment (field-independent basis, Debye):
    X=              0.2287    Y=             -2.0587    Z=              0.0000  Tot=              2.0714
 Quadrupole moment (field-independent basis, Debye-Ang):
   XX=            -23.7483   YY=            -35.5819   ZZ=            -29.2024
   XY=              1.6987   XZ=             -0.0001   YZ=              0.0000
 Traceless Quadrupole moment (field-independent basis, Debye-Ang):
   XX=              5.7626   YY=             -6.0710   ZZ=              0.3085
   XY=              1.6987   XZ=             -0.0001   YZ=              0.0000
 Octapole moment (field-independent basis, Debye-Ang**2):
  XXX=              5.7240  YYY=             -5.3985  ZZZ=              0.0008  XYY=              1.5807
  XXY=             -1.6237  XXZ=             -0.0001  XZZ=              0.3617  YZZ=              0.2411
  YYZ=             -0.0009  XYZ=              0.0002
 Hexadecapole moment (field-independent basis, Debye-Ang**3):
 XXXX=           -353.5699 YYYY=           -147.2916 ZZZZ=            -39.6112 XXXY=             -7.9806
 XXXZ=             -0.0003 YYYX=             -0.1295 YYYZ=              0.0007 ZZZX=              0.0004
 ZZZY=             -0.0003 XXYY=            -81.3831 XXZZ=            -68.5280 YYZZ=            -28.3602
 XXYZ=              0.0004 YYXZ=             -0.0007 ZZXY=              2.5686
 N-N= 1.808053850043D+02 E-N=-9.892392180821D+02  KE= 2.664313596337D+02
 1\1\GINC-ROCK\SP\RMP2-FC\CC-pVTZ\C3H6O2\STYLIANAKIS\03-Mar-2016\0\\# m
 p2/cc-pVTZ\\Me_acetate_Z_lp_single_point\\0,1\C\C,1,1.508471\O,2,1.354
 688,1,111.182\C,3,1.440363,2,115.96,1,179.998,0\O,2,1.214084,3,123.156
 ,4,0.001,0\H,4,1.089665,3,105.423,2,-179.986,0\H,4,1.092924,3,110.44,2
 ,-60.341,0\H,4,1.092925,3,110.439,2,60.372,0\H,1,1.094368,2,110.003,5,
 120.976,0\H,1,1.094375,2,110.,5,-120.962,0\H,1,1.089762,2,109.433,5,0.
 004,0\\Version=EM64L-G09RevA.01\State=1-A\HF=-266.9353566\MP2=-267.908
 1942\RMSD=9.432e-09\PG=C01 [X(C3H6O2)]\\@


 BUT 'GLORY' DOESN'T MEAN 'A NICE KNOCK DOWN ARGUMENT', ALICE OBJECTED.
 WHEN I USE A WORD, HUMPTY DUMPTY SAID, IN A RATHER SCORNFUL TONE,
 IT MEANS JUST WHAT I CHOOSE IT TO MEAN....
 NEITHER MORE NOR LESS....
 THE QUESTION IS, SAID ALICE,
 WHETHER YOU CAN MAKE WORDS MEAN SO MANY DIFFERENT THINGS...
 THE QUESTION IS, SAID HUMPTY DUMPTY,
 WHICH IS TO BE MASTER....
 THAT IS ALL.....

 ALICE THROUGH THE LOOKING GLASS
 Job cpu time:  0 days  0 hours  4 minutes 30.8 seconds.
 File lengths (MBytes):  RWF=     25 Int=      0 D2E=      0 Chk=      3 Scr=      1
 Normal termination of Gaussian 09 at Thu Mar  3 22:10:04 2016.
