 Entering Gaussian System, Link 0=g09
 Input=me_vinyl_ether_s_cis.gjf
 Output=me_vinyl_ether_s_cis.out
 Initial command:
 /usr/local/g09/l1.exe /home/scratch/stylianakis/Gau-19629.inp -scrdir=/home/scratch/stylianakis/
 Entering Link 1 = /usr/local/g09/l1.exe PID=     19630.
  
 Copyright (c) 1988,1990,1992,1993,1995,1998,2003,2009, Gaussian, Inc.
                  All Rights Reserved.
  
 This is part of the Gaussian(R) 09 program.  It is based on
 the Gaussian(R) 03 system (copyright 2003, Gaussian, Inc.),
 the Gaussian(R) 98 system (copyright 1998, Gaussian, Inc.),
 the Gaussian(R) 94 system (copyright 1995, Gaussian, Inc.),
 the Gaussian 92(TM) system (copyright 1992, Gaussian, Inc.),
 the Gaussian 90(TM) system (copyright 1990, Gaussian, Inc.),
 the Gaussian 88(TM) system (copyright 1988, Gaussian, Inc.),
 the Gaussian 86(TM) system (copyright 1986, Carnegie Mellon
 University), and the Gaussian 82(TM) system (copyright 1983,
 Carnegie Mellon University). Gaussian is a federally registered
 trademark of Gaussian, Inc.
  
 This software contains proprietary and confidential information,
 including trade secrets, belonging to Gaussian, Inc.
  
 This software is provided under written license and may be
 used, copied, transmitted, or stored only in accord with that
 written license.
  
 The following legend is applicable only to US Government
 contracts under FAR:
  
                    RESTRICTED RIGHTS LEGEND
  
 Use, reproduction and disclosure by the US Government is
 subject to restrictions as set forth in subparagraphs (a)
 and (c) of the Commercial Computer Software - Restricted
 Rights clause in FAR 52.227-19.
  
 Gaussian, Inc.
 340 Quinnipiac St., Bldg. 40, Wallingford CT 06492
  
  
 ---------------------------------------------------------------
 Warning -- This program may not be used in any manner that
 competes with the business of Gaussian, Inc. or will provide
 assistance to any competitor of Gaussian, Inc.  The licensee
 of this program is prohibited from giving any competitor of
 Gaussian, Inc. access to this program.  By using this program,
 the user acknowledges that Gaussian, Inc. is engaged in the
 business of creating and licensing software in the field of
 computational chemistry and represents and warrants to the
 licensee that it is not a competitor of Gaussian, Inc. and that
 it will not use this program in any manner prohibited above.
 ---------------------------------------------------------------
  

 Cite this work as:
 Gaussian 09, Revision A.01,
 M. J. Frisch, G. W. Trucks, H. B. Schlegel, G. E. Scuseria, 
 M. A. Robb, J. R. Cheeseman, G. Scalmani, V. Barone, B. Mennucci, 
 G. A. Petersson, H. Nakatsuji, M. Caricato, X. Li, H. P. Hratchian, 
 A. F. Izmaylov, J. Bloino, G. Zheng, J. L. Sonnenberg, M. Hada, 
 M. Ehara, K. Toyota, R. Fukuda, J. Hasegawa, M. Ishida, T. Nakajima, 
 Y. Honda, O. Kitao, H. Nakai, T. Vreven, J. A. Montgomery, Jr., 
 J. E. Peralta, F. Ogliaro, M. Bearpark, J. J. Heyd, E. Brothers, 
 K. N. Kudin, V. N. Staroverov, R. Kobayashi, J. Normand, 
 K. Raghavachari, A. Rendell, J. C. Burant, S. S. Iyengar, J. Tomasi, 
 M. Cossi, N. Rega, J. M. Millam, M. Klene, J. E. Knox, J. B. Cross, 
 V. Bakken, C. Adamo, J. Jaramillo, R. Gomperts, R. E. Stratmann, 
 O. Yazyev, A. J. Austin, R. Cammi, C. Pomelli, J. W. Ochterski, 
 R. L. Martin, K. Morokuma, V. G. Zakrzewski, G. A. Voth, 
 P. Salvador, J. J. Dannenberg, S. Dapprich, A. D. Daniels, 
 O. Farkas, J. B. Foresman, J. V. Ortiz, J. Cioslowski, 
 and D. J. Fox, Gaussian, Inc., Wallingford CT, 2009.
 
 ******************************************
 Gaussian 09:  EM64L-G09RevA.01  8-May-2009
                 3-Mar-2016 
 ******************************************
 %mem=8000Mb
 %nproc=4
 Will use up to    4 processors via shared memory.
 -------------
 # mp2/cc-pVTZ
 -------------
 1/38=1/1;
 2/12=2,17=6,18=5,40=1/2;
 3/5=16,6=1,11=9,16=1,25=1,30=1/1,2,3;
 4//1;
 5/5=2,38=5/2;
 8/10=1/1;
 9/16=-3/6;
 6/7=2,8=2,9=2,10=2/1;
 99/5=1,9=1/99;
 ---------------------------------
 me_vinyl_ether_s_cis_single_point
 ---------------------------------
 Symbolic Z-matrix:
 Charge =  0 Multiplicity = 1
 c
 c                    1    cc2
 o                    2    oc3      1    occ3
 c                    3    co4      2    coc4     1    dih4     0
 h                    1    hc5      2    hcc5     3    dih5     0
 h                    1    hc6      2    hcc6     3    dih6     0
 h                    2    hc7      3    hco7     4    dih7     0
 h                    4    hc8      3    hco8     2    dih8     0
 h                    4    hc9      3    hco9     2    dih9     0
 h                    4    hc10     3    hco10    2    dih10    0
       Variables:
  cc2                   1.33989                  
  oc3                   1.35861                  
  occ3                128.165                    
  co4                   1.42366                  
  coc4                117.139                    
  dih4                  0.                       
  hc5                   1.08342                  
  hcc5                118.726                    
  dih5                180.                       
  hc6                   1.0832                   
  hcc6                123.804                    
  dih6                  0.                       
  hc7                   1.08603                  
  hco7                109.699                    
  dih7                180.                       
  hc8                   1.09045                  
  hco8                106.15                     
  dih8               -179.999                    
  hc9                   1.09726                  
  hco9                110.889                    
  dih9                -60.823                    
  hc10                  1.09726                  
  hco10               110.889                    
  dih10                60.825                    
 
                          Input orientation:                          
 ---------------------------------------------------------------------
 Center     Atomic      Atomic             Coordinates (Angstroms)
 Number     Number       Type             X           Y           Z
 ---------------------------------------------------------------------
      1          6           0        0.000000    0.000000    0.000000
      2          6           0        0.000000    0.000000    1.339890
      3          8           0        1.068182    0.000000    2.179410
      4          6           0        2.361634    0.000000    1.584598
      5          1           0       -0.950079    0.000000   -0.520713
      6          1           0        0.900084    0.000000   -0.602644
      7          1           0       -0.919633    0.000000    1.917580
      8          1           0        3.074821   -0.000018    2.409494
      9          1           0        2.508285   -0.895072    0.967080
     10          1           0        2.508298    0.895090    0.967108
 ---------------------------------------------------------------------
                    Distance matrix (angstroms):
                    1          2          3          4          5
     1  C    0.000000
     2  C    1.339890   0.000000
     3  O    2.427106   1.358605   0.000000
     4  C    2.843988   2.374278   1.423664   0.000000
     5  H    1.083417   2.089137   3.371060   3.924255   0.000000
     6  H    1.083204   2.140932   2.787129   2.630620   1.851976
     7  H    2.126696   1.086025   2.004985   3.298119   2.438484
     8  H    3.906428   3.255545   2.019787   1.090453   4.978547
     9  H    2.833353   2.689170   2.084418   1.097265   3.869750
    10  H    2.833380   2.689184   2.084418   1.097265   3.869776
                    6          7          8          9         10
     6  H    0.000000
     7  H    3.108520   0.000000
     8  H    3.715166   4.024629   0.000000
     9  H    2.418987   3.668136   1.789593   0.000000
    10  H    2.419021   3.668146   1.789593   1.790162   0.000000
 Stoichiometry    C3H6O
 Framework group  C1[X(C3H6O)]
 Deg. of freedom    24
 Full point group                 C1      NOp   1
 Largest Abelian subgroup         C1      NOp   1
 Largest concise Abelian subgroup C1      NOp   1
                         Standard orientation:                         
 ---------------------------------------------------------------------
 Center     Atomic      Atomic             Coordinates (Angstroms)
 Number     Number       Type             X           Y           Z
 ---------------------------------------------------------------------
      1          6           0       -1.454521    0.570657    0.000000
      2          6           0       -0.745671   -0.566373    0.000000
      3          8           0        0.604924   -0.713682    0.000000
      4          6           0        1.387869    0.475358    0.000000
      5          1           0       -2.536234    0.509908    0.000000
      6          1           0       -1.009532    1.558238    0.000000
      7          1           0       -1.220452   -1.543119    0.000000
      8          1           0        2.429479    0.152654   -0.000018
      9          1           0        1.185627    1.076968   -0.895072
     10          1           0        1.185653    1.076951    0.895090
 ---------------------------------------------------------------------
 Rotational constants (GHZ):     18.3807102      6.2775935      4.8236751
 Standard basis: CC-pVTZ (5D, 7F)
 There are   204 symmetry adapted basis functions of A   symmetry.
 Integral buffers will be    131072 words long.
 Raffenetti 1 integral format.
 Two-electron integral symmetry is turned on.
   204 basis functions,   310 primitive gaussians,   230 cartesian basis functions
    16 alpha electrons       16 beta electrons
       nuclear repulsion energy       121.2762500139 Hartrees.
 NAtoms=   10 NActive=   10 NUniq=   10 SFac= 7.50D-01 NAtFMM=   80 NAOKFM=F Big=F
 One-electron integrals computed using PRISM.
 NBasis=   204 RedAO= T  NBF=   204
 NBsUse=   204 1.00D-06 NBFU=   204
 Harris functional with IExCor=  205 diagonalized for initial guess.
 ExpMin= 1.03D-01 ExpMax= 1.53D+04 ExpMxC= 5.22D+02 IAcc=1 IRadAn=         1 AccDes= 0.00D+00
 HarFok:  IExCor=  205 AccDes= 0.00D+00 IRadAn=         1 IDoV= 1
 ScaDFX=  1.000000  1.000000  1.000000  1.000000
 FoFCou: FMM=F IPFlag=           0 FMFlag=      100000 FMFlg1=           0
         NFxFlg=           0 DoJE=T BraDBF=F KetDBF=T FulRan=T
         Omega=  0.000000  0.000000  1.000000  0.000000  0.000000 ICntrl=     500 IOpCl=  0
         NMat0=    1 NMatS0=    1 NMatT0=    0 NMatD0=    1 NMtDS0=    0 NMtDT0=    0
         I1Cent=           4 NGrid=           0.
 Petite list used in FoFCou.
 Initial guess orbital symmetries:
       Occupied  (A) (A) (A) (A) (A) (A) (A) (A) (A) (A) (A) (A)
                 (A) (A) (A) (A)
       Virtual   (A) (A) (A) (A) (A) (A) (A) (A) (A) (A) (A) (A)
                 (A) (A) (A) (A) (A) (A) (A) (A) (A) (A) (A) (A)
                 (A) (A) (A) (A) (A) (A) (A) (A) (A) (A) (A) (A)
                 (A) (A) (A) (A) (A) (A) (A) (A) (A) (A) (A) (A)
                 (A) (A) (A) (A) (A) (A) (A) (A) (A) (A) (A) (A)
                 (A) (A) (A) (A) (A) (A) (A) (A) (A) (A) (A) (A)
                 (A) (A) (A) (A) (A) (A) (A) (A) (A) (A) (A) (A)
                 (A) (A) (A) (A) (A) (A) (A) (A) (A) (A) (A) (A)
                 (A) (A) (A) (A) (A) (A) (A) (A) (A) (A) (A) (A)
                 (A) (A) (A) (A) (A) (A) (A) (A) (A) (A) (A) (A)
                 (A) (A) (A) (A) (A) (A) (A) (A) (A) (A) (A) (A)
                 (A) (A) (A) (A) (A) (A) (A) (A) (A) (A) (A) (A)
                 (A) (A) (A) (A) (A) (A) (A) (A) (A) (A) (A) (A)
                 (A) (A) (A) (A) (A) (A) (A) (A) (A) (A) (A) (A)
                 (A) (A) (A) (A) (A) (A) (A) (A) (A) (A) (A) (A)
                 (A) (A) (A) (A) (A) (A) (A) (A)
 The electronic state of the initial guess is 1-A.
 Requested convergence on RMS density matrix=1.00D-08 within 128 cycles.
 Requested convergence on MAX density matrix=1.00D-06.
 Requested convergence on             energy=1.00D-06.
 No special actions if energy rises.
 Keep R1 ints in memory in canonical form, NReq=359205895.
 SCF Done:  E(RHF) =  -191.990124306     A.U. after   12 cycles
             Convg  =    0.8458D-08             -V/T =  2.0019
 ExpMin= 1.03D-01 ExpMax= 1.53D+04 ExpMxC= 5.22D+02 IAcc=1 IRadAn=         1 AccDes= 0.00D+00
 HarFok:  IExCor=  205 AccDes= 0.00D+00 IRadAn=         1 IDoV=-2
 ScaDFX=  1.000000  1.000000  1.000000  1.000000
 Range of M.O.s used for correlation:     5   204
 NBasis=   204 NAE=    16 NBE=    16 NFC=     4 NFV=     0
 NROrb=    200 NOA=    12 NOB=    12 NVA=   188 NVB=   188

 **** Warning!!: The largest alpha MO coefficient is  0.11896506D+02

 Fully in-core method, ICMem=   737794109.
 JobTyp=1 Pass  1 fully in-core, NPsUse=  4.
 Spin components of T(2) and E(2):
     alpha-alpha T2 =       0.2663235939D-01 E2=     -0.8673885270D-01
     alpha-beta  T2 =       0.1650386268D+00 E2=     -0.5685576092D+00
     beta-beta   T2 =       0.2663235939D-01 E2=     -0.8673885270D-01
 ANorm=    0.1103767795D+01
 E2 =    -0.7420353146D+00 EUMP2 =    -0.19273215962056D+03

 **********************************************************************

            Population analysis using the SCF density.

 **********************************************************************

 Orbital symmetries:
       Occupied  (A) (A) (A) (A) (A) (A) (A) (A) (A) (A) (A) (A)
                 (A) (A) (A) (A)
       Virtual   (A) (A) (A) (A) (A) (A) (A) (A) (A) (A) (A) (A)
                 (A) (A) (A) (A) (A) (A) (A) (A) (A) (A) (A) (A)
                 (A) (A) (A) (A) (A) (A) (A) (A) (A) (A) (A) (A)
                 (A) (A) (A) (A) (A) (A) (A) (A) (A) (A) (A) (A)
                 (A) (A) (A) (A) (A) (A) (A) (A) (A) (A) (A) (A)
                 (A) (A) (A) (A) (A) (A) (A) (A) (A) (A) (A) (A)
                 (A) (A) (A) (A) (A) (A) (A) (A) (A) (A) (A) (A)
                 (A) (A) (A) (A) (A) (A) (A) (A) (A) (A) (A) (A)
                 (A) (A) (A) (A) (A) (A) (A) (A) (A) (A) (A) (A)
                 (A) (A) (A) (A) (A) (A) (A) (A) (A) (A) (A) (A)
                 (A) (A) (A) (A) (A) (A) (A) (A) (A) (A) (A) (A)
                 (A) (A) (A) (A) (A) (A) (A) (A) (A) (A) (A) (A)
                 (A) (A) (A) (A) (A) (A) (A) (A) (A) (A) (A) (A)
                 (A) (A) (A) (A) (A) (A) (A) (A) (A) (A) (A) (A)
                 (A) (A) (A) (A) (A) (A) (A) (A) (A) (A) (A) (A)
                 (A) (A) (A) (A) (A) (A) (A) (A)
 The electronic state is 1-A.
 Alpha  occ. eigenvalues --  -20.58395 -11.29456 -11.28201 -11.21177  -1.40471
 Alpha  occ. eigenvalues --   -1.02655  -0.94917  -0.77515  -0.69411  -0.65154
 Alpha  occ. eigenvalues --   -0.64832  -0.57181  -0.53217  -0.50099  -0.50061
 Alpha  occ. eigenvalues --   -0.34379
 Alpha virt. eigenvalues --    0.14692   0.17166   0.18035   0.18905   0.21471
 Alpha virt. eigenvalues --    0.22343   0.23476   0.25789   0.34220   0.36947
 Alpha virt. eigenvalues --    0.38767   0.45660   0.45994   0.48026   0.51896
 Alpha virt. eigenvalues --    0.54948   0.56343   0.57067   0.59094   0.61304
 Alpha virt. eigenvalues --    0.62264   0.63641   0.64532   0.64964   0.65264
 Alpha virt. eigenvalues --    0.70419   0.73059   0.79714   0.80570   0.85564
 Alpha virt. eigenvalues --    0.86502   0.87921   0.91162   0.93914   1.00523
 Alpha virt. eigenvalues --    1.02389   1.05271   1.08990   1.11997   1.16714
 Alpha virt. eigenvalues --    1.17372   1.19080   1.21896   1.24662   1.26024
 Alpha virt. eigenvalues --    1.28060   1.30696   1.34452   1.38828   1.40412
 Alpha virt. eigenvalues --    1.46309   1.48081   1.48221   1.49080   1.51970
 Alpha virt. eigenvalues --    1.53753   1.58243   1.60867   1.63655   1.68768
 Alpha virt. eigenvalues --    1.71772   1.79366   1.80954   1.87858   2.02639
 Alpha virt. eigenvalues --    2.12567   2.22320   2.25441   2.36732   2.39875
 Alpha virt. eigenvalues --    2.40666   2.48803   2.54525   2.56858   2.60837
 Alpha virt. eigenvalues --    2.61622   2.73310   2.76515   2.78564   2.84199
 Alpha virt. eigenvalues --    2.86133   2.96146   2.98209   2.99753   3.03519
 Alpha virt. eigenvalues --    3.06646   3.07748   3.11395   3.11693   3.14113
 Alpha virt. eigenvalues --    3.17078   3.17185   3.19987   3.22768   3.30092
 Alpha virt. eigenvalues --    3.31749   3.32043   3.32955   3.35640   3.41402
 Alpha virt. eigenvalues --    3.43486   3.43764   3.45663   3.47248   3.49688
 Alpha virt. eigenvalues --    3.54353   3.59210   3.61144   3.61593   3.66080
 Alpha virt. eigenvalues --    3.69699   3.70909   3.71467   3.74623   3.75458
 Alpha virt. eigenvalues --    3.81103   3.82175   3.87258   3.91356   3.94361
 Alpha virt. eigenvalues --    3.95108   4.01206   4.06252   4.06302   4.12396
 Alpha virt. eigenvalues --    4.13136   4.14869   4.17643   4.20945   4.21490
 Alpha virt. eigenvalues --    4.21800   4.32999   4.35659   4.37610   4.39514
 Alpha virt. eigenvalues --    4.40635   4.41714   4.45352   4.48648   4.51688
 Alpha virt. eigenvalues --    4.54603   4.64437   4.68812   4.77604   4.82995
 Alpha virt. eigenvalues --    4.86643   4.92252   5.00410   5.03645   5.07499
 Alpha virt. eigenvalues --    5.13618   5.16669   5.19473   5.24373   5.30105
 Alpha virt. eigenvalues --    5.30694   5.32716   5.35421   5.43575   5.47052
 Alpha virt. eigenvalues --    5.47235   5.52458   5.52705   5.56761   5.64963
 Alpha virt. eigenvalues --    5.70872   5.87885   5.88629   5.98335   6.17137
 Alpha virt. eigenvalues --    6.20271   6.25309   6.30340   6.34851   6.49340
 Alpha virt. eigenvalues --    6.51761   6.73503   6.93372   7.21012   7.23168
 Alpha virt. eigenvalues --    7.31244   7.43835   7.79716   7.89825  11.17272
 Alpha virt. eigenvalues --   11.89082  13.95949  14.59330
          Condensed to atoms (all electrons):
              1          2          3          4          5          6
     1  C    5.140491   0.608211  -0.077509  -0.020510   0.404015   0.420492
     2  C    0.608211   4.652607   0.385423  -0.063020  -0.032956  -0.045565
     3  O   -0.077509   0.385423   7.837181   0.306506   0.003375  -0.003556
     4  C   -0.020510  -0.063020   0.306506   4.597179  -0.000091   0.001507
     5  H    0.404015  -0.032956   0.003375  -0.000091   0.513927  -0.032168
     6  H    0.420492  -0.045565  -0.003556   0.001507  -0.032168   0.514414
     7  H   -0.055289   0.429873  -0.032608   0.004878  -0.003335   0.003339
     8  H    0.000248   0.003640  -0.031408   0.416962   0.000042  -0.000166
     9  H    0.004792  -0.001317  -0.042839   0.410883  -0.000136  -0.000406
    10  H    0.004792  -0.001317  -0.042839   0.410883  -0.000136  -0.000406
              7          8          9         10
     1  C   -0.055289   0.000248   0.004792   0.004792
     2  C    0.429873   0.003640  -0.001317  -0.001317
     3  O   -0.032608  -0.031408  -0.042839  -0.042839
     4  C    0.004878   0.416962   0.410883   0.410883
     5  H   -0.003335   0.000042  -0.000136  -0.000136
     6  H    0.003339  -0.000166  -0.000406  -0.000406
     7  H    0.483115  -0.000235  -0.000095  -0.000095
     8  H   -0.000235   0.552820  -0.029765  -0.029765
     9  H   -0.000095  -0.029765   0.644239  -0.062434
    10  H   -0.000095  -0.029765  -0.062434   0.644237
 Mulliken atomic charges:
              1
     1  C   -0.429734
     2  C    0.064420
     3  O   -0.301727
     4  C   -0.065177
     5  H    0.147465
     6  H    0.142517
     7  H    0.170451
     8  H    0.117628
     9  H    0.077079
    10  H    0.077079
 Sum of Mulliken atomic charges =   0.00000
 Mulliken charges with hydrogens summed into heavy atoms:
              1
     1  C   -0.139753
     2  C    0.234871
     3  O   -0.301727
     4  C    0.206609
 Sum of Mulliken charges with hydrogens summed into heavy atoms =   0.00000
 Electronic spatial extent (au):  <R**2>=            292.9232
 Charge=              0.0000 electrons
 Dipole moment (field-independent basis, Debye):
    X=              0.3427    Y=              0.9138    Z=              0.0000  Tot=              0.9759
 Quadrupole moment (field-independent basis, Debye-Ang):
   XX=            -22.8695   YY=            -24.3982   ZZ=            -27.3435
   XY=              2.4727   XZ=              0.0000   YZ=              0.0000
 Traceless Quadrupole moment (field-independent basis, Debye-Ang):
   XX=              2.0009   YY=              0.4722   ZZ=             -2.4731
   XY=              2.4727   XZ=              0.0000   YZ=              0.0000
 Octapole moment (field-independent basis, Debye-Ang**2):
  XXX=              6.0286  YYY=             -2.8240  ZZZ=              0.0000  XYY=             -1.4606
  XXY=             -0.9527  XXZ=              0.0000  XZZ=              4.4379  YZZ=             -0.9355
  YYZ=              0.0000  XYZ=              0.0000
 Hexadecapole moment (field-independent basis, Debye-Ang**3):
 XXXX=           -233.1439 YYYY=            -94.8774 ZZZZ=            -36.4646 XXXY=             -0.9621
 XXXZ=             -0.0001 YYYX=              3.8397 YYYZ=              0.0000 ZZZX=              0.0000
 ZZZY=              0.0000 XXYY=            -58.9111 XXZZ=            -54.3260 YYZZ=            -22.9543
 XXYZ=              0.0000 YYXZ=              0.0000 ZZXY=              1.3545
 N-N= 1.212762500139D+02 E-N=-6.922175968887D+02  KE= 1.916272948372D+02
 1\1\GINC-ROCK\SP\RMP2-FC\CC-pVTZ\C3H6O1\STYLIANAKIS\03-Mar-2016\0\\# m
 p2/cc-pVTZ\\me_vinyl_ether_s_cis_single_point\\0,1\C\C,1,1.33989\O,2,1
 .358605,1,128.165\C,3,1.423664,2,117.139,1,0.,0\H,1,1.083417,2,118.726
 ,3,180.,0\H,1,1.083204,2,123.804,3,0.,0\H,2,1.086025,3,109.699,4,180.,
 0\H,4,1.090453,3,106.15,2,-179.999,0\H,4,1.097265,3,110.889,2,-60.823,
 0\H,4,1.097265,3,110.889,2,60.825,0\\Version=EM64L-G09RevA.01\State=1-
 A\HF=-191.9901243\MP2=-192.7321596\RMSD=8.458e-09\PG=C01 [X(C3H6O1)]\\
 @


 EXPERIENCE IS A WONDERFUL THING.  IT ENABLES
 YOU TO RECOGNIZE A MISTAKE WHEN YOU MAKE IT AGAIN.
           - BACK OF A SUGAR PACKET
 Job cpu time:  0 days  0 hours  4 minutes 36.9 seconds.
 File lengths (MBytes):  RWF=     20 Int=      0 D2E=      0 Chk=      3 Scr=      1
 Normal termination of Gaussian 09 at Thu Mar  3 22:19:09 2016.
