 Entering Gaussian System, Link 0=g09
 Input=O_Me_glycoside_a_sp.gjf
 Output=O_Me_glycoside_a_sp.out
 Initial command:
 /usr/local/g09/l1.exe /home/scratch/stylianakis/Gau-24304.inp -scrdir=/home/scratch/stylianakis/
 Entering Link 1 = /usr/local/g09/l1.exe PID=     24305.
  
 Copyright (c) 1988,1990,1992,1993,1995,1998,2003,2009, Gaussian, Inc.
                  All Rights Reserved.
  
 This is part of the Gaussian(R) 09 program.  It is based on
 the Gaussian(R) 03 system (copyright 2003, Gaussian, Inc.),
 the Gaussian(R) 98 system (copyright 1998, Gaussian, Inc.),
 the Gaussian(R) 94 system (copyright 1995, Gaussian, Inc.),
 the Gaussian 92(TM) system (copyright 1992, Gaussian, Inc.),
 the Gaussian 90(TM) system (copyright 1990, Gaussian, Inc.),
 the Gaussian 88(TM) system (copyright 1988, Gaussian, Inc.),
 the Gaussian 86(TM) system (copyright 1986, Carnegie Mellon
 University), and the Gaussian 82(TM) system (copyright 1983,
 Carnegie Mellon University). Gaussian is a federally registered
 trademark of Gaussian, Inc.
  
 This software contains proprietary and confidential information,
 including trade secrets, belonging to Gaussian, Inc.
  
 This software is provided under written license and may be
 used, copied, transmitted, or stored only in accord with that
 written license.
  
 The following legend is applicable only to US Government
 contracts under FAR:
  
                    RESTRICTED RIGHTS LEGEND
  
 Use, reproduction and disclosure by the US Government is
 subject to restrictions as set forth in subparagraphs (a)
 and (c) of the Commercial Computer Software - Restricted
 Rights clause in FAR 52.227-19.
  
 Gaussian, Inc.
 340 Quinnipiac St., Bldg. 40, Wallingford CT 06492
  
  
 ---------------------------------------------------------------
 Warning -- This program may not be used in any manner that
 competes with the business of Gaussian, Inc. or will provide
 assistance to any competitor of Gaussian, Inc.  The licensee
 of this program is prohibited from giving any competitor of
 Gaussian, Inc. access to this program.  By using this program,
 the user acknowledges that Gaussian, Inc. is engaged in the
 business of creating and licensing software in the field of
 computational chemistry and represents and warrants to the
 licensee that it is not a competitor of Gaussian, Inc. and that
 it will not use this program in any manner prohibited above.
 ---------------------------------------------------------------
  

 Cite this work as:
 Gaussian 09, Revision A.01,
 M. J. Frisch, G. W. Trucks, H. B. Schlegel, G. E. Scuseria, 
 M. A. Robb, J. R. Cheeseman, G. Scalmani, V. Barone, B. Mennucci, 
 G. A. Petersson, H. Nakatsuji, M. Caricato, X. Li, H. P. Hratchian, 
 A. F. Izmaylov, J. Bloino, G. Zheng, J. L. Sonnenberg, M. Hada, 
 M. Ehara, K. Toyota, R. Fukuda, J. Hasegawa, M. Ishida, T. Nakajima, 
 Y. Honda, O. Kitao, H. Nakai, T. Vreven, J. A. Montgomery, Jr., 
 J. E. Peralta, F. Ogliaro, M. Bearpark, J. J. Heyd, E. Brothers, 
 K. N. Kudin, V. N. Staroverov, R. Kobayashi, J. Normand, 
 K. Raghavachari, A. Rendell, J. C. Burant, S. S. Iyengar, J. Tomasi, 
 M. Cossi, N. Rega, J. M. Millam, M. Klene, J. E. Knox, J. B. Cross, 
 V. Bakken, C. Adamo, J. Jaramillo, R. Gomperts, R. E. Stratmann, 
 O. Yazyev, A. J. Austin, R. Cammi, C. Pomelli, J. W. Ochterski, 
 R. L. Martin, K. Morokuma, V. G. Zakrzewski, G. A. Voth, 
 P. Salvador, J. J. Dannenberg, S. Dapprich, A. D. Daniels, 
 O. Farkas, J. B. Foresman, J. V. Ortiz, J. Cioslowski, 
 and D. J. Fox, Gaussian, Inc., Wallingford CT, 2009.
 
 ******************************************
 Gaussian 09:  EM64L-G09RevA.01  8-May-2009
                 4-Dec-2017 
 ******************************************
 %mem=12000Mb
 %nproc=6
 Will use up to    6 processors via shared memory.
 -------------
 # mp2/cc-pVTZ
 -------------
 1/38=1/1;
 2/12=2,17=6,18=5,40=1/2;
 3/5=16,6=1,11=9,16=1,25=1,30=1/1,2,3;
 4//1;
 5/5=2,38=5/2;
 8/10=1/1;
 9/16=-3/6;
 6/7=2,8=2,9=2,10=2/1;
 99/5=1,9=1/99;
 -----------------------------
 O-Me glycoside-a_single_point
 -----------------------------
 Symbolic Z-matrix:
 Charge =  0 Multiplicity = 1
 C
 C                    1    B1
 C                    2    B2       1    A1
 C                    1    B3       2    A2       3    D1       0
 O                    3    B4       2    A3       1    D2       0
 C                    5    B5       3    A4       2    D3       0
 O                    6    B6       5    A5       3    D4       0
 C                    7    B7       6    A6       5    D5       0
 O                    2    B8       1    A7       4    D6       0
 O                    1    B9       2    A8       9    D7       0
 O                    4    B10      1    A9       10   D8       0
 H                    11   B11      4    A10      1    D9       0
 H                    9    B12      2    A11      1    D10      0
 H                    10   B13      1    A12      2    D11      0
 H                    1    B14      10   A13      2    D12      0
 H                    2    B15      1    A14      10   D13      0
 H                    3    B16      2    A15      1    D14      0
 H                    4    B17      1    A16      10   D15      0
 H                    6    B18      5    A17      3    D16      0
 H                    8    B19      7    A18      6    D17      0
 H                    8    B20      7    A19      6    D18      0
 H                    8    B21      7    A20      6    D19      0
 C                    3    B22      2    A21      1    D20      0
 O                    23   B23      3    A22      2    D21      0
 H                    24   B24      23   A23      3    D22      0
 H                    23   B25      3    A24      2    D23      0
 H                    23   B26      3    A25      2    D24      0
       Variables:
  B1                    1.52719                  
  B2                    1.532                    
  B3                    1.52734                  
  B4                    1.44648                  
  B5                    1.42376                  
  B6                    1.39634                  
  B7                    1.42674                  
  B8                    1.42213                  
  B9                    1.42706                  
  B10                   1.42443                  
  B11                   0.96553                  
  B12                   0.96826                  
  B13                   0.96772                  
  B14                   1.09833                  
  B15                   1.10208                  
  B16                   1.09688                  
  B17                   1.09909                  
  B18                   1.10124                  
  B19                   1.09112                  
  B20                   1.09563                  
  B21                   1.09935                  
  B22                   1.52354                  
  B23                   1.42232                  
  B24                   0.9674                   
  B25                   1.10074                  
  B26                   1.09168                  
  A1                  110.11653                  
  A2                  110.3153                   
  A3                  109.58106                  
  A4                  114.84809                  
  A5                  113.24639                  
  A6                  114.55767                  
  A7                  111.30932                  
  A8                  106.94942                  
  A9                  106.84143                  
  A10                 110.01675                  
  A11                 107.35721                  
  A12                 107.66959                  
  A13                 110.05211                  
  A14                 108.16245                  
  A15                 109.36978                  
  A16                 108.47522                  
  A17                 104.07449                  
  A18                 106.43648                  
  A19                 111.54062                  
  A20                 110.71853                  
  A21                 113.19693                  
  A22                 111.78875                  
  A23                 107.10437                  
  A24                 109.31035                  
  A25                 109.27129                  
  D1                   54.23439                  
  D2                  -54.90799                  
  D3                   60.44737                  
  D4                   60.5038                   
  D5                   67.58118                  
  D6                  174.11332                  
  D7                  -64.43855                  
  D8                   62.03105                  
  D9                 -165.04449                  
  D10                  49.73766                  
  D11                -178.38619                  
  D12                -118.38459                  
  D13                  56.63949                  
  D14                  64.98391                  
  D15                 -56.88663                  
  D16                -179.48415                  
  D17                 173.97118                  
  D18                 -66.60564                  
  D19                  55.28262                  
  D20                -172.83981                  
  D21                 179.71069                  
  D22                 -56.86056                  
  D23                  56.57654                  
  D24                 -62.05377                  
 
                          Input orientation:                          
 ---------------------------------------------------------------------
 Center     Atomic      Atomic             Coordinates (Angstroms)
 Number     Number       Type             X           Y           Z
 ---------------------------------------------------------------------
      1          6           0        0.000000    0.000000    0.000000
      2          6           0        0.000000    0.000000    1.527190
      3          6           0        1.438543    0.000000    2.054092
      4          6           0        0.837156   -1.162215   -0.530270
      5          8           0        2.163203   -1.115104    1.485140
      6          6           0        2.257688   -1.104961    0.064552
      7          8           0        2.914945    0.020728   -0.436041
      8          6           0        4.305233    0.084195   -0.121936
      9          8           0       -0.660024    1.148795    2.043995
     10          8           0       -1.361201   -0.102767   -0.416028
     11          8           0        0.800725   -1.082132   -1.951986
     12          1           0        1.110440   -1.911296   -2.337757
     13          1           0       -1.513708    1.219016    1.592520
     14          1           0       -1.371481   -0.129585   -1.383325
     15          1           0        0.433458    0.943020   -0.359391
     16          1           0       -0.508368   -0.915497    1.870723
     17          1           0        1.930644    0.937720    1.768321
     18          1           0        0.382494   -2.102984   -0.189335
     19          1           0        2.824164   -2.019042   -0.172699
     20          1           0        4.704645    0.944496   -0.661286
     21          1           0        4.469078    0.217474    0.953146
     22          1           0        4.821659   -0.826592   -0.457113
     23          6           0        1.524170   -0.174548    3.565175
     24          8           0        2.871516   -0.176809    4.020862
     25          1           0        3.331146   -0.883582    3.546433
     26          1           0        1.011023   -1.104602    3.853820
     27          1           0        1.023660    0.663705    4.053635
 ---------------------------------------------------------------------
                    Distance matrix (angstroms):
                    1          2          3          4          5
     1  C    0.000000
     2  C    1.527190   0.000000
     3  C    2.507728   1.532002   0.000000
     4  C    1.527338   2.506933   2.896781   0.000000
     5  O    2.851060   2.434065   1.446477   2.412986   0.000000
     6  C    2.514411   2.908161   2.418720   1.541105   1.423763
     7  O    2.947451   3.514486   2.894988   2.392790   2.355030
     8  C    4.307782   4.611045   3.600014   3.707807   2.934161
     9  O    2.435832   1.422129   2.392450   3.769504   3.661717
    10  O    1.427062   2.374768   3.735052   2.443001   4.130458
    11  O    2.371164   3.730527   4.198390   1.424435   3.697468
    12  H    3.217334   4.452408   4.800942   1.975554   4.044351
    13  H    2.512655   1.944628   3.227202   3.962709   4.356526
    14  H    1.952265   3.220069   4.441718   2.583042   4.657610
    15  H    1.098332   2.153220   2.779277   2.150392   3.260396
    16  H    2.143869   1.102084   2.159218   2.763344   2.706623
    17  H    2.780946   2.159826   1.096880   3.299843   2.085272
    18  H    2.145854   2.741405   3.251268   1.099091   2.636417
    19  H    3.475955   3.865495   3.309845   2.193220   2.000601
    20  H    4.843868   5.274011   4.351181   4.406004   3.912547
    21  H    4.574761   4.511040   3.231644   4.158717   2.715850
    22  H    4.913309   5.279120   4.293586   3.999283   3.304992
    23  C    3.881241   2.550871   1.523539   4.268506   2.370560
    24  O    4.944107   3.807265   2.439847   5.081579   2.794994
    25  H    4.945143   3.994320   2.567050   4.787184   2.380466
    26  H    4.134518   2.766861   2.154516   4.387915   2.634060
    27  H    4.233243   2.805586   2.147278   4.937708   3.325641
                    6          7          8          9         10
     6  C    0.000000
     7  O    1.396337   0.000000
     8  C    2.375143   1.426741   0.000000
     9  O    4.184573   4.494833   5.520725   0.000000
    10  O    3.785724   4.277976   5.677139   2.847765   0.000000
    11  O    2.487909   2.825654   4.122011   4.804028   2.827056
    12  H    2.781626   3.256606   4.370188   5.630138   3.615637
    13  H    4.686041   5.016366   6.171487   0.968265   2.409281
    14  H    4.027229   4.392424   5.819096   3.726519   0.967724
    15  H    2.775206   2.648448   3.972984   2.648454   2.077902
    16  H    3.308960   4.232818   5.304792   2.077096   2.572369
    17  H    2.679986   2.582428   3.152816   2.613831   4.085368
    18  H    2.139360   3.314261   4.491789   4.080279   2.663218
    19  H    1.101239   2.058702   2.572887   5.204661   4.609620
    20  H    3.273333   2.026600   1.091122   6.011652   6.160471
    21  H    2.725559   2.093771   1.095632   5.325880   5.997444
    22  H    2.631268   2.086613   1.099351   6.340863   6.225220
    23  C    3.695683   4.240533   4.625586   2.972529   4.917366
    24  O    4.109822   4.461490   4.391633   4.258756   6.132484
    25  H    3.650317   4.105009   3.916933   4.724120   6.191032
    26  H    3.989076   4.826406   5.298272   3.338512   4.986253
    27  H    4.534731   4.914018   5.342279   2.666226   5.123761
                   11         12         13         14         15
    11  O    0.000000
    12  H    0.965534   0.000000
    13  H    4.818236   5.668517   0.000000
    14  H    2.439098   3.200838   3.270261   0.000000
    15  H    2.602399   3.538270   2.770846   2.335963   0.000000
    16  H    4.044081   4.617732   2.375764   3.457087   3.051971
    17  H    4.381461   5.064533   3.460288   4.687861   2.601682
    18  H    2.079421   2.276481   4.219748   2.897645   3.051173
    19  H    2.852713   2.763320   5.693694   4.758057   3.811055
    20  H    4.584072   4.887168   6.619889   6.212431   4.281844
    21  H    4.856499   5.161604   6.099641   6.300133   4.305276
    22  H    4.297425   4.299599   6.965801   6.300688   4.732588
    23  C    5.637920   6.167015   3.880990   5.733626   4.223840
    24  O    6.386133   6.822160   5.203398   6.870988   5.136609
    25  H    6.055994   6.372709   5.631279   6.854613   5.195048
    26  H    5.809657   6.244699   4.109372   5.835638   4.719903
    27  H    6.258205   6.891158   3.578225   5.993876   4.461071
                   16         17         18         19         20
    16  H    0.000000
    17  H    3.064911   0.000000
    18  H    2.539212   3.933835   0.000000
    19  H    4.061915   3.648065   2.443169   0.000000
    20  H    6.086555   3.687563   5.309507   3.543654   0.000000
    21  H    5.186572   2.761686   4.836316   2.995875   1.786182
    22  H    5.816864   4.052570   4.626777   2.343675   1.786654
    23  C    2.747978   2.151986   4.372486   4.366216   5.406538
    24  O    4.073373   2.683534   5.256532   4.580613   5.151718
    25  H    4.189378   2.905207   4.912988   3.921510   4.788869
    26  H    2.505391   3.060406   4.211759   4.509605   6.182866
    27  H    3.099371   2.473937   5.105728   5.319854   5.988237
                   21         22         23         24         25
    21  H    0.000000
    22  H    1.789753   0.000000
    23  C    3.955864   5.241889   0.000000
    24  O    3.481170   4.927224   1.422321   0.000000
    25  H    3.038478   4.272383   1.941196   0.967404   0.000000
    26  H    4.703184   5.760415   1.100743   2.085698   2.350810
    27  H    4.656507   6.082157   1.091683   2.030297   2.824153
                   26         27
    26  H    0.000000
    27  H    1.779605   0.000000
 Stoichiometry    C7H14O6
 Framework group  C1[X(C7H14O6)]
 Deg. of freedom    75
 Full point group                 C1      NOp   1
 Largest Abelian subgroup         C1      NOp   1
 Largest concise Abelian subgroup C1      NOp   1
                         Standard orientation:                         
 ---------------------------------------------------------------------
 Center     Atomic      Atomic             Coordinates (Angstroms)
 Number     Number       Type             X           Y           Z
 ---------------------------------------------------------------------
      1          6           0       -1.332565   -0.870027    0.254277
      2          6           0        0.024343   -1.517674   -0.013421
      3          6           0        1.136827   -0.468703    0.081819
      4          6           0       -1.544665    0.321242   -0.677738
      5          8           0        0.844670    0.630308   -0.812113
      6          6           0       -0.374190    1.314350   -0.540881
      7          8           0       -0.412300    1.889184    0.731074
      8          6           0        0.495830    2.973378    0.919255
      9          8           0        0.302479   -2.543948    0.930958
     10          8           0       -2.322145   -1.877631    0.049404
     11          8           0       -2.816189    0.876369   -0.355131
     12          1           0       -3.102926    1.475089   -1.056253
     13          1           0       -0.474022   -3.121237    0.967292
     14          1           0       -3.188868   -1.471302    0.191449
     15          1           0       -1.363677   -0.517521    1.294039
     16          1           0        0.010558   -1.935064   -1.033315
     17          1           0        1.196864   -0.094516    1.111152
     18          1           0       -1.539223   -0.042630   -1.714834
     19          1           0       -0.422432    2.093702   -1.317419
     20          1           0        0.281324    3.388166    1.905402
     21          1           0        1.537721    2.636477    0.882232
     22          1           0        0.338492    3.749348    0.156570
     23          6           0        2.500367   -0.999852   -0.342220
     24          8           0        3.508503   -0.000906   -0.248596
     25          1           0        3.222349    0.744224   -0.795193
     26          1           0        2.434222   -1.395363   -1.367321
     27          1           0        2.793792   -1.812648    0.324890
 ---------------------------------------------------------------------
 Rotational constants (GHZ):      0.9162977      0.7230414      0.4594830
 Standard basis: CC-pVTZ (5D, 7F)
 There are   586 symmetry adapted basis functions of A   symmetry.
 Integral buffers will be    131072 words long.
 Raffenetti 1 integral format.
 Two-electron integral symmetry is turned on.
   586 basis functions,   914 primitive gaussians,   665 cartesian basis functions
    52 alpha electrons       52 beta electrons
       nuclear repulsion energy       946.8374506693 Hartrees.
 NAtoms=   27 NActive=   27 NUniq=   27 SFac= 7.50D-01 NAtFMM=   80 NAOKFM=F Big=F
 One-electron integrals computed using PRISM.
 NBasis=   586 RedAO= T  NBF=   586
 NBsUse=   586 1.00D-06 NBFU=   586
 Harris functional with IExCor=  205 diagonalized for initial guess.
 ExpMin= 1.03D-01 ExpMax= 1.53D+04 ExpMxC= 5.22D+02 IAcc=1 IRadAn=         1 AccDes= 0.00D+00
 HarFok:  IExCor=  205 AccDes= 0.00D+00 IRadAn=         1 IDoV= 1
 ScaDFX=  1.000000  1.000000  1.000000  1.000000
 FoFCou: FMM=F IPFlag=           0 FMFlag=      100000 FMFlg1=           0
         NFxFlg=           0 DoJE=T BraDBF=F KetDBF=T FulRan=T
         Omega=  0.000000  0.000000  1.000000  0.000000  0.000000 ICntrl=     500 IOpCl=  0
         NMat0=    1 NMatS0=    1 NMatT0=    0 NMatD0=    1 NMtDS0=    0 NMtDT0=    0
         I1Cent=           4 NGrid=           0.
 Petite list used in FoFCou.
 Initial guess orbital symmetries:
       Occupied  (A) (A) (A) (A) (A) (A) (A) (A) (A) (A) (A) (A)
                 (A) (A) (A) (A) (A) (A) (A) (A) (A) (A) (A) (A)
                 (A) (A) (A) (A) (A) (A) (A) (A) (A) (A) (A) (A)
                 (A) (A) (A) (A) (A) (A) (A) (A) (A) (A) (A) (A)
                 (A) (A) (A) (A)
       Virtual   (A) (A) (A) (A) (A) (A) (A) (A) (A) (A) (A) (A)
                 (A) (A) (A) (A) (A) (A) (A) (A) (A) (A) (A) (A)
                 (A) (A) (A) (A) (A) (A) (A) (A) (A) (A) (A) (A)
                 (A) (A) (A) (A) (A) (A) (A) (A) (A) (A) (A) (A)
                 (A) (A) (A) (A) (A) (A) (A) (A) (A) (A) (A) (A)
                 (A) (A) (A) (A) (A) (A) (A) (A) (A) (A) (A) (A)
                 (A) (A) (A) (A) (A) (A) (A) (A) (A) (A) (A) (A)
                 (A) (A) (A) (A) (A) (A) (A) (A) (A) (A) (A) (A)
                 (A) (A) (A) (A) (A) (A) (A) (A) (A) (A) (A) (A)
                 (A) (A) (A) (A) (A) (A) (A) (A) (A) (A) (A) (A)
                 (A) (A) (A) (A) (A) (A) (A) (A) (A) (A) (A) (A)
                 (A) (A) (A) (A) (A) (A) (A) (A) (A) (A) (A) (A)
                 (A) (A) (A) (A) (A) (A) (A) (A) (A) (A) (A) (A)
                 (A) (A) (A) (A) (A) (A) (A) (A) (A) (A) (A) (A)
                 (A) (A) (A) (A) (A) (A) (A) (A) (A) (A) (A) (A)
                 (A) (A) (A) (A) (A) (A) (A) (A) (A) (A) (A) (A)
                 (A) (A) (A) (A) (A) (A) (A) (A) (A) (A) (A) (A)
                 (A) (A) (A) (A) (A) (A) (A) (A) (A) (A) (A) (A)
                 (A) (A) (A) (A) (A) (A) (A) (A) (A) (A) (A) (A)
                 (A) (A) (A) (A) (A) (A) (A) (A) (A) (A) (A) (A)
                 (A) (A) (A) (A) (A) (A) (A) (A) (A) (A) (A) (A)
                 (A) (A) (A) (A) (A) (A) (A) (A) (A) (A) (A) (A)
                 (A) (A) (A) (A) (A) (A) (A) (A) (A) (A) (A) (A)
                 (A) (A) (A) (A) (A) (A) (A) (A) (A) (A) (A) (A)
                 (A) (A) (A) (A) (A) (A) (A) (A) (A) (A) (A) (A)
                 (A) (A) (A) (A) (A) (A) (A) (A) (A) (A) (A) (A)
                 (A) (A) (A) (A) (A) (A) (A) (A) (A) (A) (A) (A)
                 (A) (A) (A) (A) (A) (A) (A) (A) (A) (A) (A) (A)
                 (A) (A) (A) (A) (A) (A) (A) (A) (A) (A) (A) (A)
                 (A) (A) (A) (A) (A) (A) (A) (A) (A) (A) (A) (A)
                 (A) (A) (A) (A) (A) (A) (A) (A) (A) (A) (A) (A)
                 (A) (A) (A) (A) (A) (A) (A) (A) (A) (A) (A) (A)
                 (A) (A) (A) (A) (A) (A) (A) (A) (A) (A) (A) (A)
                 (A) (A) (A) (A) (A) (A) (A) (A) (A) (A) (A) (A)
                 (A) (A) (A) (A) (A) (A) (A) (A) (A) (A) (A) (A)
                 (A) (A) (A) (A) (A) (A) (A) (A) (A) (A) (A) (A)
                 (A) (A) (A) (A) (A) (A) (A) (A) (A) (A) (A) (A)
                 (A) (A) (A) (A) (A) (A) (A) (A) (A) (A) (A) (A)
                 (A) (A) (A) (A) (A) (A) (A) (A) (A) (A) (A) (A)
                 (A) (A) (A) (A) (A) (A) (A) (A) (A) (A) (A) (A)
                 (A) (A) (A) (A) (A) (A) (A) (A) (A) (A) (A) (A)
                 (A) (A) (A) (A) (A) (A) (A) (A) (A) (A) (A) (A)
                 (A) (A) (A) (A) (A) (A) (A) (A) (A) (A) (A) (A)
                 (A) (A) (A) (A) (A) (A) (A) (A) (A) (A) (A) (A)
                 (A) (A) (A) (A) (A) (A)
 The electronic state of the initial guess is 1-A.
 Requested convergence on RMS density matrix=1.00D-08 within 128 cycles.
 Requested convergence on MAX density matrix=1.00D-06.
 Requested convergence on             energy=1.00D-06.
 No special actions if energy rises.
 Integral accuracy reduced to 1.0D-05 until final iterations.
 Initial convergence to 1.0D-05 achieved.  Increase integral accuracy.
 SCF Done:  E(RHF) =  -722.640089527     A.U. after   12 cycles
             Convg  =    0.7086D-08             -V/T =  2.0017
 ExpMin= 1.03D-01 ExpMax= 1.53D+04 ExpMxC= 5.22D+02 IAcc=1 IRadAn=         1 AccDes= 0.00D+00
 HarFok:  IExCor=  205 AccDes= 0.00D+00 IRadAn=         1 IDoV=-2
 ScaDFX=  1.000000  1.000000  1.000000  1.000000
 Range of M.O.s used for correlation:    14   586
 NBasis=   586 NAE=    52 NBE=    52 NFC=    13 NFV=     0
 NROrb=    573 NOA=    39 NOB=    39 NVA=   534 NVB=   534

 **** Warning!!: The largest alpha MO coefficient is  0.10130466D+02

 Fully direct method using O(OVN) memory.
 JobTyp=1 Pass  1:  I=   1 to  27 NPSUse=  6 ParTrn=T ParDer=T DoDerP=F.
 JobTyp=1 Pass  2:  I=  28 to  39 NPSUse=  6 ParTrn=T ParDer=T DoDerP=F.
 Spin components of T(2) and E(2):
     alpha-alpha T2 =       0.9071892431D-01 E2=     -0.3274006886D+00
     alpha-beta  T2 =       0.5061416691D+00 E2=     -0.1958744643D+01
     beta-beta   T2 =       0.9071892431D-01 E2=     -0.3274006886D+00
 ANorm=    0.1299068712D+01
 E2 =    -0.2613546020D+01 EUMP2 =    -0.72525363554741D+03

 **********************************************************************

            Population analysis using the SCF density.

 **********************************************************************

 Orbital symmetries:
       Occupied  (A) (A) (A) (A) (A) (A) (A) (A) (A) (A) (A) (A)
                 (A) (A) (A) (A) (A) (A) (A) (A) (A) (A) (A) (A)
                 (A) (A) (A) (A) (A) (A) (A) (A) (A) (A) (A) (A)
                 (A) (A) (A) (A) (A) (A) (A) (A) (A) (A) (A) (A)
                 (A) (A) (A) (A)
       Virtual   (A) (A) (A) (A) (A) (A) (A) (A) (A) (A) (A) (A)
                 (A) (A) (A) (A) (A) (A) (A) (A) (A) (A) (A) (A)
                 (A) (A) (A) (A) (A) (A) (A) (A) (A) (A) (A) (A)
                 (A) (A) (A) (A) (A) (A) (A) (A) (A) (A) (A) (A)
                 (A) (A) (A) (A) (A) (A) (A) (A) (A) (A) (A) (A)
                 (A) (A) (A) (A) (A) (A) (A) (A) (A) (A) (A) (A)
                 (A) (A) (A) (A) (A) (A) (A) (A) (A) (A) (A) (A)
                 (A) (A) (A) (A) (A) (A) (A) (A) (A) (A) (A) (A)
                 (A) (A) (A) (A) (A) (A) (A) (A) (A) (A) (A) (A)
                 (A) (A) (A) (A) (A) (A) (A) (A) (A) (A) (A) (A)
                 (A) (A) (A) (A) (A) (A) (A) (A) (A) (A) (A) (A)
                 (A) (A) (A) (A) (A) (A) (A) (A) (A) (A) (A) (A)
                 (A) (A) (A) (A) (A) (A) (A) (A) (A) (A) (A) (A)
                 (A) (A) (A) (A) (A) (A) (A) (A) (A) (A) (A) (A)
                 (A) (A) (A) (A) (A) (A) (A) (A) (A) (A) (A) (A)
                 (A) (A) (A) (A) (A) (A) (A) (A) (A) (A) (A) (A)
                 (A) (A) (A) (A) (A) (A) (A) (A) (A) (A) (A) (A)
                 (A) (A) (A) (A) (A) (A) (A) (A) (A) (A) (A) (A)
                 (A) (A) (A) (A) (A) (A) (A) (A) (A) (A) (A) (A)
                 (A) (A) (A) (A) (A) (A) (A) (A) (A) (A) (A) (A)
                 (A) (A) (A) (A) (A) (A) (A) (A) (A) (A) (A) (A)
                 (A) (A) (A) (A) (A) (A) (A) (A) (A) (A) (A) (A)
                 (A) (A) (A) (A) (A) (A) (A) (A) (A) (A) (A) (A)
                 (A) (A) (A) (A) (A) (A) (A) (A) (A) (A) (A) (A)
                 (A) (A) (A) (A) (A) (A) (A) (A) (A) (A) (A) (A)
                 (A) (A) (A) (A) (A) (A) (A) (A) (A) (A) (A) (A)
                 (A) (A) (A) (A) (A) (A) (A) (A) (A) (A) (A) (A)
                 (A) (A) (A) (A) (A) (A) (A) (A) (A) (A) (A) (A)
                 (A) (A) (A) (A) (A) (A) (A) (A) (A) (A) (A) (A)
                 (A) (A) (A) (A) (A) (A) (A) (A) (A) (A) (A) (A)
                 (A) (A) (A) (A) (A) (A) (A) (A) (A) (A) (A) (A)
                 (A) (A) (A) (A) (A) (A) (A) (A) (A) (A) (A) (A)
                 (A) (A) (A) (A) (A) (A) (A) (A) (A) (A) (A) (A)
                 (A) (A) (A) (A) (A) (A) (A) (A) (A) (A) (A) (A)
                 (A) (A) (A) (A) (A) (A) (A) (A) (A) (A) (A) (A)
                 (A) (A) (A) (A) (A) (A) (A) (A) (A) (A) (A) (A)
                 (A) (A) (A) (A) (A) (A) (A) (A) (A) (A) (A) (A)
                 (A) (A) (A) (A) (A) (A) (A) (A) (A) (A) (A) (A)
                 (A) (A) (A) (A) (A) (A) (A) (A) (A) (A) (A) (A)
                 (A) (A) (A) (A) (A) (A) (A) (A) (A) (A) (A) (A)
                 (A) (A) (A) (A) (A) (A) (A) (A) (A) (A) (A) (A)
                 (A) (A) (A) (A) (A) (A) (A) (A) (A) (A) (A) (A)
                 (A) (A) (A) (A) (A) (A) (A) (A) (A) (A) (A) (A)
                 (A) (A) (A) (A) (A) (A) (A) (A) (A) (A) (A) (A)
                 (A) (A) (A) (A) (A) (A)
 The electronic state is 1-A.
 Alpha  occ. eigenvalues --  -20.57679 -20.57550 -20.57371 -20.56448 -20.55873
 Alpha  occ. eigenvalues --  -20.54803 -11.34903 -11.29816 -11.28829 -11.28729
 Alpha  occ. eigenvalues --  -11.28593 -11.28257 -11.27154  -1.43135  -1.38704
 Alpha  occ. eigenvalues --   -1.37402  -1.36075  -1.35048  -1.34279  -1.06241
 Alpha  occ. eigenvalues --   -1.04610  -0.95817  -0.91644  -0.86713  -0.83897
 Alpha  occ. eigenvalues --   -0.78569  -0.73996  -0.72335  -0.70833  -0.69749
 Alpha  occ. eigenvalues --   -0.67607  -0.66649  -0.65575  -0.63726  -0.62462
 Alpha  occ. eigenvalues --   -0.60530  -0.59346  -0.58564  -0.57736  -0.56504
 Alpha  occ. eigenvalues --   -0.55561  -0.53783  -0.53492  -0.51694  -0.50094
 Alpha  occ. eigenvalues --   -0.48629  -0.46552  -0.45893  -0.45075  -0.44609
 Alpha  occ. eigenvalues --   -0.43176  -0.42987
 Alpha virt. eigenvalues --    0.12157   0.14114   0.15305   0.16205   0.18030
 Alpha virt. eigenvalues --    0.19207   0.19336   0.19825   0.20771   0.21781
 Alpha virt. eigenvalues --    0.22220   0.24647   0.25482   0.25752   0.28148
 Alpha virt. eigenvalues --    0.29640   0.31468   0.33456   0.33761   0.35576
 Alpha virt. eigenvalues --    0.35720   0.37805   0.38146   0.39811   0.41667
 Alpha virt. eigenvalues --    0.44439   0.44832   0.45755   0.47562   0.48487
 Alpha virt. eigenvalues --    0.49474   0.49949   0.51202   0.52412   0.53266
 Alpha virt. eigenvalues --    0.54231   0.54913   0.55994   0.56296   0.56947
 Alpha virt. eigenvalues --    0.58056   0.58687   0.59249   0.59999   0.60526
 Alpha virt. eigenvalues --    0.61587   0.61930   0.62381   0.62479   0.63271
 Alpha virt. eigenvalues --    0.63688   0.64592   0.64689   0.65539   0.65848
 Alpha virt. eigenvalues --    0.66352   0.66820   0.68794   0.70311   0.71797
 Alpha virt. eigenvalues --    0.72211   0.72747   0.73721   0.74679   0.75758
 Alpha virt. eigenvalues --    0.78468   0.79018   0.81852   0.82454   0.83274
 Alpha virt. eigenvalues --    0.84109   0.85495   0.86544   0.87063   0.89338
 Alpha virt. eigenvalues --    0.89912   0.90749   0.92107   0.93804   0.94252
 Alpha virt. eigenvalues --    0.95311   0.96028   0.96292   0.96399   1.00003
 Alpha virt. eigenvalues --    1.00794   1.01220   1.03276   1.03757   1.04041
 Alpha virt. eigenvalues --    1.05714   1.07255   1.08461   1.09717   1.09844
 Alpha virt. eigenvalues --    1.11285   1.13033   1.14148   1.14870   1.16890
 Alpha virt. eigenvalues --    1.17473   1.18579   1.20757   1.21155   1.21934
 Alpha virt. eigenvalues --    1.22572   1.23700   1.24498   1.26150   1.27490
 Alpha virt. eigenvalues --    1.28177   1.28661   1.29617   1.31116   1.32756
 Alpha virt. eigenvalues --    1.33167   1.34157   1.34892   1.36373   1.38299
 Alpha virt. eigenvalues --    1.39305   1.39621   1.40714   1.44000   1.44844
 Alpha virt. eigenvalues --    1.45516   1.46102   1.46711   1.47298   1.48451
 Alpha virt. eigenvalues --    1.48757   1.49518   1.50536   1.51177   1.51548
 Alpha virt. eigenvalues --    1.52904   1.54321   1.55318   1.55885   1.56219
 Alpha virt. eigenvalues --    1.56933   1.57851   1.58965   1.59681   1.60920
 Alpha virt. eigenvalues --    1.61609   1.63334   1.65044   1.66285   1.67008
 Alpha virt. eigenvalues --    1.69741   1.71874   1.72733   1.73508   1.74316
 Alpha virt. eigenvalues --    1.76439   1.77982   1.79338   1.82530   1.83879
 Alpha virt. eigenvalues --    1.85904   1.87604   1.91636   1.93532   1.97148
 Alpha virt. eigenvalues --    2.00672   2.01524   2.04972   2.08846   2.10930
 Alpha virt. eigenvalues --    2.13087   2.15724   2.17706   2.19596   2.20042
 Alpha virt. eigenvalues --    2.21488   2.24362   2.25830   2.27308   2.27440
 Alpha virt. eigenvalues --    2.28680   2.31857   2.33342   2.34574   2.35355
 Alpha virt. eigenvalues --    2.36854   2.38343   2.40170   2.40424   2.42056
 Alpha virt. eigenvalues --    2.43563   2.44298   2.45363   2.46262   2.48130
 Alpha virt. eigenvalues --    2.50688   2.51740   2.55070   2.56831   2.58805
 Alpha virt. eigenvalues --    2.61427   2.63856   2.67057   2.71276   2.71908
 Alpha virt. eigenvalues --    2.75549   2.76974   2.81159   2.81899   2.84479
 Alpha virt. eigenvalues --    2.85918   2.86799   2.87645   2.88885   2.89832
 Alpha virt. eigenvalues --    2.91103   2.94011   2.95265   2.96510   2.98410
 Alpha virt. eigenvalues --    3.00134   3.02305   3.02672   3.04184   3.06027
 Alpha virt. eigenvalues --    3.07056   3.07335   3.08421   3.09199   3.10341
 Alpha virt. eigenvalues --    3.10648   3.13529   3.14307   3.15196   3.17180
 Alpha virt. eigenvalues --    3.18327   3.20716   3.21331   3.21465   3.23421
 Alpha virt. eigenvalues --    3.24450   3.25350   3.27373   3.27969   3.29216
 Alpha virt. eigenvalues --    3.29530   3.30192   3.31109   3.32152   3.32779
 Alpha virt. eigenvalues --    3.33204   3.34895   3.36035   3.36830   3.38698
 Alpha virt. eigenvalues --    3.38899   3.39471   3.39968   3.41783   3.41982
 Alpha virt. eigenvalues --    3.44441   3.44970   3.46654   3.46859   3.47079
 Alpha virt. eigenvalues --    3.48705   3.48891   3.51801   3.52449   3.54065
 Alpha virt. eigenvalues --    3.54953   3.56435   3.56676   3.58179   3.59006
 Alpha virt. eigenvalues --    3.60108   3.61055   3.61924   3.64192   3.64810
 Alpha virt. eigenvalues --    3.65577   3.66383   3.67826   3.68707   3.69002
 Alpha virt. eigenvalues --    3.70452   3.72971   3.73836   3.74578   3.75157
 Alpha virt. eigenvalues --    3.75911   3.77807   3.78444   3.79753   3.80661
 Alpha virt. eigenvalues --    3.80837   3.81720   3.83139   3.84383   3.86150
 Alpha virt. eigenvalues --    3.86984   3.87722   3.89098   3.89472   3.90159
 Alpha virt. eigenvalues --    3.90733   3.92899   3.93808   3.95331   3.96776
 Alpha virt. eigenvalues --    3.98427   3.99338   4.01018   4.01326   4.02275
 Alpha virt. eigenvalues --    4.02800   4.05288   4.05854   4.06745   4.08652
 Alpha virt. eigenvalues --    4.09609   4.10019   4.11730   4.12808   4.13020
 Alpha virt. eigenvalues --    4.13534   4.15322   4.15554   4.16969   4.17420
 Alpha virt. eigenvalues --    4.18205   4.19190   4.20240   4.21624   4.22414
 Alpha virt. eigenvalues --    4.23231   4.24884   4.25515   4.26461   4.27593
 Alpha virt. eigenvalues --    4.29358   4.29898   4.31171   4.32169   4.32987
 Alpha virt. eigenvalues --    4.34318   4.34502   4.36271   4.38022   4.38648
 Alpha virt. eigenvalues --    4.39719   4.40133   4.42027   4.42948   4.44680
 Alpha virt. eigenvalues --    4.45457   4.46508   4.47131   4.50353   4.50577
 Alpha virt. eigenvalues --    4.51404   4.53016   4.53491   4.54392   4.56468
 Alpha virt. eigenvalues --    4.56964   4.58236   4.59816   4.60321   4.61254
 Alpha virt. eigenvalues --    4.62321   4.63601   4.67978   4.68614   4.70044
 Alpha virt. eigenvalues --    4.71132   4.72674   4.75174   4.76418   4.76720
 Alpha virt. eigenvalues --    4.78809   4.79930   4.82378   4.83894   4.84700
 Alpha virt. eigenvalues --    4.85573   4.87877   4.90876   4.93220   4.95479
 Alpha virt. eigenvalues --    4.97392   4.99568   5.00722   5.01233   5.03970
 Alpha virt. eigenvalues --    5.04628   5.05448   5.07854   5.10024   5.10492
 Alpha virt. eigenvalues --    5.11423   5.14033   5.15361   5.16666   5.18092
 Alpha virt. eigenvalues --    5.18749   5.22074   5.23362   5.25018   5.27294
 Alpha virt. eigenvalues --    5.27887   5.29389   5.31018   5.32337   5.34010
 Alpha virt. eigenvalues --    5.34455   5.36804   5.37443   5.38888   5.41373
 Alpha virt. eigenvalues --    5.42759   5.44148   5.45310   5.48402   5.49289
 Alpha virt. eigenvalues --    5.51352   5.55365   5.56071   5.59227   5.60146
 Alpha virt. eigenvalues --    5.62905   5.65724   5.66551   5.68815   5.72776
 Alpha virt. eigenvalues --    5.75670   5.78659   5.79482   5.80273   5.82347
 Alpha virt. eigenvalues --    5.85920   5.88372   5.89941   5.91769   5.96688
 Alpha virt. eigenvalues --    5.97756   5.99412   5.99998   6.01404   6.01966
 Alpha virt. eigenvalues --    6.03139   6.11086   6.13402   6.14154   6.16316
 Alpha virt. eigenvalues --    6.17480   6.18201   6.20570   6.21336   6.21870
 Alpha virt. eigenvalues --    6.26042   6.28337   6.32170   6.33952   6.36735
 Alpha virt. eigenvalues --    6.40725   6.41980   6.45261   6.54620   6.63476
 Alpha virt. eigenvalues --    6.65917   6.66150   6.69818   6.71373   6.75694
 Alpha virt. eigenvalues --    6.77567   6.83066   6.85490   6.90997   6.97450
 Alpha virt. eigenvalues --    6.98235   6.98512   6.98988   7.10534   7.12309
 Alpha virt. eigenvalues --    7.13676   7.15577   7.16054   7.17394   7.17658
 Alpha virt. eigenvalues --    7.17929   7.23406   7.26668   7.27566   7.28637
 Alpha virt. eigenvalues --    7.30751   7.32130   7.34663   7.37128   7.38354
 Alpha virt. eigenvalues --    7.41140   7.41774   7.46221   7.50425   7.51221
 Alpha virt. eigenvalues --    7.54199   7.55824   7.58131   7.61474   7.70039
 Alpha virt. eigenvalues --    7.73576   7.76224   7.80508   7.82267   7.88251
 Alpha virt. eigenvalues --    7.92261   7.95506   7.96267   7.97730   8.00768
 Alpha virt. eigenvalues --    8.09209  11.38419  11.42678  11.85627  12.23960
 Alpha virt. eigenvalues --   12.42288  12.68958  12.92183  13.13910  13.34516
 Alpha virt. eigenvalues --   13.60537  13.64454  13.82869  13.95939
          Condensed to atoms (all electrons):
              1          2          3          4          5          6
     1  C    4.764300   0.342136  -0.022967   0.329272   0.002482  -0.060917
     2  C    0.342136   4.811108   0.243036  -0.062780  -0.029664   0.021516
     3  C   -0.022967   0.243036   4.947994  -0.001336   0.251839  -0.061778
     4  C    0.329272  -0.062780  -0.001336   4.795521  -0.036845   0.329339
     5  O    0.002482  -0.029664   0.251839  -0.036845   8.083104   0.312777
     6  C   -0.060917   0.021516  -0.061778   0.329339   0.312777   4.528746
     7  O    0.001809  -0.003006   0.002366  -0.049271  -0.048065   0.321252
     8  C    0.000039  -0.000515  -0.000665   0.003209   0.003965  -0.044675
     9  O   -0.029001   0.288781  -0.029380   0.006156   0.001119  -0.000732
    10  O    0.295542  -0.029790   0.001309  -0.035383  -0.000133   0.006121
    11  O   -0.032621   0.001976   0.000231   0.300869   0.002173  -0.033537
    12  H    0.004826  -0.000859   0.000131  -0.025593   0.000026  -0.004370
    13  H   -0.003997  -0.036981   0.007231   0.000956  -0.000248  -0.000206
    14  H   -0.034632   0.006981  -0.001077  -0.005999  -0.000022   0.001125
    15  H    0.417597  -0.038241   0.005050  -0.036971   0.001169   0.000357
    16  H   -0.044986   0.421177  -0.042879   0.005181   0.003868   0.001414
    17  H   -0.009614  -0.020549   0.381793   0.000751  -0.035125  -0.000209
    18  H   -0.037897   0.007060   0.000211   0.429481   0.004783  -0.045724
    19  H    0.007976  -0.002419   0.006456  -0.039330  -0.031472   0.428646
    20  H    0.000008   0.000050   0.000045   0.000254   0.000168   0.005213
    21  H   -0.000306   0.000707  -0.001060  -0.000733   0.005893  -0.004836
    22  H    0.000195  -0.000076  -0.000049  -0.000597  -0.001335  -0.009186
    23  C    0.001606  -0.038839   0.372143  -0.000421  -0.040110  -0.001184
    24  O   -0.000312   0.002892  -0.042033   0.000047  -0.003482   0.000380
    25  H   -0.000123  -0.000197  -0.008597   0.000134   0.010154  -0.000017
    26  H   -0.000201   0.009293  -0.074838  -0.000169   0.000825  -0.000078
    27  H   -0.000339  -0.005434  -0.031269   0.000007   0.002896   0.000055
              7          8          9         10         11         12
     1  C    0.001809   0.000039  -0.029001   0.295542  -0.032621   0.004826
     2  C   -0.003006  -0.000515   0.288781  -0.029790   0.001976  -0.000859
     3  C    0.002366  -0.000665  -0.029380   0.001309   0.000231   0.000131
     4  C   -0.049271   0.003209   0.006156  -0.035383   0.300869  -0.025593
     5  O   -0.048065   0.003965   0.001119  -0.000133   0.002173   0.000026
     6  C    0.321252  -0.044675  -0.000732   0.006121  -0.033537  -0.004370
     7  O    7.981314   0.304987   0.000023   0.000008  -0.001030   0.000959
     8  C    0.304987   4.592536  -0.000010  -0.000001  -0.000225  -0.000065
     9  O    0.000023  -0.000010   7.888881  -0.002918  -0.000019   0.000009
    10  O    0.000008  -0.000001  -0.002918   7.899578  -0.002978  -0.000443
    11  O   -0.001030  -0.000225  -0.000019  -0.002978   7.875407   0.333759
    12  H    0.000959  -0.000065   0.000009  -0.000443   0.333759   0.476609
    13  H    0.000004  -0.000001   0.338343   0.009394  -0.000007   0.000002
    14  H   -0.000033   0.000002  -0.000358   0.343058   0.010793  -0.000889
    15  H    0.008184  -0.000209   0.004337  -0.037468   0.000223  -0.000097
    16  H   -0.000022  -0.000032  -0.035787   0.001829  -0.000045   0.000030
    17  H    0.007372  -0.003635   0.006438  -0.000015   0.000070   0.000015
    18  H    0.002863  -0.000192  -0.000037   0.003593  -0.037211  -0.008819
    19  H   -0.039226  -0.007423   0.000028  -0.000176   0.002283   0.001997
    20  H   -0.029990   0.416231   0.000000  -0.000001   0.000037  -0.000003
    21  H   -0.043744   0.405559  -0.000006   0.000000  -0.000011   0.000018
    22  H   -0.040131   0.418658   0.000000   0.000001  -0.000081  -0.000083
    23  C    0.000452   0.000124  -0.004040  -0.000016   0.000003  -0.000003
    24  O   -0.000016  -0.001253   0.000021   0.000000   0.000000   0.000000
    25  H    0.000105   0.000168  -0.000024   0.000000  -0.000001   0.000000
    26  H    0.000001  -0.000112   0.000264  -0.000010   0.000001   0.000000
    27  H    0.000019   0.000024   0.008093  -0.000004   0.000000   0.000000
             13         14         15         16         17         18
     1  C   -0.003997  -0.034632   0.417597  -0.044986  -0.009614  -0.037897
     2  C   -0.036981   0.006981  -0.038241   0.421177  -0.020549   0.007060
     3  C    0.007231  -0.001077   0.005050  -0.042879   0.381793   0.000211
     4  C    0.000956  -0.005999  -0.036971   0.005181   0.000751   0.429481
     5  O   -0.000248  -0.000022   0.001169   0.003868  -0.035125   0.004783
     6  C   -0.000206   0.001125   0.000357   0.001414  -0.000209  -0.045724
     7  O    0.000004  -0.000033   0.008184  -0.000022   0.007372   0.002863
     8  C   -0.000001   0.000002  -0.000209  -0.000032  -0.003635  -0.000192
     9  O    0.338343  -0.000358   0.004337  -0.035787   0.006438  -0.000037
    10  O    0.009394   0.343058  -0.037468   0.001829  -0.000015   0.003593
    11  O   -0.000007   0.010793   0.000223  -0.000045   0.000070  -0.037211
    12  H    0.000002  -0.000889  -0.000097   0.000030   0.000015  -0.008819
    13  H    0.445609  -0.000687  -0.000721  -0.003480  -0.000394  -0.000027
    14  H   -0.000687   0.443528  -0.004775  -0.000406  -0.000031  -0.000382
    15  H   -0.000721  -0.004775   0.557554   0.007371   0.001039   0.006675
    16  H   -0.003480  -0.000406   0.007371   0.596165   0.007451   0.002642
    17  H   -0.000394  -0.000031   0.001039   0.007451   0.569888   0.000230
    18  H   -0.000027  -0.000382   0.006675   0.002642   0.000230   0.586367
    19  H    0.000003  -0.000046   0.000304  -0.000159   0.000282  -0.007438
    20  H    0.000000   0.000000  -0.000094   0.000001  -0.000077   0.000015
    21  H    0.000001  -0.000001   0.000058   0.000002  -0.002070   0.000021
    22  H    0.000000   0.000001   0.000070  -0.000007   0.000324  -0.000050
    23  C    0.000375   0.000004   0.000066  -0.007632  -0.023423   0.000349
    24  O    0.000008   0.000000  -0.000010   0.000113   0.002694  -0.000004
    25  H    0.000003   0.000000  -0.000004  -0.000048  -0.000908  -0.000011
    26  H    0.000004  -0.000001  -0.000080   0.002960   0.008253   0.000091
    27  H   -0.000406   0.000002  -0.000010   0.000784  -0.001850  -0.000005
             19         20         21         22         23         24
     1  C    0.007976   0.000008  -0.000306   0.000195   0.001606  -0.000312
     2  C   -0.002419   0.000050   0.000707  -0.000076  -0.038839   0.002892
     3  C    0.006456   0.000045  -0.001060  -0.000049   0.372143  -0.042033
     4  C   -0.039330   0.000254  -0.000733  -0.000597  -0.000421   0.000047
     5  O   -0.031472   0.000168   0.005893  -0.001335  -0.040110  -0.003482
     6  C    0.428646   0.005213  -0.004836  -0.009186  -0.001184   0.000380
     7  O   -0.039226  -0.029990  -0.043744  -0.040131   0.000452  -0.000016
     8  C   -0.007423   0.416231   0.405559   0.418658   0.000124  -0.001253
     9  O    0.000028   0.000000  -0.000006   0.000000  -0.004040   0.000021
    10  O   -0.000176  -0.000001   0.000000   0.000001  -0.000016   0.000000
    11  O    0.002283   0.000037  -0.000011  -0.000081   0.000003   0.000000
    12  H    0.001997  -0.000003   0.000018  -0.000083  -0.000003   0.000000
    13  H    0.000003   0.000000   0.000001   0.000000   0.000375   0.000008
    14  H   -0.000046   0.000000  -0.000001   0.000001   0.000004   0.000000
    15  H    0.000304  -0.000094   0.000058   0.000070   0.000066  -0.000010
    16  H   -0.000159   0.000001   0.000002  -0.000007  -0.007632   0.000113
    17  H    0.000282  -0.000077  -0.002070   0.000324  -0.023423   0.002694
    18  H   -0.007438   0.000015   0.000021  -0.000050   0.000349  -0.000004
    19  H    0.587323  -0.000231  -0.002026   0.009477  -0.000131   0.000078
    20  H   -0.000231   0.555796  -0.032306  -0.030755  -0.000013   0.000001
    21  H   -0.002026  -0.032306   0.640694  -0.056424  -0.000079   0.004056
    22  H    0.009477  -0.030755  -0.056424   0.644248   0.000007  -0.000017
    23  C   -0.000131  -0.000013  -0.000079   0.000007   4.529624   0.325016
    24  O    0.000078   0.000001   0.004056  -0.000017   0.325016   7.877393
    25  H   -0.000052   0.000021  -0.000726   0.000044  -0.038216   0.336960
    26  H   -0.000044   0.000000   0.000223  -0.000007   0.440505  -0.045273
    27  H    0.000019   0.000001  -0.000099   0.000001   0.412720  -0.024953
             25         26         27
     1  C   -0.000123  -0.000201  -0.000339
     2  C   -0.000197   0.009293  -0.005434
     3  C   -0.008597  -0.074838  -0.031269
     4  C    0.000134  -0.000169   0.000007
     5  O    0.010154   0.000825   0.002896
     6  C   -0.000017  -0.000078   0.000055
     7  O    0.000105   0.000001   0.000019
     8  C    0.000168  -0.000112   0.000024
     9  O   -0.000024   0.000264   0.008093
    10  O    0.000000  -0.000010  -0.000004
    11  O   -0.000001   0.000001   0.000000
    12  H    0.000000   0.000000   0.000000
    13  H    0.000003   0.000004  -0.000406
    14  H    0.000000  -0.000001   0.000002
    15  H   -0.000004  -0.000080  -0.000010
    16  H   -0.000048   0.002960   0.000784
    17  H   -0.000908   0.008253  -0.001850
    18  H   -0.000011   0.000091  -0.000005
    19  H   -0.000052  -0.000044   0.000019
    20  H    0.000021   0.000000   0.000001
    21  H   -0.000726   0.000223  -0.000099
    22  H    0.000044  -0.000007   0.000001
    23  C   -0.038216   0.440505   0.412720
    24  O    0.336960  -0.045273  -0.024953
    25  H    0.467737  -0.007839   0.007533
    26  H   -0.007839   0.648742  -0.043340
    27  H    0.007533  -0.043340   0.562596
 Mulliken atomic charges:
              1
     1  C    0.110126
     2  C    0.112638
     3  C    0.098091
     4  C    0.094247
     5  O   -0.460741
     6  C    0.310508
     7  O   -0.377186
     8  C   -0.086490
     9  O   -0.440182
    10  O   -0.451098
    11  O   -0.420056
    12  H    0.222844
    13  H    0.245222
    14  H    0.243846
    15  H    0.108625
    16  H    0.084494
    17  H    0.111298
    18  H    0.093415
    19  H    0.085303
    20  H    0.115631
    21  H    0.087194
    22  H    0.065773
    23  C    0.071113
    24  O   -0.432309
    25  H    0.233902
    26  H    0.060829
    27  H    0.112962
 Sum of Mulliken atomic charges =   0.00000
 Mulliken charges with hydrogens summed into heavy atoms:
              1
     1  C    0.218750
     2  C    0.197132
     3  C    0.209389
     4  C    0.187662
     5  O   -0.460741
     6  C    0.395811
     7  O   -0.377186
     8  C    0.182108
     9  O   -0.194960
    10  O   -0.207252
    11  O   -0.197211
    23  C    0.244904
    24  O   -0.198407
 Sum of Mulliken charges with hydrogens summed into heavy atoms =   0.00000
 Electronic spatial extent (au):  <R**2>=           2503.0314
 Charge=              0.0000 electrons
 Dipole moment (field-independent basis, Debye):
    X=             -2.6169    Y=              2.5460    Z=             -2.1249  Tot=              4.2244
 Quadrupole moment (field-independent basis, Debye-Ang):
   XX=            -84.9096   YY=            -71.3399   ZZ=            -74.9819
   XY=              1.3468   XZ=              2.1005   YZ=             -2.0483
 Traceless Quadrupole moment (field-independent basis, Debye-Ang):
   XX=             -7.8324   YY=              5.7372   ZZ=              2.0952
   XY=              1.3468   XZ=              2.1005   YZ=             -2.0483
 Octapole moment (field-independent basis, Debye-Ang**2):
  XXX=            -72.4042  YYY=             22.8362  ZZZ=             -2.0409  XYY=              1.0604
  XXY=              7.3161  XXZ=            -13.4951  XZZ=             -7.7242  YZZ=              6.7901
  YYZ=             -1.7266  XYZ=             14.7044
 Hexadecapole moment (field-independent basis, Debye-Ang**3):
 XXXX=          -1634.9019 YYYY=          -1155.1299 ZZZZ=           -263.6861 XXXY=             13.6706
 XXXZ=             11.3582 YYYX=             18.7773 YYYZ=            -12.3019 ZZZX=              3.5251
 ZZZY=             -2.4762 XXYY=           -434.6549 XXZZ=           -271.1669 YYZZ=           -235.4763
 XXYZ=            -45.3261 YYXZ=              1.0461 ZZXY=             -2.2033
 N-N= 9.468374506693D+02 E-N=-3.596249395952D+03  KE= 7.214002376559D+02
 1\1\GINC-ROCK\SP\RMP2-FC\CC-pVTZ\C7H14O6\STYLIANAKIS\04-Dec-2017\0\\# 
 mp2/cc-pVTZ\\O-Me glycoside-a_single_point\\0,1\C\C,1,1.52718963\C,2,1
 .53200244,1,110.11652664\C,1,1.52733762,2,110.3153003,3,54.23439292,0\
 O,3,1.44647686,2,109.58106026,1,-54.90798578,0\C,5,1.4237626,3,114.848
 09342,2,60.44736647,0\O,6,1.39633664,5,113.24639217,3,60.50379587,0\C,
 7,1.42674063,6,114.55767419,5,67.58118323,0\O,2,1.42212856,1,111.30931
 75,4,174.11332198,0\O,1,1.42706249,2,106.94941725,9,-64.43854895,0\O,4
 ,1.42443482,1,106.84142731,10,62.03105266,0\H,11,0.96553395,4,110.0167
 4576,1,-165.0444887,0\H,9,0.96826471,2,107.35721281,1,49.73766363,0\H,
 10,0.96772351,1,107.66958686,2,-178.38619268,0\H,1,1.09833212,10,110.0
 5211018,2,-118.38459259,0\H,2,1.10208358,1,108.16244991,10,56.63949283
 ,0\H,3,1.09688048,2,109.36977534,1,64.98391196,0\H,4,1.09909079,1,108.
 47522204,10,-56.88662555,0\H,6,1.10123935,5,104.07449279,3,-179.484151
 37,0\H,8,1.09112227,7,106.43648244,6,173.9711828,0\H,8,1.09563217,7,11
 1.54061926,6,-66.6056415,0\H,8,1.09935122,7,110.71852713,6,55.28261566
 ,0\C,3,1.52353853,2,113.19693237,1,-172.83980636,0\O,23,1.42232091,3,1
 11.78874791,2,179.7106881,0\H,24,0.96740432,23,107.10437162,3,-56.8605
 5679,0\H,23,1.10074346,3,109.31034596,2,56.57653937,0\H,23,1.09168279,
 3,109.27129298,2,-62.05376644,0\\Version=EM64L-G09RevA.01\State=1-A\HF
 =-722.6400895\MP2=-725.2536355\RMSD=7.086e-09\PG=C01 [X(C7H14O6)]\\@


 ... IT IS NO ONE DREAME THAT
     CAN PLEASE THESE ALL ...

                -- BEN JONSON
 Job cpu time:  0 days  6 hours 56 minutes 11.1 seconds.
 File lengths (MBytes):  RWF=    185 Int=      0 D2E=      0 Chk=     16 Scr=      1
 Normal termination of Gaussian 09 at Mon Dec  4 21:06:55 2017.
