 Entering Gaussian System, Link 0=g09
 Input=propen_3_ol_skew_g_plus.gjf
 Output=propen_3_ol_skew_g_plus.out
 Initial command:
 /usr/local/g09/l1.exe /home/scratch/stylianakis/Gau-19912.inp -scrdir=/home/scratch/stylianakis/
 Entering Link 1 = /usr/local/g09/l1.exe PID=     19913.
  
 Copyright (c) 1988,1990,1992,1993,1995,1998,2003,2009, Gaussian, Inc.
                  All Rights Reserved.
  
 This is part of the Gaussian(R) 09 program.  It is based on
 the Gaussian(R) 03 system (copyright 2003, Gaussian, Inc.),
 the Gaussian(R) 98 system (copyright 1998, Gaussian, Inc.),
 the Gaussian(R) 94 system (copyright 1995, Gaussian, Inc.),
 the Gaussian 92(TM) system (copyright 1992, Gaussian, Inc.),
 the Gaussian 90(TM) system (copyright 1990, Gaussian, Inc.),
 the Gaussian 88(TM) system (copyright 1988, Gaussian, Inc.),
 the Gaussian 86(TM) system (copyright 1986, Carnegie Mellon
 University), and the Gaussian 82(TM) system (copyright 1983,
 Carnegie Mellon University). Gaussian is a federally registered
 trademark of Gaussian, Inc.
  
 This software contains proprietary and confidential information,
 including trade secrets, belonging to Gaussian, Inc.
  
 This software is provided under written license and may be
 used, copied, transmitted, or stored only in accord with that
 written license.
  
 The following legend is applicable only to US Government
 contracts under FAR:
  
                    RESTRICTED RIGHTS LEGEND
  
 Use, reproduction and disclosure by the US Government is
 subject to restrictions as set forth in subparagraphs (a)
 and (c) of the Commercial Computer Software - Restricted
 Rights clause in FAR 52.227-19.
  
 Gaussian, Inc.
 340 Quinnipiac St., Bldg. 40, Wallingford CT 06492
  
  
 ---------------------------------------------------------------
 Warning -- This program may not be used in any manner that
 competes with the business of Gaussian, Inc. or will provide
 assistance to any competitor of Gaussian, Inc.  The licensee
 of this program is prohibited from giving any competitor of
 Gaussian, Inc. access to this program.  By using this program,
 the user acknowledges that Gaussian, Inc. is engaged in the
 business of creating and licensing software in the field of
 computational chemistry and represents and warrants to the
 licensee that it is not a competitor of Gaussian, Inc. and that
 it will not use this program in any manner prohibited above.
 ---------------------------------------------------------------
  

 Cite this work as:
 Gaussian 09, Revision A.01,
 M. J. Frisch, G. W. Trucks, H. B. Schlegel, G. E. Scuseria, 
 M. A. Robb, J. R. Cheeseman, G. Scalmani, V. Barone, B. Mennucci, 
 G. A. Petersson, H. Nakatsuji, M. Caricato, X. Li, H. P. Hratchian, 
 A. F. Izmaylov, J. Bloino, G. Zheng, J. L. Sonnenberg, M. Hada, 
 M. Ehara, K. Toyota, R. Fukuda, J. Hasegawa, M. Ishida, T. Nakajima, 
 Y. Honda, O. Kitao, H. Nakai, T. Vreven, J. A. Montgomery, Jr., 
 J. E. Peralta, F. Ogliaro, M. Bearpark, J. J. Heyd, E. Brothers, 
 K. N. Kudin, V. N. Staroverov, R. Kobayashi, J. Normand, 
 K. Raghavachari, A. Rendell, J. C. Burant, S. S. Iyengar, J. Tomasi, 
 M. Cossi, N. Rega, J. M. Millam, M. Klene, J. E. Knox, J. B. Cross, 
 V. Bakken, C. Adamo, J. Jaramillo, R. Gomperts, R. E. Stratmann, 
 O. Yazyev, A. J. Austin, R. Cammi, C. Pomelli, J. W. Ochterski, 
 R. L. Martin, K. Morokuma, V. G. Zakrzewski, G. A. Voth, 
 P. Salvador, J. J. Dannenberg, S. Dapprich, A. D. Daniels, 
 O. Farkas, J. B. Foresman, J. V. Ortiz, J. Cioslowski, 
 and D. J. Fox, Gaussian, Inc., Wallingford CT, 2009.
 
 ******************************************
 Gaussian 09:  EM64L-G09RevA.01  8-May-2009
                 3-Mar-2016 
 ******************************************
 %mem=8000Mb
 %nproc=4
 Will use up to    4 processors via shared memory.
 -------------
 # mp2/cc-pVTZ
 -------------
 1/38=1/1;
 2/12=2,17=6,18=5,40=1/2;
 3/5=16,6=1,11=9,16=1,25=1,30=1/1,2,3;
 4//1;
 5/5=2,38=5/2;
 8/10=1/1;
 9/16=-3/6;
 6/7=2,8=2,9=2,10=2/1;
 99/5=1,9=1/99;
 ------------------------------------
 propen_3_ol_skew_g_plus_single_point
 ------------------------------------
 Symbolic Z-matrix:
 Charge =  0 Multiplicity = 1
 c
 c                    1    cc2
 c                    2    cc3      1    ccc3
 o                    3    oc4      2    occ4     1    dih4     0
 h                    1    hc5      2    hcc5     3    dih5     0
 h                    1    hc6      2    hcc6     3    dih6     0
 h                    2    hc7      3    hcc7     4    dih7     0
 h                    3    hc8      2    hcc8     1    dih8     0
 h                    3    hc9      2    hcc9     1    dih9     0
 h                    4    ho10     3    hoc10    2    dih10    0
       Variables:
  cc2                   1.33671                  
  cc3                   1.50323                  
  ccc3                124.179                    
  oc4                   1.43251                  
  occ4                112.279                    
  dih4               -122.973                    
  hc5                   1.08618                  
  hcc5                121.831                    
  dih5               -179.927                    
  hc6                   1.08833                  
  hcc6                121.473                    
  dih6                 -0.565                    
  hc7                   1.08994                  
  hcc7                115.63                     
  dih7                 56.186                    
  hc8                   1.09996                  
  hcc8                110.229                    
  dih8                  1.382                    
  hc9                   1.0954                   
  hcc9                110.611                    
  dih9                120.483                    
  ho10                  0.96687                  
  hoc10               108.256                    
  dih10                56.957                    
 
                          Input orientation:                          
 ---------------------------------------------------------------------
 Center     Atomic      Atomic             Coordinates (Angstroms)
 Number     Number       Type             X           Y           Z
 ---------------------------------------------------------------------
      1          6           0        0.000000    0.000000    0.000000
      2          6           0        0.000000    0.000000    1.336705
      3          6           0        1.243604    0.000000    2.181192
      4          8           0        1.287607   -1.112061    3.083123
      5          1           0       -0.922827    0.001176   -0.572869
      6          1           0        0.928177    0.009153   -0.568214
      7          1           0       -0.942035   -0.014424    1.884732
      8          1           0        2.137906    0.024893    1.541251
      9          1           0        1.270422    0.883567    2.828094
     10          1           0        1.218354   -1.925330    2.564824
 ---------------------------------------------------------------------
                    Distance matrix (angstroms):
                    1          2          3          4          5
     1  C    0.000000
     2  C    1.336705   0.000000
     3  C    2.510806   1.503233   0.000000
     4  O    3.521400   2.438153   1.432514   0.000000
     5  H    1.086181   2.120868   3.504037   4.414928   0.000000
     6  H    1.088331   2.119036   2.767455   3.836479   1.851027
     7  H    2.107095   1.089941   2.205701   2.759032   2.457725
     8  H    2.635662   2.147813   1.099963   2.095958   3.719966
     9  H    3.223783   2.149163   1.095396   2.011931   4.141920
    10  H    3.430685   2.588350   1.963341   0.966870   4.259248
                    6          7          8          9         10
     6  H    0.000000
     7  H    3.084671   0.000000
     8  H    2.431776   3.099284   0.000000
     9  H    3.523725   2.567350   1.773644   0.000000
    10  H    3.693556   2.963337   2.386765   2.821689   0.000000
 Stoichiometry    C3H6O
 Framework group  C1[X(C3H6O)]
 Deg. of freedom    24
 Full point group                 C1      NOp   1
 Largest Abelian subgroup         C1      NOp   1
 Largest concise Abelian subgroup C1      NOp   1
                         Standard orientation:                         
 ---------------------------------------------------------------------
 Center     Atomic      Atomic             Coordinates (Angstroms)
 Number     Number       Type             X           Y           Z
 ---------------------------------------------------------------------
      1          6           0       -1.808023    0.030618   -0.256030
      2          6           0       -0.665132   -0.297937    0.354406
      3          6           0        0.602947    0.503915    0.261039
      4          8           0        1.700354   -0.271286   -0.235810
      5          1           0       -2.703346   -0.577001   -0.161239
      6          1           0       -1.888834    0.928524   -0.865701
      7          1           0       -0.606212   -1.204922    0.955969
      8          1           0        0.441591    1.400294   -0.355717
      9          1           0        0.923963    0.834838    1.254684
     10          1           0        1.451259   -0.631017   -1.098007
 ---------------------------------------------------------------------
 Rotational constants (GHZ):     25.7158479      4.2809219      4.1852917
 Standard basis: CC-pVTZ (5D, 7F)
 There are   204 symmetry adapted basis functions of A   symmetry.
 Integral buffers will be    131072 words long.
 Raffenetti 1 integral format.
 Two-electron integral symmetry is turned on.
   204 basis functions,   310 primitive gaussians,   230 cartesian basis functions
    16 alpha electrons       16 beta electrons
       nuclear repulsion energy       116.2631285884 Hartrees.
 NAtoms=   10 NActive=   10 NUniq=   10 SFac= 7.50D-01 NAtFMM=   80 NAOKFM=F Big=F
 One-electron integrals computed using PRISM.
 NBasis=   204 RedAO= T  NBF=   204
 NBsUse=   204 1.00D-06 NBFU=   204
 Harris functional with IExCor=  205 diagonalized for initial guess.
 ExpMin= 1.03D-01 ExpMax= 1.53D+04 ExpMxC= 5.22D+02 IAcc=1 IRadAn=         1 AccDes= 0.00D+00
 HarFok:  IExCor=  205 AccDes= 0.00D+00 IRadAn=         1 IDoV= 1
 ScaDFX=  1.000000  1.000000  1.000000  1.000000
 FoFCou: FMM=F IPFlag=           0 FMFlag=      100000 FMFlg1=           0
         NFxFlg=           0 DoJE=T BraDBF=F KetDBF=T FulRan=T
         Omega=  0.000000  0.000000  1.000000  0.000000  0.000000 ICntrl=     500 IOpCl=  0
         NMat0=    1 NMatS0=    1 NMatT0=    0 NMatD0=    1 NMtDS0=    0 NMtDT0=    0
         I1Cent=           4 NGrid=           0.
 Petite list used in FoFCou.
 Initial guess orbital symmetries:
       Occupied  (A) (A) (A) (A) (A) (A) (A) (A) (A) (A) (A) (A)
                 (A) (A) (A) (A)
       Virtual   (A) (A) (A) (A) (A) (A) (A) (A) (A) (A) (A) (A)
                 (A) (A) (A) (A) (A) (A) (A) (A) (A) (A) (A) (A)
                 (A) (A) (A) (A) (A) (A) (A) (A) (A) (A) (A) (A)
                 (A) (A) (A) (A) (A) (A) (A) (A) (A) (A) (A) (A)
                 (A) (A) (A) (A) (A) (A) (A) (A) (A) (A) (A) (A)
                 (A) (A) (A) (A) (A) (A) (A) (A) (A) (A) (A) (A)
                 (A) (A) (A) (A) (A) (A) (A) (A) (A) (A) (A) (A)
                 (A) (A) (A) (A) (A) (A) (A) (A) (A) (A) (A) (A)
                 (A) (A) (A) (A) (A) (A) (A) (A) (A) (A) (A) (A)
                 (A) (A) (A) (A) (A) (A) (A) (A) (A) (A) (A) (A)
                 (A) (A) (A) (A) (A) (A) (A) (A) (A) (A) (A) (A)
                 (A) (A) (A) (A) (A) (A) (A) (A) (A) (A) (A) (A)
                 (A) (A) (A) (A) (A) (A) (A) (A) (A) (A) (A) (A)
                 (A) (A) (A) (A) (A) (A) (A) (A) (A) (A) (A) (A)
                 (A) (A) (A) (A) (A) (A) (A) (A) (A) (A) (A) (A)
                 (A) (A) (A) (A) (A) (A) (A) (A)
 The electronic state of the initial guess is 1-A.
 Requested convergence on RMS density matrix=1.00D-08 within 128 cycles.
 Requested convergence on MAX density matrix=1.00D-06.
 Requested convergence on             energy=1.00D-06.
 No special actions if energy rises.
 Keep R1 ints in memory in canonical form, NReq=359205895.
 SCF Done:  E(RHF) =  -191.996648050     A.U. after   12 cycles
             Convg  =    0.6121D-08             -V/T =  2.0018
 ExpMin= 1.03D-01 ExpMax= 1.53D+04 ExpMxC= 5.22D+02 IAcc=1 IRadAn=         1 AccDes= 0.00D+00
 HarFok:  IExCor=  205 AccDes= 0.00D+00 IRadAn=         1 IDoV=-2
 ScaDFX=  1.000000  1.000000  1.000000  1.000000
 Range of M.O.s used for correlation:     5   204
 NBasis=   204 NAE=    16 NBE=    16 NFC=     4 NFV=     0
 NROrb=    200 NOA=    12 NOB=    12 NVA=   188 NVB=   188

 **** Warning!!: The largest alpha MO coefficient is  0.11981882D+02

 Fully in-core method, ICMem=   737794109.
 JobTyp=1 Pass  1 fully in-core, NPsUse=  4.
 Spin components of T(2) and E(2):
     alpha-alpha T2 =       0.2680221296D-01 E2=     -0.8684287736D-01
     alpha-beta  T2 =       0.1657051213D+00 E2=     -0.5685760664D+00
     beta-beta   T2 =       0.2680221296D-01 E2=     -0.8684287736D-01
 ANorm=    0.1104223504D+01
 E2 =    -0.7422618212D+00 EUMP2 =    -0.19273890987091D+03

 **********************************************************************

            Population analysis using the SCF density.

 **********************************************************************

 Orbital symmetries:
       Occupied  (A) (A) (A) (A) (A) (A) (A) (A) (A) (A) (A) (A)
                 (A) (A) (A) (A)
       Virtual   (A) (A) (A) (A) (A) (A) (A) (A) (A) (A) (A) (A)
                 (A) (A) (A) (A) (A) (A) (A) (A) (A) (A) (A) (A)
                 (A) (A) (A) (A) (A) (A) (A) (A) (A) (A) (A) (A)
                 (A) (A) (A) (A) (A) (A) (A) (A) (A) (A) (A) (A)
                 (A) (A) (A) (A) (A) (A) (A) (A) (A) (A) (A) (A)
                 (A) (A) (A) (A) (A) (A) (A) (A) (A) (A) (A) (A)
                 (A) (A) (A) (A) (A) (A) (A) (A) (A) (A) (A) (A)
                 (A) (A) (A) (A) (A) (A) (A) (A) (A) (A) (A) (A)
                 (A) (A) (A) (A) (A) (A) (A) (A) (A) (A) (A) (A)
                 (A) (A) (A) (A) (A) (A) (A) (A) (A) (A) (A) (A)
                 (A) (A) (A) (A) (A) (A) (A) (A) (A) (A) (A) (A)
                 (A) (A) (A) (A) (A) (A) (A) (A) (A) (A) (A) (A)
                 (A) (A) (A) (A) (A) (A) (A) (A) (A) (A) (A) (A)
                 (A) (A) (A) (A) (A) (A) (A) (A) (A) (A) (A) (A)
                 (A) (A) (A) (A) (A) (A) (A) (A) (A) (A) (A) (A)
                 (A) (A) (A) (A) (A) (A) (A) (A)
 The electronic state is 1-A.
 Alpha  occ. eigenvalues --  -20.55472 -11.28250 -11.23980 -11.23463  -1.35389
 Alpha  occ. eigenvalues --   -1.06295  -0.91942  -0.77532  -0.69654  -0.62111
 Alpha  occ. eigenvalues --   -0.61286  -0.59989  -0.53082  -0.49330  -0.45139
 Alpha  occ. eigenvalues --   -0.37575
 Alpha virt. eigenvalues --    0.13829   0.15237   0.17166   0.18090   0.18575
 Alpha virt. eigenvalues --    0.22474   0.24127   0.30576   0.32032   0.40699
 Alpha virt. eigenvalues --    0.41413   0.44799   0.47432   0.48472   0.52052
 Alpha virt. eigenvalues --    0.55566   0.57093   0.57335   0.59895   0.60571
 Alpha virt. eigenvalues --    0.62199   0.62878   0.65245   0.67107   0.70085
 Alpha virt. eigenvalues --    0.72424   0.75535   0.81193   0.82156   0.83132
 Alpha virt. eigenvalues --    0.84368   0.87385   0.90781   0.92248   0.95816
 Alpha virt. eigenvalues --    0.97871   1.08554   1.09612   1.12475   1.15251
 Alpha virt. eigenvalues --    1.20382   1.23110   1.25151   1.26806   1.29306
 Alpha virt. eigenvalues --    1.30914   1.31823   1.36521   1.37283   1.41414
 Alpha virt. eigenvalues --    1.42020   1.46802   1.49269   1.51895   1.54905
 Alpha virt. eigenvalues --    1.56334   1.59174   1.64638   1.67924   1.69837
 Alpha virt. eigenvalues --    1.72126   1.74699   1.78871   1.89138   2.04788
 Alpha virt. eigenvalues --    2.15302   2.20262   2.20908   2.33617   2.39551
 Alpha virt. eigenvalues --    2.41327   2.44395   2.53975   2.59184   2.61989
 Alpha virt. eigenvalues --    2.65296   2.67570   2.71272   2.78835   2.83261
 Alpha virt. eigenvalues --    2.86691   2.94875   2.98025   3.02137   3.03342
 Alpha virt. eigenvalues --    3.05949   3.07926   3.13039   3.17069   3.19029
 Alpha virt. eigenvalues --    3.19676   3.20714   3.22656   3.25351   3.27191
 Alpha virt. eigenvalues --    3.28855   3.32776   3.34047   3.37663   3.38845
 Alpha virt. eigenvalues --    3.40283   3.44831   3.46501   3.52061   3.52596
 Alpha virt. eigenvalues --    3.57113   3.58623   3.59464   3.65087   3.67806
 Alpha virt. eigenvalues --    3.70682   3.74366   3.76542   3.79835   3.83716
 Alpha virt. eigenvalues --    3.89230   3.91068   3.92347   3.94517   3.97401
 Alpha virt. eigenvalues --    3.99551   4.03519   4.04438   4.11461   4.13931
 Alpha virt. eigenvalues --    4.15273   4.18054   4.19272   4.21526   4.25054
 Alpha virt. eigenvalues --    4.26907   4.29295   4.31487   4.33470   4.35849
 Alpha virt. eigenvalues --    4.40216   4.43799   4.48473   4.52321   4.54174
 Alpha virt. eigenvalues --    4.56061   4.57646   4.67261   4.67789   4.71505
 Alpha virt. eigenvalues --    4.78001   4.81847   4.87369   4.95741   4.98562
 Alpha virt. eigenvalues --    5.08260   5.10064   5.13000   5.15210   5.22473
 Alpha virt. eigenvalues --    5.25842   5.27400   5.31863   5.33453   5.44331
 Alpha virt. eigenvalues --    5.45478   5.50703   5.55199   5.60905   5.72767
 Alpha virt. eigenvalues --    5.74787   5.78154   5.95653   5.96256   6.12924
 Alpha virt. eigenvalues --    6.20077   6.28983   6.35795   6.38773   6.61787
 Alpha virt. eigenvalues --    6.64295   6.98224   7.12572   7.16992   7.25339
 Alpha virt. eigenvalues --    7.36008   7.42724   7.65671   7.92530  11.38849
 Alpha virt. eigenvalues --   12.27888  13.23829  14.59335
          Condensed to atoms (all electrons):
              1          2          3          4          5          6
     1  C    4.978280   0.598011  -0.052846   0.004010   0.423735   0.413580
     2  C    0.598011   5.044034   0.372932  -0.049574  -0.045669  -0.051793
     3  C   -0.052846   0.372932   4.468895   0.317857   0.004098  -0.002382
     4  O    0.004010  -0.049574   0.317857   7.891102  -0.000200   0.000117
     5  H    0.423735  -0.045669   0.004098  -0.000200   0.506982  -0.030225
     6  H    0.413580  -0.051793  -0.002382   0.000117  -0.030225   0.523605
     7  H   -0.041082   0.409175  -0.025885   0.002333  -0.004758   0.004767
     8  H    0.005416  -0.066132   0.434700  -0.041168   0.000083   0.002863
     9  H    0.001155  -0.043939   0.414701  -0.034189  -0.000345   0.000127
    10  H    0.002341  -0.001214  -0.038492   0.328925  -0.000057   0.000001
              7          8          9         10
     1  C   -0.041082   0.005416   0.001155   0.002341
     2  C    0.409175  -0.066132  -0.043939  -0.001214
     3  C   -0.025885   0.434700   0.414701  -0.038492
     4  O    0.002333  -0.041168  -0.034189   0.328925
     5  H   -0.004758   0.000083  -0.000345  -0.000057
     6  H    0.004767   0.002863   0.000127   0.000001
     7  H    0.494642   0.006158  -0.005276  -0.000768
     8  H    0.006158   0.656253  -0.053445  -0.007031
     9  H   -0.005276  -0.053445   0.629728   0.009661
    10  H   -0.000768  -0.007031   0.009661   0.485931
 Mulliken atomic charges:
              1
     1  C   -0.332600
     2  C   -0.165831
     3  C    0.106423
     4  O   -0.419213
     5  H    0.146356
     6  H    0.139341
     7  H    0.160694
     8  H    0.062303
     9  H    0.081822
    10  H    0.220704
 Sum of Mulliken atomic charges =   0.00000
 Mulliken charges with hydrogens summed into heavy atoms:
              1
     1  C   -0.046904
     2  C   -0.005137
     3  C    0.250548
     4  O   -0.198508
 Sum of Mulliken charges with hydrogens summed into heavy atoms =   0.00000
 Electronic spatial extent (au):  <R**2>=            331.8613
 Charge=              0.0000 electrons
 Dipole moment (field-independent basis, Debye):
    X=             -1.5038    Y=              0.2182    Z=             -0.7109  Tot=              1.6776
 Quadrupole moment (field-independent basis, Debye-Ang):
   XX=            -28.9690   YY=            -24.4110   ZZ=            -23.4891
   XY=              0.6721   XZ=             -0.2872   YZ=             -0.0289
 Traceless Quadrupole moment (field-independent basis, Debye-Ang):
   XX=             -3.3460   YY=              1.2120   ZZ=              2.1339
   XY=              0.6721   XZ=             -0.2872   YZ=             -0.0289
 Octapole moment (field-independent basis, Debye-Ang**2):
  XXX=             -6.6453  YYY=             -0.9899  ZZZ=             -3.1731  XYY=              2.7535
  XXY=             -1.3025  XXZ=             -3.7373  XZZ=              7.7600  YZZ=             -1.3735
  YYZ=             -1.0281  XYZ=              3.9331
 Hexadecapole moment (field-independent basis, Debye-Ang**3):
 XXXX=           -321.2010 YYYY=            -62.3727 ZZZZ=            -51.0069 XXXY=              4.5587
 XXXZ=              0.9466 YYYX=             -2.1259 YYYZ=             -1.8749 ZZZX=             -4.6847
 ZZZY=              1.6931 XXYY=            -60.9514 XXZZ=            -58.8114 YYZZ=            -17.0830
 XXYZ=              1.0188 YYXZ=             -1.7649 ZZXY=             -3.1579
 N-N= 1.162631285884D+02 E-N=-6.825679750373D+02  KE= 1.916581817279D+02
 1\1\GINC-ROCK\SP\RMP2-FC\CC-pVTZ\C3H6O1\STYLIANAKIS\03-Mar-2016\0\\# m
 p2/cc-pVTZ\\propen_3_ol_skew_g_plus_single_point\\0,1\C\C,1,1.336705\C
 ,2,1.503233,1,124.179\O,3,1.432514,2,112.279,1,-122.973,0\H,1,1.086181
 ,2,121.831,3,-179.927,0\H,1,1.088331,2,121.473,3,-0.565,0\H,2,1.089941
 ,3,115.63,4,56.186,0\H,3,1.099963,2,110.229,1,1.382,0\H,3,1.095396,2,1
 10.611,1,120.483,0\H,4,0.96687,3,108.256,2,56.957,0\\Version=EM64L-G09
 RevA.01\State=1-A\HF=-191.996648\MP2=-192.7389099\RMSD=6.121e-09\PG=C0
 1 [X(C3H6O1)]\\@


 KNOWLEDGE IS CHIMERA - FOR BEYOND IT LIES OTHER KNOWLEDGE,
 AND THE INCOMPLETENESS OF WHAT IS KNOWN RENDERS THE KNOWING FALSE.
     -- THE THOMAS COVENANT CHRONICLES
 Job cpu time:  0 days  0 hours  4 minutes 30.6 seconds.
 File lengths (MBytes):  RWF=     20 Int=      0 D2E=      0 Chk=      3 Scr=      1
 Normal termination of Gaussian 09 at Thu Mar  3 22:26:39 2016.
