 Entering Gaussian System, Link 0=g09
 Input=propen_3_ol_syn_a.gjf
 Output=propen_3_ol_syn_a.out
 Initial command:
 /usr/local/g09/l1.exe /home/scratch/stylianakis/Gau-19952.inp -scrdir=/home/scratch/stylianakis/
 Entering Link 1 = /usr/local/g09/l1.exe PID=     19953.
  
 Copyright (c) 1988,1990,1992,1993,1995,1998,2003,2009, Gaussian, Inc.
                  All Rights Reserved.
  
 This is part of the Gaussian(R) 09 program.  It is based on
 the Gaussian(R) 03 system (copyright 2003, Gaussian, Inc.),
 the Gaussian(R) 98 system (copyright 1998, Gaussian, Inc.),
 the Gaussian(R) 94 system (copyright 1995, Gaussian, Inc.),
 the Gaussian 92(TM) system (copyright 1992, Gaussian, Inc.),
 the Gaussian 90(TM) system (copyright 1990, Gaussian, Inc.),
 the Gaussian 88(TM) system (copyright 1988, Gaussian, Inc.),
 the Gaussian 86(TM) system (copyright 1986, Carnegie Mellon
 University), and the Gaussian 82(TM) system (copyright 1983,
 Carnegie Mellon University). Gaussian is a federally registered
 trademark of Gaussian, Inc.
  
 This software contains proprietary and confidential information,
 including trade secrets, belonging to Gaussian, Inc.
  
 This software is provided under written license and may be
 used, copied, transmitted, or stored only in accord with that
 written license.
  
 The following legend is applicable only to US Government
 contracts under FAR:
  
                    RESTRICTED RIGHTS LEGEND
  
 Use, reproduction and disclosure by the US Government is
 subject to restrictions as set forth in subparagraphs (a)
 and (c) of the Commercial Computer Software - Restricted
 Rights clause in FAR 52.227-19.
  
 Gaussian, Inc.
 340 Quinnipiac St., Bldg. 40, Wallingford CT 06492
  
  
 ---------------------------------------------------------------
 Warning -- This program may not be used in any manner that
 competes with the business of Gaussian, Inc. or will provide
 assistance to any competitor of Gaussian, Inc.  The licensee
 of this program is prohibited from giving any competitor of
 Gaussian, Inc. access to this program.  By using this program,
 the user acknowledges that Gaussian, Inc. is engaged in the
 business of creating and licensing software in the field of
 computational chemistry and represents and warrants to the
 licensee that it is not a competitor of Gaussian, Inc. and that
 it will not use this program in any manner prohibited above.
 ---------------------------------------------------------------
  

 Cite this work as:
 Gaussian 09, Revision A.01,
 M. J. Frisch, G. W. Trucks, H. B. Schlegel, G. E. Scuseria, 
 M. A. Robb, J. R. Cheeseman, G. Scalmani, V. Barone, B. Mennucci, 
 G. A. Petersson, H. Nakatsuji, M. Caricato, X. Li, H. P. Hratchian, 
 A. F. Izmaylov, J. Bloino, G. Zheng, J. L. Sonnenberg, M. Hada, 
 M. Ehara, K. Toyota, R. Fukuda, J. Hasegawa, M. Ishida, T. Nakajima, 
 Y. Honda, O. Kitao, H. Nakai, T. Vreven, J. A. Montgomery, Jr., 
 J. E. Peralta, F. Ogliaro, M. Bearpark, J. J. Heyd, E. Brothers, 
 K. N. Kudin, V. N. Staroverov, R. Kobayashi, J. Normand, 
 K. Raghavachari, A. Rendell, J. C. Burant, S. S. Iyengar, J. Tomasi, 
 M. Cossi, N. Rega, J. M. Millam, M. Klene, J. E. Knox, J. B. Cross, 
 V. Bakken, C. Adamo, J. Jaramillo, R. Gomperts, R. E. Stratmann, 
 O. Yazyev, A. J. Austin, R. Cammi, C. Pomelli, J. W. Ochterski, 
 R. L. Martin, K. Morokuma, V. G. Zakrzewski, G. A. Voth, 
 P. Salvador, J. J. Dannenberg, S. Dapprich, A. D. Daniels, 
 O. Farkas, J. B. Foresman, J. V. Ortiz, J. Cioslowski, 
 and D. J. Fox, Gaussian, Inc., Wallingford CT, 2009.
 
 ******************************************
 Gaussian 09:  EM64L-G09RevA.01  8-May-2009
                 3-Mar-2016 
 ******************************************
 %mem=8000Mb
 %nproc=4
 Will use up to    4 processors via shared memory.
 -------------
 # mp2/cc-pVTZ
 -------------
 1/38=1/1;
 2/12=2,17=6,18=5,40=1/2;
 3/5=16,6=1,11=9,16=1,25=1,30=1/1,2,3;
 4//1;
 5/5=2,38=5/2;
 8/10=1/1;
 9/16=-3/6;
 6/7=2,8=2,9=2,10=2/1;
 99/5=1,9=1/99;
 ------------------------------
 propen_3_ol_syn_a_single_point
 ------------------------------
 Symbolic Z-matrix:
 Charge =  0 Multiplicity = 1
 c
 c                    1    cc2
 c                    2    cc3      1    ccc3
 o                    3    oc4      2    occ4     1    dih4     0
 h                    1    hc5      2    hcc5     3    dih5     0
 h                    1    hc6      2    hcc6     3    dih6     0
 h                    2    hc7      3    hcc7     4    dih7     0
 h                    3    hc8      2    hcc8     1    dih8     0
 h                    3    hc9      2    hcc9     1    dih9     0
 h                    4    ho10     3    hoc10    2    dih10    0
       Variables:
  cc2                   1.33449                  
  cc3                   1.50049                  
  ccc3                125.384                    
  oc4                   1.42331                  
  occ4                110.418                    
  dih4                  0.006                    
  hc5                   1.0858                   
  hcc5                120.997                    
  dih5                179.999                    
  hc6                   1.085                    
  hcc6                121.212                    
  dih6                 -0.001                    
  hc7                   1.08995                  
  hcc7                114.38                     
  dih7               -179.995                    
  hc8                   1.10295                  
  hcc8                108.974                    
  dih8                121.855                    
  hc9                   1.10295                  
  hcc9                108.974                    
  dih9               -121.843                    
  ho10                  0.96467                  
  hoc10               108.973                    
  dih10              -179.991                    
 
                          Input orientation:                          
 ---------------------------------------------------------------------
 Center     Atomic      Atomic             Coordinates (Angstroms)
 Number     Number       Type             X           Y           Z
 ---------------------------------------------------------------------
      1          6           0        0.000000    0.000000    0.000000
      2          6           0        0.000000    0.000000    1.334493
      3          6           0        1.223332    0.000000    2.203356
      4          8           0        2.400554    0.000140    1.403377
      5          1           0       -0.930745   -0.000016   -0.559182
      6          1           0        0.927957    0.000016   -0.562256
      7          1           0       -0.941675   -0.000017    1.883353
      8          1           0        1.196949    0.885928    2.859809
      9          1           0        1.197056   -0.886044    2.859658
     10          1           0        3.172706   -0.000006    1.981630
 ---------------------------------------------------------------------
                    Distance matrix (angstroms):
                    1          2          3          4          5
     1  C    0.000000
     2  C    1.334493   0.000000
     3  C    2.520182   1.500488   0.000000
     4  O    2.780670   2.401542   1.423312   0.000000
     5  H    1.085804   2.110045   3.503093   3.866418   0.000000
     6  H    1.085005   2.111578   2.781341   2.456065   1.858704
     7  H    2.105652   1.089954   2.188529   3.376518   2.442560
     8  H    3.224292   2.131700   1.102948   2.086739   4.123284
     9  H    3.224230   2.131700   1.102949   2.086739   4.123233
    10  H    3.740711   3.238032   1.961943   0.964674   4.826389
                    6          7          8          9         10
     6  H    0.000000
     7  H    3.078397   0.000000
     8  H    3.545099   2.512385   0.000000
     9  H    3.544999   2.512446   1.771971   0.000000
    10  H    3.392677   4.115555   2.336598   2.336490   0.000000
 Stoichiometry    C3H6O
 Framework group  C1[X(C3H6O)]
 Deg. of freedom    24
 Full point group                 C1      NOp   1
 Largest Abelian subgroup         C1      NOp   1
 Largest concise Abelian subgroup C1      NOp   1
                         Standard orientation:                         
 ---------------------------------------------------------------------
 Center     Atomic      Atomic             Coordinates (Angstroms)
 Number     Number       Type             X           Y           Z
 ---------------------------------------------------------------------
      1          6           0       -1.516827   -0.531791    0.000014
      2          6           0       -0.782545    0.582526   -0.000018
      3          6           0        0.717028    0.634917    0.000020
      4          8           0        1.259846   -0.680820   -0.000043
      5          1           0       -2.601690   -0.486586    0.000000
      6          1           0       -1.051346   -1.511873    0.000057
      7          1           0       -1.266852    1.558971   -0.000060
      8          1           0        1.056224    1.197538   -0.885925
      9          1           0        1.056183    1.197436    0.886047
     10          1           0        2.222776   -0.622837    0.000126
 ---------------------------------------------------------------------
 Rotational constants (GHZ):     17.1485609      5.9495569      4.5427262
 Standard basis: CC-pVTZ (5D, 7F)
 There are   204 symmetry adapted basis functions of A   symmetry.
 Integral buffers will be    131072 words long.
 Raffenetti 1 integral format.
 Two-electron integral symmetry is turned on.
   204 basis functions,   310 primitive gaussians,   230 cartesian basis functions
    16 alpha electrons       16 beta electrons
       nuclear repulsion energy       118.3337735665 Hartrees.
 NAtoms=   10 NActive=   10 NUniq=   10 SFac= 7.50D-01 NAtFMM=   80 NAOKFM=F Big=F
 One-electron integrals computed using PRISM.
 NBasis=   204 RedAO= T  NBF=   204
 NBsUse=   204 1.00D-06 NBFU=   204
 Harris functional with IExCor=  205 diagonalized for initial guess.
 ExpMin= 1.03D-01 ExpMax= 1.53D+04 ExpMxC= 5.22D+02 IAcc=1 IRadAn=         1 AccDes= 0.00D+00
 HarFok:  IExCor=  205 AccDes= 0.00D+00 IRadAn=         1 IDoV= 1
 ScaDFX=  1.000000  1.000000  1.000000  1.000000
 FoFCou: FMM=F IPFlag=           0 FMFlag=      100000 FMFlg1=           0
         NFxFlg=           0 DoJE=T BraDBF=F KetDBF=T FulRan=T
         Omega=  0.000000  0.000000  1.000000  0.000000  0.000000 ICntrl=     500 IOpCl=  0
         NMat0=    1 NMatS0=    1 NMatT0=    0 NMatD0=    1 NMtDS0=    0 NMtDT0=    0
         I1Cent=           4 NGrid=           0.
 Petite list used in FoFCou.
 Initial guess orbital symmetries:
       Occupied  (A) (A) (A) (A) (A) (A) (A) (A) (A) (A) (A) (A)
                 (A) (A) (A) (A)
       Virtual   (A) (A) (A) (A) (A) (A) (A) (A) (A) (A) (A) (A)
                 (A) (A) (A) (A) (A) (A) (A) (A) (A) (A) (A) (A)
                 (A) (A) (A) (A) (A) (A) (A) (A) (A) (A) (A) (A)
                 (A) (A) (A) (A) (A) (A) (A) (A) (A) (A) (A) (A)
                 (A) (A) (A) (A) (A) (A) (A) (A) (A) (A) (A) (A)
                 (A) (A) (A) (A) (A) (A) (A) (A) (A) (A) (A) (A)
                 (A) (A) (A) (A) (A) (A) (A) (A) (A) (A) (A) (A)
                 (A) (A) (A) (A) (A) (A) (A) (A) (A) (A) (A) (A)
                 (A) (A) (A) (A) (A) (A) (A) (A) (A) (A) (A) (A)
                 (A) (A) (A) (A) (A) (A) (A) (A) (A) (A) (A) (A)
                 (A) (A) (A) (A) (A) (A) (A) (A) (A) (A) (A) (A)
                 (A) (A) (A) (A) (A) (A) (A) (A) (A) (A) (A) (A)
                 (A) (A) (A) (A) (A) (A) (A) (A) (A) (A) (A) (A)
                 (A) (A) (A) (A) (A) (A) (A) (A) (A) (A) (A) (A)
                 (A) (A) (A) (A) (A) (A) (A) (A) (A) (A) (A) (A)
                 (A) (A) (A) (A) (A) (A) (A) (A)
 The electronic state of the initial guess is 1-A.
 Requested convergence on RMS density matrix=1.00D-08 within 128 cycles.
 Requested convergence on MAX density matrix=1.00D-06.
 Requested convergence on             energy=1.00D-06.
 No special actions if energy rises.
 Keep R1 ints in memory in canonical form, NReq=359205895.
 SCF Done:  E(RHF) =  -191.995499364     A.U. after   12 cycles
             Convg  =    0.4374D-08             -V/T =  2.0017
 ExpMin= 1.03D-01 ExpMax= 1.53D+04 ExpMxC= 5.22D+02 IAcc=1 IRadAn=         1 AccDes= 0.00D+00
 HarFok:  IExCor=  205 AccDes= 0.00D+00 IRadAn=         1 IDoV=-2
 ScaDFX=  1.000000  1.000000  1.000000  1.000000
 Range of M.O.s used for correlation:     5   204
 NBasis=   204 NAE=    16 NBE=    16 NFC=     4 NFV=     0
 NROrb=    200 NOA=    12 NOB=    12 NVA=   188 NVB=   188

 **** Warning!!: The largest alpha MO coefficient is  0.11275559D+02

 Fully in-core method, ICMem=   737794109.
 JobTyp=1 Pass  1 fully in-core, NPsUse=  4.
 Spin components of T(2) and E(2):
     alpha-alpha T2 =       0.2671273798D-01 E2=     -0.8687635330D-01
     alpha-beta  T2 =       0.1652590117D+00 E2=     -0.5683566328D+00
     beta-beta   T2 =       0.2671273798D-01 E2=     -0.8687635330D-01
 ANorm=    0.1103940437D+01
 E2 =    -0.7421093394D+00 EUMP2 =    -0.19273760870330D+03

 **********************************************************************

            Population analysis using the SCF density.

 **********************************************************************

 Orbital symmetries:
       Occupied  (A) (A) (A) (A) (A) (A) (A) (A) (A) (A) (A) (A)
                 (A) (A) (A) (A)
       Virtual   (A) (A) (A) (A) (A) (A) (A) (A) (A) (A) (A) (A)
                 (A) (A) (A) (A) (A) (A) (A) (A) (A) (A) (A) (A)
                 (A) (A) (A) (A) (A) (A) (A) (A) (A) (A) (A) (A)
                 (A) (A) (A) (A) (A) (A) (A) (A) (A) (A) (A) (A)
                 (A) (A) (A) (A) (A) (A) (A) (A) (A) (A) (A) (A)
                 (A) (A) (A) (A) (A) (A) (A) (A) (A) (A) (A) (A)
                 (A) (A) (A) (A) (A) (A) (A) (A) (A) (A) (A) (A)
                 (A) (A) (A) (A) (A) (A) (A) (A) (A) (A) (A) (A)
                 (A) (A) (A) (A) (A) (A) (A) (A) (A) (A) (A) (A)
                 (A) (A) (A) (A) (A) (A) (A) (A) (A) (A) (A) (A)
                 (A) (A) (A) (A) (A) (A) (A) (A) (A) (A) (A) (A)
                 (A) (A) (A) (A) (A) (A) (A) (A) (A) (A) (A) (A)
                 (A) (A) (A) (A) (A) (A) (A) (A) (A) (A) (A) (A)
                 (A) (A) (A) (A) (A) (A) (A) (A) (A) (A) (A) (A)
                 (A) (A) (A) (A) (A) (A) (A) (A) (A) (A) (A) (A)
                 (A) (A) (A) (A) (A) (A) (A) (A)
 The electronic state is 1-A.
 Alpha  occ. eigenvalues --  -20.55716 -11.28486 -11.23084 -11.21548  -1.35932
 Alpha  occ. eigenvalues --   -1.05237  -0.92032  -0.75112  -0.70469  -0.63163
 Alpha  occ. eigenvalues --   -0.61104  -0.59006  -0.51482  -0.48956  -0.45932
 Alpha  occ. eigenvalues --   -0.35657
 Alpha virt. eigenvalues --    0.13426   0.16561   0.17188   0.18497   0.21224
 Alpha virt. eigenvalues --    0.21362   0.23713   0.31004   0.33701   0.37873
 Alpha virt. eigenvalues --    0.42389   0.45915   0.48243   0.49271   0.52934
 Alpha virt. eigenvalues --    0.54634   0.58834   0.59479   0.59990   0.61443
 Alpha virt. eigenvalues --    0.61482   0.64316   0.66581   0.67973   0.72700
 Alpha virt. eigenvalues --    0.74373   0.76899   0.80415   0.81893   0.82814
 Alpha virt. eigenvalues --    0.84820   0.87725   0.91010   0.92221   0.94430
 Alpha virt. eigenvalues --    0.99119   1.09498   1.10993   1.17298   1.17835
 Alpha virt. eigenvalues --    1.18253   1.23064   1.24618   1.26457   1.28735
 Alpha virt. eigenvalues --    1.29966   1.33667   1.36438   1.38680   1.41543
 Alpha virt. eigenvalues --    1.44765   1.46291   1.49656   1.51408   1.53897
 Alpha virt. eigenvalues --    1.56348   1.59580   1.64703   1.67182   1.68786
 Alpha virt. eigenvalues --    1.74348   1.78342   1.84174   1.90043   2.09590
 Alpha virt. eigenvalues --    2.10186   2.25021   2.29545   2.38164   2.39646
 Alpha virt. eigenvalues --    2.41209   2.48379   2.56884   2.57964   2.59240
 Alpha virt. eigenvalues --    2.61163   2.69110   2.74117   2.81627   2.81933
 Alpha virt. eigenvalues --    2.85955   2.93575   2.95091   3.04109   3.05159
 Alpha virt. eigenvalues --    3.08953   3.09080   3.15128   3.17901   3.19493
 Alpha virt. eigenvalues --    3.22447   3.22954   3.23893   3.25717   3.27422
 Alpha virt. eigenvalues --    3.29765   3.32294   3.34929   3.39095   3.42872
 Alpha virt. eigenvalues --    3.43959   3.45320   3.45532   3.49867   3.52652
 Alpha virt. eigenvalues --    3.54741   3.56417   3.66271   3.66863   3.70409
 Alpha virt. eigenvalues --    3.71038   3.71386   3.76013   3.82949   3.83579
 Alpha virt. eigenvalues --    3.86623   3.90344   3.92513   3.94544   3.97355
 Alpha virt. eigenvalues --    3.99522   4.02855   4.03485   4.07930   4.16316
 Alpha virt. eigenvalues --    4.16856   4.17743   4.19358   4.19565   4.25646
 Alpha virt. eigenvalues --    4.26956   4.28056   4.32727   4.34849   4.41480
 Alpha virt. eigenvalues --    4.42635   4.43984   4.46904   4.49934   4.51846
 Alpha virt. eigenvalues --    4.57419   4.65138   4.65216   4.75011   4.79340
 Alpha virt. eigenvalues --    4.79803   4.84988   4.88610   4.96294   5.05551
 Alpha virt. eigenvalues --    5.06846   5.10177   5.11006   5.12827   5.25334
 Alpha virt. eigenvalues --    5.26475   5.28829   5.35360   5.36236   5.38309
 Alpha virt. eigenvalues --    5.42265   5.50859   5.57796   5.58145   5.67323
 Alpha virt. eigenvalues --    5.77307   5.80781   5.95681   6.00815   6.22898
 Alpha virt. eigenvalues --    6.25752   6.27615   6.32061   6.40353   6.56973
 Alpha virt. eigenvalues --    6.69759   6.98287   7.12271   7.17372   7.27044
 Alpha virt. eigenvalues --    7.38549   7.47220   7.65152   7.93197  11.52522
 Alpha virt. eigenvalues --   12.52428  13.38901  14.63628
          Condensed to atoms (all electrons):
              1          2          3          4          5          6
     1  C    4.950953   0.613779  -0.053346   0.009607   0.429975   0.413032
     2  C    0.613779   5.058087   0.330975  -0.060205  -0.056266  -0.040744
     3  C   -0.053346   0.330975   4.472320   0.326169   0.005474  -0.005673
     4  O    0.009607  -0.060205   0.326169   7.866639   0.000230   0.009679
     5  H    0.429975  -0.056266   0.005474   0.000230   0.521122  -0.031101
     6  H    0.413032  -0.040744  -0.005673   0.009679  -0.031101   0.493399
     7  H   -0.038405   0.417501  -0.037250   0.002418  -0.006652   0.004708
     8  H    0.002266  -0.053352   0.430768  -0.042677  -0.000142   0.000493
     9  H    0.002262  -0.053340   0.430764  -0.042680  -0.000142   0.000493
    10  H   -0.001419   0.011027  -0.028167   0.329084   0.000008  -0.001043
              7          8          9         10
     1  C   -0.038405   0.002266   0.002262  -0.001419
     2  C    0.417501  -0.053352  -0.053340   0.011027
     3  C   -0.037250   0.430768   0.430764  -0.028167
     4  O    0.002418  -0.042677  -0.042680   0.329084
     5  H   -0.006652  -0.000142  -0.000142   0.000008
     6  H    0.004708   0.000493   0.000493  -0.001043
     7  H    0.513311  -0.001649  -0.001648  -0.000332
     8  H   -0.001649   0.691750  -0.075256  -0.005531
     9  H   -0.001648  -0.075256   0.691752  -0.005534
    10  H   -0.000332  -0.005531  -0.005534   0.484357
 Mulliken atomic charges:
              1
     1  C   -0.328704
     2  C   -0.167460
     3  C    0.127966
     4  O   -0.398265
     5  H    0.137496
     6  H    0.156758
     7  H    0.147998
     8  H    0.053331
     9  H    0.053329
    10  H    0.217550
 Sum of Mulliken atomic charges =   0.00000
 Mulliken charges with hydrogens summed into heavy atoms:
              1
     1  C   -0.034450
     2  C   -0.019461
     3  C    0.234626
     4  O   -0.180714
 Sum of Mulliken charges with hydrogens summed into heavy atoms =   0.00000
 Electronic spatial extent (au):  <R**2>=            301.5337
 Charge=              0.0000 electrons
 Dipole moment (field-independent basis, Debye):
    X=              1.2063    Y=              1.4310    Z=              0.0004  Tot=              1.8716
 Quadrupole moment (field-independent basis, Debye-Ang):
   XX=            -19.5892   YY=            -24.5535   ZZ=            -27.3646
   XY=              0.6894   XZ=              0.0008   YZ=             -0.0004
 Traceless Quadrupole moment (field-independent basis, Debye-Ang):
   XX=              4.2466   YY=             -0.7177   ZZ=             -3.5288
   XY=              0.6894   XZ=              0.0008   YZ=             -0.0004
 Octapole moment (field-independent basis, Debye-Ang**2):
  XXX=             19.3397  YYY=             -1.4948  ZZZ=              0.0002  XYY=              0.7624
  XXY=             -3.2566  XXZ=              0.0015  XZZ=              5.3002  YZZ=              0.1876
  YYZ=              0.0001  XYZ=             -0.0004
 Hexadecapole moment (field-independent basis, Debye-Ang**3):
 XXXX=           -197.5430 YYYY=           -103.7486 ZZZZ=            -35.9799 XXXY=            -12.2421
 XXXZ=              0.0040 YYYX=             -5.0970 YYYZ=             -0.0006 ZZZX=              0.0004
 ZZZY=              0.0000 XXYY=            -57.5095 XXZZ=            -52.2533 YYZZ=            -24.2258
 XXYZ=             -0.0014 YYXZ=              0.0003 ZZXY=             -0.2331
 N-N= 1.183337735665D+02 E-N=-6.868616554792D+02  KE= 1.916614677315D+02
 1\1\GINC-ROCK\SP\RMP2-FC\CC-pVTZ\C3H6O1\STYLIANAKIS\03-Mar-2016\0\\# m
 p2/cc-pVTZ\\propen_3_ol_syn_a_single_point\\0,1\C\C,1,1.334493\C,2,1.5
 00488,1,125.384\O,3,1.423312,2,110.418,1,0.006,0\H,1,1.085804,2,120.99
 7,3,179.999,0\H,1,1.085005,2,121.212,3,-0.001,0\H,2,1.089954,3,114.38,
 4,-179.995,0\H,3,1.102948,2,108.974,1,121.855,0\H,3,1.102949,2,108.974
 ,1,-121.843,0\H,4,0.964674,3,108.973,2,-179.991,0\\Version=EM64L-G09Re
 vA.01\State=1-A\HF=-191.9954994\MP2=-192.7376087\RMSD=4.374e-09\PG=C01
  [X(C3H6O1)]\\@


 DO YOU KNOW THAT THE LETTERS IN "EPISCOPAL", WHEN
 REARRANGED, SPELL "PEPSI COLA"?
 Job cpu time:  0 days  0 hours  4 minutes 33.0 seconds.
 File lengths (MBytes):  RWF=     20 Int=      0 D2E=      0 Chk=      3 Scr=      1
 Normal termination of Gaussian 09 at Thu Mar  3 22:27:48 2016.
