 Entering Gaussian System, Link 0=g09
 Input=vinyl_alcohol_s_cis.gjf
 Output=vinyl_alcohol_s_cis.out
 Initial command:
 /usr/local/g09/l1.exe /home/scratch/stylianakis/Gau-20652.inp -scrdir=/home/scratch/stylianakis/
 Entering Link 1 = /usr/local/g09/l1.exe PID=     20653.
  
 Copyright (c) 1988,1990,1992,1993,1995,1998,2003,2009, Gaussian, Inc.
                  All Rights Reserved.
  
 This is part of the Gaussian(R) 09 program.  It is based on
 the Gaussian(R) 03 system (copyright 2003, Gaussian, Inc.),
 the Gaussian(R) 98 system (copyright 1998, Gaussian, Inc.),
 the Gaussian(R) 94 system (copyright 1995, Gaussian, Inc.),
 the Gaussian 92(TM) system (copyright 1992, Gaussian, Inc.),
 the Gaussian 90(TM) system (copyright 1990, Gaussian, Inc.),
 the Gaussian 88(TM) system (copyright 1988, Gaussian, Inc.),
 the Gaussian 86(TM) system (copyright 1986, Carnegie Mellon
 University), and the Gaussian 82(TM) system (copyright 1983,
 Carnegie Mellon University). Gaussian is a federally registered
 trademark of Gaussian, Inc.
  
 This software contains proprietary and confidential information,
 including trade secrets, belonging to Gaussian, Inc.
  
 This software is provided under written license and may be
 used, copied, transmitted, or stored only in accord with that
 written license.
  
 The following legend is applicable only to US Government
 contracts under FAR:
  
                    RESTRICTED RIGHTS LEGEND
  
 Use, reproduction and disclosure by the US Government is
 subject to restrictions as set forth in subparagraphs (a)
 and (c) of the Commercial Computer Software - Restricted
 Rights clause in FAR 52.227-19.
  
 Gaussian, Inc.
 340 Quinnipiac St., Bldg. 40, Wallingford CT 06492
  
  
 ---------------------------------------------------------------
 Warning -- This program may not be used in any manner that
 competes with the business of Gaussian, Inc. or will provide
 assistance to any competitor of Gaussian, Inc.  The licensee
 of this program is prohibited from giving any competitor of
 Gaussian, Inc. access to this program.  By using this program,
 the user acknowledges that Gaussian, Inc. is engaged in the
 business of creating and licensing software in the field of
 computational chemistry and represents and warrants to the
 licensee that it is not a competitor of Gaussian, Inc. and that
 it will not use this program in any manner prohibited above.
 ---------------------------------------------------------------
  

 Cite this work as:
 Gaussian 09, Revision A.01,
 M. J. Frisch, G. W. Trucks, H. B. Schlegel, G. E. Scuseria, 
 M. A. Robb, J. R. Cheeseman, G. Scalmani, V. Barone, B. Mennucci, 
 G. A. Petersson, H. Nakatsuji, M. Caricato, X. Li, H. P. Hratchian, 
 A. F. Izmaylov, J. Bloino, G. Zheng, J. L. Sonnenberg, M. Hada, 
 M. Ehara, K. Toyota, R. Fukuda, J. Hasegawa, M. Ishida, T. Nakajima, 
 Y. Honda, O. Kitao, H. Nakai, T. Vreven, J. A. Montgomery, Jr., 
 J. E. Peralta, F. Ogliaro, M. Bearpark, J. J. Heyd, E. Brothers, 
 K. N. Kudin, V. N. Staroverov, R. Kobayashi, J. Normand, 
 K. Raghavachari, A. Rendell, J. C. Burant, S. S. Iyengar, J. Tomasi, 
 M. Cossi, N. Rega, J. M. Millam, M. Klene, J. E. Knox, J. B. Cross, 
 V. Bakken, C. Adamo, J. Jaramillo, R. Gomperts, R. E. Stratmann, 
 O. Yazyev, A. J. Austin, R. Cammi, C. Pomelli, J. W. Ochterski, 
 R. L. Martin, K. Morokuma, V. G. Zakrzewski, G. A. Voth, 
 P. Salvador, J. J. Dannenberg, S. Dapprich, A. D. Daniels, 
 O. Farkas, J. B. Foresman, J. V. Ortiz, J. Cioslowski, 
 and D. J. Fox, Gaussian, Inc., Wallingford CT, 2009.
 
 ******************************************
 Gaussian 09:  EM64L-G09RevA.01  8-May-2009
                 3-Mar-2016 
 ******************************************
 %mem=8000Mb
 %nproc=4
 Will use up to    4 processors via shared memory.
 -------------
 # mp2/cc-pVTZ
 -------------
 1/38=1/1;
 2/12=2,17=6,18=5,40=1/2;
 3/5=16,6=1,11=9,16=1,25=1,30=1/1,2,3;
 4//1;
 5/5=2,38=5/2;
 8/10=1/1;
 9/16=-3/6;
 6/7=2,8=2,9=2,10=2/1;
 99/5=1,9=1/99;
 --------------------------------
 vinyl_alcohol_s_cis_single_point
 --------------------------------
 Symbolic Z-matrix:
 Charge =  0 Multiplicity = 1
 c
 c                    1    cc2
 o                    2    oc3      1    occ3
 h                    3    ho4      2    hoc4     1    dih4     0
 h                    1    hc5      2    hcc5     3    dih5     0
 h                    1    hc6      2    hcc6     3    dih6     0
 h                    2    hc7      1    hcc7     5    dih7     0
       Variables:
  cc2                   1.33633                  
  oc3                   1.36486                  
  occ3                126.913                    
  ho4                   0.96793                  
  hoc4                109.84                     
  dih4                  0.005                    
  hc5                   1.08319                  
  hcc5                119.871                    
  dih5               -179.999                    
  hc6                   1.08719                  
  hcc6                122.453                    
  dih6                  0.                       
  hc7                   1.08562                  
  hcc7                122.833                    
  dih7                  0.001                    
 
                          Input orientation:                          
 ---------------------------------------------------------------------
 Center     Atomic      Atomic             Coordinates (Angstroms)
 Number     Number       Type             X           Y           Z
 ---------------------------------------------------------------------
      1          6           0        0.000000    0.000000    0.000000
      2          6           0        0.000000    0.000000    1.336325
      3          8           0        1.091273    0.000000    2.156063
      4          1           0        1.900766    0.000079    1.625397
      5          1           0       -0.939291    0.000016   -0.539484
      6          1           0        0.917403    0.000000   -0.583393
      7          1           0       -0.912196    0.000000    1.924939
 ---------------------------------------------------------------------
                    Distance matrix (angstroms):
                    1          2          3          4          5
     1  C    0.000000
     2  C    1.336325   0.000000
     3  O    2.416503   1.364862   0.000000
     4  H    2.500965   1.922622   0.967928   0.000000
     5  H    1.083194   2.097838   3.374783   3.571082   0.000000
     6  H    1.087187   2.127662   2.744968   2.417800   1.857213
     7  H    2.130139   1.085619   2.016757   2.828866   2.464572
                    6          7
     6  H    0.000000
     7  H    3.104700   0.000000
 Stoichiometry    C2H4O
 Framework group  C1[X(C2H4O)]
 Deg. of freedom    15
 Full point group                 C1      NOp   1
 Largest Abelian subgroup         C1      NOp   1
 Largest concise Abelian subgroup C1      NOp   1
                         Standard orientation:                         
 ---------------------------------------------------------------------
 Center     Atomic      Atomic             Coordinates (Angstroms)
 Number     Number       Type             X           Y           Z
 ---------------------------------------------------------------------
      1          6           0        1.205020   -0.206612   -0.000004
      2          6           0        0.036546    0.441796    0.000001
      3          8           0       -1.209733   -0.114655   -0.000008
      4          1           0       -1.138502   -1.079959    0.000061
      5          1           0        2.132501    0.352931    0.000021
      6          1           0        1.269995   -1.291856   -0.000017
      7          1           0       -0.035521    1.525020    0.000014
 ---------------------------------------------------------------------
 Rotational constants (GHZ):     60.2763815     10.4728180      8.9225543
 Standard basis: CC-pVTZ (5D, 7F)
 There are   146 symmetry adapted basis functions of A   symmetry.
 Integral buffers will be    131072 words long.
 Raffenetti 1 integral format.
 Two-electron integral symmetry is turned on.
   146 basis functions,   224 primitive gaussians,   165 cartesian basis functions
    12 alpha electrons       12 beta electrons
       nuclear repulsion energy        70.0646369021 Hartrees.
 NAtoms=    7 NActive=    7 NUniq=    7 SFac= 7.50D-01 NAtFMM=   80 NAOKFM=F Big=F
 One-electron integrals computed using PRISM.
 NBasis=   146 RedAO= T  NBF=   146
 NBsUse=   146 1.00D-06 NBFU=   146
 Harris functional with IExCor=  205 diagonalized for initial guess.
 ExpMin= 1.03D-01 ExpMax= 1.53D+04 ExpMxC= 5.22D+02 IAcc=1 IRadAn=         1 AccDes= 0.00D+00
 HarFok:  IExCor=  205 AccDes= 0.00D+00 IRadAn=         1 IDoV= 1
 ScaDFX=  1.000000  1.000000  1.000000  1.000000
 FoFCou: FMM=F IPFlag=           0 FMFlag=      100000 FMFlg1=           0
         NFxFlg=           0 DoJE=T BraDBF=F KetDBF=T FulRan=T
         Omega=  0.000000  0.000000  1.000000  0.000000  0.000000 ICntrl=     500 IOpCl=  0
         NMat0=    1 NMatS0=    1 NMatT0=    0 NMatD0=    1 NMtDS0=    0 NMtDT0=    0
         I1Cent=           4 NGrid=           0.
 Petite list used in FoFCou.
 Initial guess orbital symmetries:
       Occupied  (A) (A) (A) (A) (A) (A) (A) (A) (A) (A) (A) (A)
       Virtual   (A) (A) (A) (A) (A) (A) (A) (A) (A) (A) (A) (A)
                 (A) (A) (A) (A) (A) (A) (A) (A) (A) (A) (A) (A)
                 (A) (A) (A) (A) (A) (A) (A) (A) (A) (A) (A) (A)
                 (A) (A) (A) (A) (A) (A) (A) (A) (A) (A) (A) (A)
                 (A) (A) (A) (A) (A) (A) (A) (A) (A) (A) (A) (A)
                 (A) (A) (A) (A) (A) (A) (A) (A) (A) (A) (A) (A)
                 (A) (A) (A) (A) (A) (A) (A) (A) (A) (A) (A) (A)
                 (A) (A) (A) (A) (A) (A) (A) (A) (A) (A) (A) (A)
                 (A) (A) (A) (A) (A) (A) (A) (A) (A) (A) (A) (A)
                 (A) (A) (A) (A) (A) (A) (A) (A) (A) (A) (A) (A)
                 (A) (A) (A) (A) (A) (A) (A) (A) (A) (A) (A) (A)
                 (A) (A)
 The electronic state of the initial guess is 1-A.
 Requested convergence on RMS density matrix=1.00D-08 within 128 cycles.
 Requested convergence on MAX density matrix=1.00D-06.
 Requested convergence on             energy=1.00D-06.
 No special actions if energy rises.
 Keep R1 ints in memory in canonical form, NReq=96172454.
 SCF Done:  E(RHF) =  -152.954967432     A.U. after   12 cycles
             Convg  =    0.4334D-08             -V/T =  2.0018
 ExpMin= 1.03D-01 ExpMax= 1.53D+04 ExpMxC= 5.22D+02 IAcc=1 IRadAn=         1 AccDes= 0.00D+00
 HarFok:  IExCor=  205 AccDes= 0.00D+00 IRadAn=         1 IDoV=-2
 ScaDFX=  1.000000  1.000000  1.000000  1.000000
 Range of M.O.s used for correlation:     4   146
 NBasis=   146 NAE=    12 NBE=    12 NFC=     3 NFV=     0
 NROrb=    143 NOA=     9 NOB=     9 NVA=   134 NVB=   134

 **** Warning!!: The largest alpha MO coefficient is  0.10944419D+02

 Fully in-core method, ICMem=   203492826.
 JobTyp=1 Pass  1 fully in-core, NPsUse=  4.
 Spin components of T(2) and E(2):
     alpha-alpha T2 =       0.2037432174D-01 E2=     -0.6808593359D-01
     alpha-beta  T2 =       0.1241902205D+00 E2=     -0.4342914836D+00
     beta-beta   T2 =       0.2037432174D-01 E2=     -0.6808593359D-01
 ANorm=    0.1079323336D+01
 E2 =    -0.5704633508D+00 EUMP2 =    -0.15352543078296D+03

 **********************************************************************

            Population analysis using the SCF density.

 **********************************************************************

 Orbital symmetries:
       Occupied  (A) (A) (A) (A) (A) (A) (A) (A) (A) (A) (A) (A)
       Virtual   (A) (A) (A) (A) (A) (A) (A) (A) (A) (A) (A) (A)
                 (A) (A) (A) (A) (A) (A) (A) (A) (A) (A) (A) (A)
                 (A) (A) (A) (A) (A) (A) (A) (A) (A) (A) (A) (A)
                 (A) (A) (A) (A) (A) (A) (A) (A) (A) (A) (A) (A)
                 (A) (A) (A) (A) (A) (A) (A) (A) (A) (A) (A) (A)
                 (A) (A) (A) (A) (A) (A) (A) (A) (A) (A) (A) (A)
                 (A) (A) (A) (A) (A) (A) (A) (A) (A) (A) (A) (A)
                 (A) (A) (A) (A) (A) (A) (A) (A) (A) (A) (A) (A)
                 (A) (A) (A) (A) (A) (A) (A) (A) (A) (A) (A) (A)
                 (A) (A) (A) (A) (A) (A) (A) (A) (A) (A) (A) (A)
                 (A) (A) (A) (A) (A) (A) (A) (A) (A) (A) (A) (A)
                 (A) (A)
 The electronic state is 1-A.
 Alpha  occ. eigenvalues --  -20.58885 -11.30060 -11.21578  -1.39998  -1.02027
 Alpha  occ. eigenvalues --   -0.83006  -0.67803  -0.66659  -0.57709  -0.54565
 Alpha  occ. eigenvalues --   -0.53978  -0.34964
 Alpha virt. eigenvalues --    0.14557   0.16902   0.17582   0.19395   0.22218
 Alpha virt. eigenvalues --    0.32912   0.36733   0.44255   0.45742   0.49711
 Alpha virt. eigenvalues --    0.51527   0.55177   0.57985   0.58849   0.62786
 Alpha virt. eigenvalues --    0.64282   0.68762   0.68995   0.75151   0.77011
 Alpha virt. eigenvalues --    0.80573   0.84101   0.86333   0.89626   0.90820
 Alpha virt. eigenvalues --    1.00175   1.01671   1.08569   1.14269   1.19001
 Alpha virt. eigenvalues --    1.23501   1.24745   1.27361   1.34315   1.38396
 Alpha virt. eigenvalues --    1.42416   1.48548   1.49851   1.51391   1.53364
 Alpha virt. eigenvalues --    1.60957   1.68747   1.72690   1.82136   2.02352
 Alpha virt. eigenvalues --    2.08845   2.15049   2.26141   2.30411   2.37309
 Alpha virt. eigenvalues --    2.39854   2.50505   2.55902   2.60442   2.67734
 Alpha virt. eigenvalues --    2.76183   2.78604   2.84845   2.91448   2.98143
 Alpha virt. eigenvalues --    3.00446   3.09614   3.12634   3.12827   3.17168
 Alpha virt. eigenvalues --    3.17848   3.19409   3.22638   3.30338   3.38273
 Alpha virt. eigenvalues --    3.41941   3.42127   3.49931   3.53132   3.54462
 Alpha virt. eigenvalues --    3.56081   3.59592   3.62635   3.66323   3.68352
 Alpha virt. eigenvalues --    3.74623   3.82699   3.92301   3.93633   3.96602
 Alpha virt. eigenvalues --    3.99776   4.02532   4.09523   4.15329   4.17639
 Alpha virt. eigenvalues --    4.20023   4.20593   4.24401   4.27252   4.35452
 Alpha virt. eigenvalues --    4.38114   4.41635   4.47800   4.49355   4.59531
 Alpha virt. eigenvalues --    4.67151   4.83284   4.83894   4.95357   5.02033
 Alpha virt. eigenvalues --    5.03277   5.10611   5.18852   5.25504   5.30591
 Alpha virt. eigenvalues --    5.33274   5.36973   5.39644   5.52205   5.68264
 Alpha virt. eigenvalues --    5.76251   5.93931   5.97627   6.22561   6.29563
 Alpha virt. eigenvalues --    6.36290   6.67853   6.93084   6.95317   7.07046
 Alpha virt. eigenvalues --    7.22529   7.26868   7.27470   7.54100   7.65627
 Alpha virt. eigenvalues --    7.94217  11.14462  12.71508  14.54057
          Condensed to atoms (all electrons):
              1          2          3          4          5          6
     1  C    5.099282   0.629084  -0.081139  -0.006856   0.399070   0.421305
     2  C    0.629084   4.620696   0.375978  -0.045243  -0.037229  -0.049024
     3  O   -0.081139   0.375978   7.743111   0.346041   0.003803  -0.002454
     4  H   -0.006856  -0.045243   0.346041   0.456599   0.000328   0.003375
     5  H    0.399070  -0.037229   0.003803   0.000328   0.527014  -0.030962
     6  H    0.421305  -0.049024  -0.002454   0.003375  -0.030962   0.528761
     7  H   -0.050458   0.419720  -0.031904   0.006068  -0.001870   0.003596
              7
     1  C   -0.050458
     2  C    0.419720
     3  O   -0.031904
     4  H    0.006068
     5  H   -0.001870
     6  H    0.003596
     7  H    0.482078
 Mulliken atomic charges:
              1
     1  C   -0.410289
     2  C    0.086019
     3  O   -0.353436
     4  H    0.239687
     5  H    0.139846
     6  H    0.125402
     7  H    0.172770
 Sum of Mulliken atomic charges =   0.00000
 Mulliken charges with hydrogens summed into heavy atoms:
              1
     1  C   -0.145041
     2  C    0.258789
     3  O   -0.113748
 Sum of Mulliken charges with hydrogens summed into heavy atoms =   0.00000
 Electronic spatial extent (au):  <R**2>=            165.1737
 Charge=              0.0000 electrons
 Dipole moment (field-independent basis, Debye):
    X=              0.5547    Y=             -0.8062    Z=              0.0001  Tot=              0.9786
 Quadrupole moment (field-independent basis, Debye-Ang):
   XX=            -20.0079   YY=            -14.3996   ZZ=            -21.0673
   XY=              1.6728   XZ=             -0.0001   YZ=             -0.0001
 Traceless Quadrupole moment (field-independent basis, Debye-Ang):
   XX=             -1.5163   YY=              4.0920   ZZ=             -2.5757
   XY=              1.6728   XZ=             -0.0001   YZ=             -0.0001
 Octapole moment (field-independent basis, Debye-Ang**2):
  XXX=             -0.7290  YYY=             -2.5418  ZZZ=              0.0001  XYY=             -4.4066
  XXY=             -2.2429  XXZ=              0.0003  XZZ=             -3.8766  YZZ=             -0.2937
  YYZ=              0.0002  XYZ=              0.0003
 Hexadecapole moment (field-independent basis, Debye-Ang**3):
 XXXX=           -141.9035 YYYY=            -36.4316 ZZZZ=            -22.6629 XXXY=              7.2043
 XXXZ=              0.0000 YYYX=              3.5204 YYYZ=             -0.0002 ZZZX=              0.0000
 ZZZY=             -0.0001 XXYY=            -27.1358 XXZZ=            -30.7585 YYZZ=            -11.8540
 XXYZ=             -0.0002 YYXZ=             -0.0002 ZZXY=              0.6579
 N-N= 7.006463690210D+01 E-N=-4.992921357266D+02  KE= 1.526775297497D+02
 1\1\GINC-ROCK\SP\RMP2-FC\CC-pVTZ\C2H4O1\STYLIANAKIS\03-Mar-2016\0\\# m
 p2/cc-pVTZ\\vinyl_alcohol_s_cis_single_point\\0,1\C\C,1,1.336325\O,2,1
 .364862,1,126.913\H,3,0.967928,2,109.84,1,0.005,0\H,1,1.083194,2,119.8
 71,3,-179.999,0\H,1,1.087187,2,122.453,3,0.,0\H,2,1.085619,1,122.833,5
 ,0.001,0\\Version=EM64L-G09RevA.01\State=1-A\HF=-152.9549674\MP2=-153.
 5254308\RMSD=4.334e-09\PG=C01 [X(C2H4O1)]\\@


 IT IS WELL TO REMEMBER THAT MAN IS A PART OF NATURE AND THAT HIS WORKS,
 WHATEVER THEY MAY BE, ARE NO MORE "UNNATURAL" THAN 
 THE FLIGHT OF AN EAGLE OR THE PASSAGE OF A TORNADO.

                                    -- CHARLES MCCARRY IN "THE GREAT SOUTHWEST"
 Job cpu time:  0 days  0 hours  1 minutes 17.9 seconds.
 File lengths (MBytes):  RWF=     10 Int=      0 D2E=      0 Chk=      2 Scr=      1
 Normal termination of Gaussian 09 at Thu Mar  3 23:20:05 2016.
