 Entering Gaussian System, Link 0=g09
 Input=2_1_Ad_N_Me_pip_ecl.gjf
 Output=2_1_Ad_N_Me_pip_ecl.out
 Initial command:
 /usr/local/g09/l1.exe /home/scratch/stylianakis/Gau-22672.inp -scrdir=/home/scratch/stylianakis/
 Entering Link 1 = /usr/local/g09/l1.exe PID=     22673.
  
 Copyright (c) 1988,1990,1992,1993,1995,1998,2003,2009, Gaussian, Inc.
                  All Rights Reserved.
  
 This is part of the Gaussian(R) 09 program.  It is based on
 the Gaussian(R) 03 system (copyright 2003, Gaussian, Inc.),
 the Gaussian(R) 98 system (copyright 1998, Gaussian, Inc.),
 the Gaussian(R) 94 system (copyright 1995, Gaussian, Inc.),
 the Gaussian 92(TM) system (copyright 1992, Gaussian, Inc.),
 the Gaussian 90(TM) system (copyright 1990, Gaussian, Inc.),
 the Gaussian 88(TM) system (copyright 1988, Gaussian, Inc.),
 the Gaussian 86(TM) system (copyright 1986, Carnegie Mellon
 University), and the Gaussian 82(TM) system (copyright 1983,
 Carnegie Mellon University). Gaussian is a federally registered
 trademark of Gaussian, Inc.
  
 This software contains proprietary and confidential information,
 including trade secrets, belonging to Gaussian, Inc.
  
 This software is provided under written license and may be
 used, copied, transmitted, or stored only in accord with that
 written license.
  
 The following legend is applicable only to US Government
 contracts under FAR:
  
                    RESTRICTED RIGHTS LEGEND
  
 Use, reproduction and disclosure by the US Government is
 subject to restrictions as set forth in subparagraphs (a)
 and (c) of the Commercial Computer Software - Restricted
 Rights clause in FAR 52.227-19.
  
 Gaussian, Inc.
 340 Quinnipiac St., Bldg. 40, Wallingford CT 06492
  
  
 ---------------------------------------------------------------
 Warning -- This program may not be used in any manner that
 competes with the business of Gaussian, Inc. or will provide
 assistance to any competitor of Gaussian, Inc.  The licensee
 of this program is prohibited from giving any competitor of
 Gaussian, Inc. access to this program.  By using this program,
 the user acknowledges that Gaussian, Inc. is engaged in the
 business of creating and licensing software in the field of
 computational chemistry and represents and warrants to the
 licensee that it is not a competitor of Gaussian, Inc. and that
 it will not use this program in any manner prohibited above.
 ---------------------------------------------------------------
  

 Cite this work as:
 Gaussian 09, Revision A.01,
 M. J. Frisch, G. W. Trucks, H. B. Schlegel, G. E. Scuseria, 
 M. A. Robb, J. R. Cheeseman, G. Scalmani, V. Barone, B. Mennucci, 
 G. A. Petersson, H. Nakatsuji, M. Caricato, X. Li, H. P. Hratchian, 
 A. F. Izmaylov, J. Bloino, G. Zheng, J. L. Sonnenberg, M. Hada, 
 M. Ehara, K. Toyota, R. Fukuda, J. Hasegawa, M. Ishida, T. Nakajima, 
 Y. Honda, O. Kitao, H. Nakai, T. Vreven, J. A. Montgomery, Jr., 
 J. E. Peralta, F. Ogliaro, M. Bearpark, J. J. Heyd, E. Brothers, 
 K. N. Kudin, V. N. Staroverov, R. Kobayashi, J. Normand, 
 K. Raghavachari, A. Rendell, J. C. Burant, S. S. Iyengar, J. Tomasi, 
 M. Cossi, N. Rega, J. M. Millam, M. Klene, J. E. Knox, J. B. Cross, 
 V. Bakken, C. Adamo, J. Jaramillo, R. Gomperts, R. E. Stratmann, 
 O. Yazyev, A. J. Austin, R. Cammi, C. Pomelli, J. W. Ochterski, 
 R. L. Martin, K. Morokuma, V. G. Zakrzewski, G. A. Voth, 
 P. Salvador, J. J. Dannenberg, S. Dapprich, A. D. Daniels, 
 O. Farkas, J. B. Foresman, J. V. Ortiz, J. Cioslowski, 
 and D. J. Fox, Gaussian, Inc., Wallingford CT, 2009.
 
 ******************************************
 Gaussian 09:  EM64L-G09RevA.01  8-May-2009
                19-Feb-2018 
 ******************************************
 %mem=8000Mb
 %nproc=4
 Will use up to    4 processors via shared memory.
 -------------------
 # b3lyp/6-31+g(d,p)
 -------------------
 1/38=1/1;
 2/12=2,17=6,18=5,40=1/2;
 3/5=1,6=6,7=111,11=2,16=1,25=1,30=1,74=-5/1,2,3;
 4//1;
 5/5=2,38=5/2;
 6/7=2,8=2,9=2,10=2,28=1/1;
 99/5=1,9=1/99;
 -------------------------
 2-(1-Ad)-N-Me-pip-ecl.hin
 -------------------------
 Symbolic Z-matrix:
 Charge =  0 Multiplicity = 1
 C                    -1.6406    0.05372  -2.58291 
 C                    -2.97963   0.27065  -1.86735 
 C                    -2.7071    1.1125   -0.61494 
 C                    -0.66296  -0.64636  -1.62027 
 C                    -1.69943   0.38132   0.29066 
 C                    -0.29988   0.22026  -0.37604 
 C                    -1.06643   1.40708  -3.02845 
 C                     0.21298   1.58712  -0.87826 
 C                    -0.81673   2.27733  -1.78756 
 C                    -2.13358   2.48021  -1.02073 
 C                     0.72498  -0.46451   0.61743 
 C                     1.09839  -1.90349   0.17662 
 C                     2.03504  -2.66559   1.11912 
 C                     1.48109  -2.5571    2.54099 
 N                     0.47765  -0.31795   2.05932 
 C                     1.44149  -1.06408   2.87087 
 Xx                   -0.07453  -0.52316   2.17989 
 H                    -1.80917  -0.58808  -3.48381 
 H                    -3.4345   -0.7086   -1.58544 
 H                    -3.70724   0.78549  -2.53855 
 H                    -3.66989   1.26287  -0.06503 
 H                     0.26211  -0.8498   -2.20708 
 H                    -1.10799  -1.62941  -1.34308 
 H                    -2.09905  -0.6193    0.57992 
 H                    -1.67862   0.95757   1.23603 
 H                    -1.77594   1.91806  -3.72169 
 H                    -0.11607   1.2568   -3.59348 
 H                     1.16558   1.44564  -1.44101 
 H                     0.45021   2.26487  -0.0285 
 H                    -0.41834   3.27176  -2.10968 
 H                    -2.86701   3.02862  -1.65821 
 H                    -1.95858   3.10889  -0.11563 
 H                     1.69301   0.06035   0.43423 
 H                     1.56077  -1.92325  -0.83849 
 H                     0.16009  -2.5039    0.14795 
 H                     3.0637   -2.23506   1.06672 
 H                     2.11402  -3.73763   0.81529 
 H                     2.14829  -3.10095   3.25267 
 H                     0.46239  -3.00763   2.61378 
 H                     1.15721  -0.97836   3.94784 
 H                     2.46942  -0.6385    2.77177 
 C                     0.58216   1.07259   2.52005 
 H                     0.31106   1.14823   3.59877 
 H                     1.61316   1.47647   2.38823 
 H                    -0.09215   1.78165   2.00316 
 
                          Input orientation:                          
 ---------------------------------------------------------------------
 Center     Atomic      Atomic             Coordinates (Angstroms)
 Number     Number       Type             X           Y           Z
 ---------------------------------------------------------------------
      1          6           0       -1.640600    0.053720   -2.582910
      2          6           0       -2.979630    0.270650   -1.867350
      3          6           0       -2.707100    1.112500   -0.614940
      4          6           0       -0.662960   -0.646360   -1.620270
      5          6           0       -1.699430    0.381320    0.290660
      6          6           0       -0.299880    0.220260   -0.376040
      7          6           0       -1.066430    1.407080   -3.028450
      8          6           0        0.212980    1.587120   -0.878260
      9          6           0       -0.816730    2.277330   -1.787560
     10          6           0       -2.133580    2.480210   -1.020730
     11          6           0        0.724980   -0.464510    0.617430
     12          6           0        1.098390   -1.903490    0.176620
     13          6           0        2.035040   -2.665590    1.119120
     14          6           0        1.481090   -2.557100    2.540990
     15          7           0        0.477650   -0.317950    2.059320
     16          6           0        1.441490   -1.064080    2.870870
     17          1           0       -1.809170   -0.588080   -3.483810
     18          1           0       -3.434500   -0.708600   -1.585440
     19          1           0       -3.707240    0.785490   -2.538550
     20          1           0       -3.669890    1.262870   -0.065030
     21          1           0        0.262110   -0.849800   -2.207080
     22          1           0       -1.107990   -1.629410   -1.343080
     23          1           0       -2.099050   -0.619300    0.579920
     24          1           0       -1.678620    0.957570    1.236030
     25          1           0       -1.775940    1.918060   -3.721690
     26          1           0       -0.116070    1.256800   -3.593480
     27          1           0        1.165580    1.445640   -1.441010
     28          1           0        0.450210    2.264870   -0.028500
     29          1           0       -0.418340    3.271760   -2.109680
     30          1           0       -2.867010    3.028620   -1.658210
     31          1           0       -1.958580    3.108890   -0.115630
     32          1           0        1.693010    0.060350    0.434230
     33          1           0        1.560770   -1.923250   -0.838490
     34          1           0        0.160090   -2.503900    0.147950
     35          1           0        3.063700   -2.235060    1.066720
     36          1           0        2.114020   -3.737630    0.815290
     37          1           0        2.148290   -3.100950    3.252670
     38          1           0        0.462390   -3.007630    2.613780
     39          1           0        1.157210   -0.978360    3.947840
     40          1           0        2.469420   -0.638500    2.771770
     41          6           0        0.582160    1.072590    2.520050
     42          1           0        0.311060    1.148230    3.598770
     43          1           0        1.613160    1.476470    2.388230
     44          1           0       -0.092150    1.781650    2.003160
 ---------------------------------------------------------------------
                    Distance matrix (angstroms):
                    1          2          3          4          5
     1  C    0.000000
     2  C    1.533651   0.000000
     3  C    2.476155   1.533465   0.000000
     4  C    1.540314   2.503780   2.877983   0.000000
     5  C    2.892782   2.511606   1.539524   2.404589   0.000000
     6  C    2.587574   3.067182   2.578347   1.559155   1.558579
     7  C    1.536151   2.509972   2.933190   2.522375   3.531199
     8  C    2.948373   3.592235   2.970096   2.511231   2.545121
     9  C    2.501157   2.951486   2.511049   2.932507   2.948391
    10  C    2.927676   2.512911   1.537602   3.506795   2.512682
    11  C    4.013316   4.520921   3.973018   2.639460   2.588430
    12  C    4.352901   5.053211   4.919809   2.812747   3.614022
    13  C    5.883027   6.533561   6.306252   4.342897   4.890427
    14  C    6.543369   6.879510   6.400531   5.056082   4.879959
    15  N    5.116192   5.264786   4.397782   3.866294   2.890815
    16  C    6.363370   6.616535   5.839450   4.977302   4.314168
    17  H    1.118903   2.172634   3.453790   2.188601   3.898513
    18  H    2.189556   1.115935   2.188010   2.772458   2.778155
    19  H    2.192819   1.115789   2.192599   3.487273   3.492719
    20  H    3.452504   2.170096   1.118918   3.886587   2.187775
    21  H    2.139603   3.446694   3.898941   1.114221   3.406171
    22  H    2.157262   2.718110   3.256595   1.114124   2.657432
    23  H    3.265980   2.748920   2.190102   2.627532   1.115620
    24  H    3.924626   3.434451   2.123173   3.429666   1.107349
    25  H    2.188813   2.757065   3.341838   3.497276   4.297252
    26  H    2.189257   3.485971   3.950438   2.795472   4.284861
    27  H    3.334070   4.329565   3.973792   2.784270   3.512797
    28  H    3.973120   4.372881   3.411814   3.499734   2.875861
    29  H    3.474715   3.952922   3.483543   3.956138   3.969568
    30  H    3.348012   2.768180   2.187578   4.285412   3.488486
    31  H    3.939879   3.488076   2.189787   4.247879   2.769814
    32  H    4.496235   5.212970   4.644216   3.204841   3.410613
    33  H    4.147310   5.146551   5.242182   2.680784   4.149087
    34  H    4.152289   4.649452   4.677727   2.693412   3.435502
    35  H    6.378774   7.170020   6.880136   4.861263   5.489547
    36  H    6.326079   7.014851   6.986596   4.816588   5.637676
    37  H    7.639478   7.992362   7.502425   6.137889   5.975337
    38  H    6.387489   6.532622   6.119295   4.976865   4.642772
    39  H    7.179389   7.244992   6.334315   5.867460   4.835710
    40  H    6.785575   7.213885   6.429010   5.394616   4.957343
    41  C    5.658530   5.707778   4.544116   4.652673   3.263999
    42  H    6.574199   6.440284   5.183234   5.604253   3.946367
    43  H    6.109288   6.376338   5.274102   5.074958   4.070922
    44  H    5.139599   5.059793   3.760342   4.398898   2.734397
                    6          7          8          9         10
     6  C    0.000000
     7  C    3.005232   0.000000
     8  C    1.543877   2.508510   0.000000
     9  C    2.547756   1.536064   1.537374   0.000000
    10  C    2.980848   2.514231   2.514806   1.537297   0.000000
    11  C    1.583108   4.472632   2.590061   3.959613   4.418858
    12  C    2.602096   5.091050   3.752477   5.000494   5.576388
    13  C    4.001935   6.588482   5.039342   6.404205   6.959570
    14  C    4.403935   7.295426   5.520320   6.883897   7.150257
    15  N    2.612509   5.589751   3.511227   4.817612   4.912731
    16  C    3.901836   6.870100   4.753322   6.161619   6.362992
    17  H    3.548183   2.177080   3.950883   3.474590   3.947963
    18  H    3.485867   3.487999   4.367441   3.976097   3.489957
    19  H    4.075051   2.756856   4.332124   3.338356   2.766272
    20  H    3.541289   3.947234   3.980347   3.483785   2.180717
    21  H    2.193985   2.744663   2.776104   3.334492   4.270331
    22  H    2.238188   3.473107   3.508145   3.942716   4.247908
    23  H    2.203573   4.265308   3.512842   3.954715   3.488586
    24  H    2.245734   4.331585   2.905978   3.409797   2.760143
    25  H    4.031706   1.115835   3.485745   2.188611   2.781924
    26  H    3.385280   1.115808   2.754960   2.189464   3.490863
    27  H    2.187073   2.739219   1.115415   2.177466   3.483020
    28  H    2.205414   3.469251   1.112526   2.167852   2.776124
    29  H    3.511580   2.177427   2.180131   1.118645   2.180461
    30  H    4.015097   2.783709   3.488923   2.187422   1.115820
    31  H    3.341150   3.489500   2.759178   2.188758   1.115827
    32  H    2.157248   4.627996   2.498829   4.018724   4.755567
    33  H    2.875850   4.773804   3.760428   4.919158   5.750817
    34  H    2.811972   5.185521   4.218098   5.249813   5.609642
    35  H    4.407247   6.862476   5.149622   6.600478   7.321403
    36  H    4.786551   7.166425   5.902121   7.179406   7.750781
    37  H    5.494680   8.373125   6.541254   7.944882   8.230778
    38  H    4.465350   7.325416   5.776528   6.995623   7.075670
    39  H    4.717599   7.700878   5.546575   6.884095   6.890406
    40  H    4.279626   7.094307   4.834007   6.331535   6.730306
    41  C    3.145123   5.797895   3.456812   4.686555   4.679077
    42  H    4.127165   6.773812   4.499560   5.617769   5.393535
    43  H    3.588729   6.043628   3.555658   4.897240   5.163968
    44  H    2.853363   5.138738   2.904054   3.891050   3.714745
                   11         12         13         14         15
    11  C    0.000000
    12  C    1.550617   0.000000
    13  C    2.610116   1.531802   0.000000
    14  C    2.941210   2.482722   1.529819   0.000000
    15  N    1.470272   2.538467   2.969992   2.500538   0.000000
    16  C    2.439439   2.842764   2.446582   1.529542   1.464347
    17  H    4.822588   4.856229   6.346729   7.141503   6.002400
    18  H    4.713119   5.007965   6.407833   6.678877   5.361138
    19  H    5.582767   6.139775   7.632973   7.993335   6.314372
    20  H    4.771213   5.728937   7.027178   6.922146   4.920766
    21  H    2.888002   2.737088   4.183776   5.190853   4.304822
    22  H    2.925811   2.693088   4.124892   4.759196   3.976243
    23  H    2.828518   3.469210   4.644216   4.518658   2.986439
    24  H    2.860467   4.125506   5.189627   4.903019   2.637093
    25  H    5.546098   6.169509   7.678988   8.358018   6.595338
    26  H    4.626233   5.067149   6.497770   7.397870   5.898007
    27  H    2.842530   3.719935   4.920614   5.654892   3.979423
    28  H    2.818198   4.223439   5.304541   5.560251   3.321250
    29  H    4.764874   5.857546   7.190017   7.694945   5.573991
    30  H    5.502989   6.589136   8.010473   8.230402   6.017168
    31  H    4.528582   5.878302   7.128690   7.140896   4.733799
    32  H    1.116298   2.067995   2.831397   3.366659   2.064250
    33  H    2.223999   1.115632   2.146681   3.439331   3.485318
    34  H    2.167631   1.114325   2.117723   2.733955   2.921054
    35  H    2.967544   2.182810   1.116353   2.186741   3.368712
    36  H    3.561165   2.191683   1.117059   2.184558   3.989928
    37  H    3.990127   3.463854   2.180459   1.116878   3.458354
    38  H    3.243736   2.750158   2.196413   1.116255   2.746277
    39  H    3.397425   3.883481   3.408664   2.139286   2.112925
    40  H    2.777503   3.196049   2.651232   2.170503   2.139506
    41  C    2.450110   3.822984   4.248230   3.739407   1.468603
    42  H    3.414769   4.652311   4.864771   4.027076   2.132450
    43  H    2.773445   4.071896   4.352618   4.038622   2.148839
    44  H    2.762822   4.281809   5.008434   4.646407   2.176269
                   16         17         18         19         20
    16  C    0.000000
    17  H    7.153693   0.000000
    18  H    6.615160   2.502005   0.000000
    19  H    7.693644   2.526436   1.793073   0.000000
    20  H    6.337224   4.310029   2.500750   2.519442   0.000000
    21  H    5.217512   2.447190   3.751173   4.305785   4.950998
    22  H    4.957501   2.481682   2.513817   3.743927   4.069647
    23  H    4.240484   4.074176   2.545621   3.779493   2.534968
    24  H    4.061386   4.968196   3.717517   4.288632   2.398150
    25  H    7.918766   2.517624   3.770110   2.532283   4.169830
    26  H    7.042748   2.506431   4.348218   3.772468   5.007957
    27  H    4.996712   4.142244   5.081569   5.038330   5.030755
    28  H    4.524477   5.018295   5.133864   5.076742   4.240349
    29  H    6.860347   4.326778   5.021485   4.145158   4.334606
    30  H    7.471675   4.187166   3.780761   2.551983   2.510122
    31  H    6.155756   5.003454   4.348783   3.785042   2.517724
    32  H    2.695333   5.294975   5.564325   6.206928   5.518697
    33  H    3.809429   4.487415   5.194808   6.162743   6.173282
    34  H    3.336070   4.553903   4.375936   5.744006   5.376120
    35  H    2.694015   6.867658   7.182662   8.244230   7.671871
    36  H    3.438833   6.617654   6.761997   8.099008   7.696335
    37  H    2.189561   8.207080   7.765191   9.106584   7.993827
    38  H    2.191374   6.942248   6.172904   7.636758   6.518353
    39  H    1.117151   8.011314   7.195398   8.297427   6.665368
    40  H    1.116951   7.578994   7.338015   8.269122   7.025224
    41  C    2.329567   6.672527   6.013422   6.638585   4.979837
    42  H    2.588827   7.594280   6.659810   7.344727   5.411519
    43  H    2.591680   7.103208   6.785533   7.284042   5.828784
    44  H    3.347111   6.218570   5.500064   5.889681   4.164945
                   21         22         23         24         25
    21  H    0.000000
    22  H    1.797627   0.000000
    23  H    3.659997   2.387562   0.000000
    24  H    4.346036   3.697282   1.758909   0.000000
    25  H    3.756160   4.323018   5.004642   5.050841   0.000000
    26  H    2.550076   3.791888   4.986906   5.084808   1.791332
    27  H    2.583054   3.825525   4.359581   3.936271   3.751962
    28  H    3.805622   4.395626   3.897094   2.799998   4.326162
    29  H    4.178487   5.008469   5.019869   4.258821   2.504827
    30  H    5.013461   4.989058   4.348139   3.752085   2.584904
    31  H    4.997685   4.968060   3.795118   2.556079   3.801987
    32  H    3.138848   3.722865   3.855239   3.579913   5.723318
    33  H    2.170680   2.731892   4.135995   4.805872   5.848259
    34  H    2.879691   2.143812   2.973555   4.067745   6.186765
    35  H    4.526104   4.855610   5.431541   5.719366   7.974923
    36  H    4.572073   4.414125   5.246841   6.050293   8.228171
    37  H    6.199534   5.821487   5.598399   5.931582   9.446255
    38  H    5.285550   4.474631   4.049899   4.712211   8.331310
    39  H    6.220994   5.792135   4.698408   4.375348   8.707141
    40  H    5.450304   5.541819   5.067099   4.702358   8.168482
    41  C    5.113098   5.008112   3.716919   2.602511   6.725680
    42  H    6.140229   5.843874   4.248088   3.094789   7.650970
    43  H    5.324823   5.565413   4.630631   3.525995   7.000866
    44  H    4.977565   4.885139   3.437706   1.945375   5.968891
                   26         27         28         29         30
    26  H    0.000000
    27  H    2.512253   0.000000
    28  H    3.747794   1.782716   0.000000
    29  H    2.520534   2.508114   2.469720   0.000000
    30  H    3.801616   4.337601   3.774019   2.501785   0.000000
    31  H    4.349773   3.779340   2.553866   2.524896   1.791994
    32  H    4.574572   2.390342   2.572660   4.608951   5.829469
    33  H    4.529291   3.445087   4.407922   5.702712   6.693145
    34  H    5.312008   4.374319   4.780844   6.228140   6.560055
    35  H    6.634869   4.841397   5.317820   7.248392   8.384801
    36  H    7.025303   5.732078   6.285718   8.006238   8.758482
    37  H    8.425383   6.608164   6.514720   8.715149   9.318884
    38  H    7.553149   6.063614   5.897546   7.906801   8.109939
    39  H    7.967979   5.908938   5.179736   7.565674   7.979852
    40  H    7.126944   4.877618   4.510907   6.888965   7.845379
    41  C    6.156030   4.021137   2.816744   5.222236   5.760268
    42  H    7.205740   5.120355   3.797807   6.134151   6.424316
    43  H    6.230517   3.855432   2.795463   5.251786   6.233359
    44  H    5.621247   3.681996   2.157614   4.386602   4.760295
                   31         32         33         34         35
    31  H    0.000000
    32  H    4.788533   0.000000
    33  H    6.183105   2.360503   0.000000
    34  H    6.005135   3.001196   1.808901   0.000000
    35  H    7.428260   2.747315   2.446600   3.057346   0.000000
    36  H    8.020444   3.840196   2.516555   2.405260   1.795223
    37  H    8.171532   4.259660   4.297644   3.734795   2.523117
    38  H    7.121979   3.959465   3.781598   2.534847   3.123631
    39  H    6.551759   3.702898   4.895368   4.214343   3.676255
    40  H    6.479753   2.560331   3.938300   3.961963   2.410263
    41  C    4.189115   2.570849   4.605706   4.312341   4.383008
    42  H    4.774120   3.620439   5.539408   5.026828   5.043308
    43  H    4.657407   2.414516   4.687490   4.793080   4.198322
    44  H    3.120000   2.934487   4.953121   4.676683   5.193291
                   36         37         38         39         40
    36  H    0.000000
    37  H    2.519396   0.000000
    38  H    2.548597   1.805311   0.000000
    39  H    4.282747   2.443540   2.525951   0.000000
    40  H    3.682218   2.529437   3.109004   1.794586   0.000000
    41  C    5.328322   4.517514   4.083053   2.564305   2.559872
    42  H    5.905087   4.642276   4.273673   2.315212   2.921447
    43  H    5.469172   4.688965   4.634900   2.943886   2.313738
    44  H    6.061408   5.515490   4.859792   3.600047   3.606872
                   41         42         43         44
    41  C    0.000000
    42  H    1.114833   0.000000
    43  H    1.115104   1.807931   0.000000
    44  H    1.106632   1.763454   1.774682   0.000000
 Stoichiometry    C16H27N
 Framework group  C1[X(C16H27N)]
 Deg. of freedom   126
 Full point group                 C1      NOp   1
 Largest Abelian subgroup         C1      NOp   1
 Largest concise Abelian subgroup C1      NOp   1
                         Standard orientation:                         
 ---------------------------------------------------------------------
 Center     Atomic      Atomic             Coordinates (Angstroms)
 Number     Number       Type             X           Y           Z
 ---------------------------------------------------------------------
      1          6           0       -2.430525   -1.482846    0.165745
      2          6           0       -2.799740   -0.708973    1.437313
      3          6           0       -2.216039    0.703217    1.308753
      4          6           0       -0.897561   -1.504947    0.017083
      5          6           0       -0.689581    0.617540    1.127867
      6          6           0       -0.281072   -0.089360   -0.199756
      7          6           0       -3.070929   -0.806918   -1.056043
      8          6           0       -1.000302    0.567267   -1.397715
      9          6           0       -2.521529    0.621965   -1.182319
     10          6           0       -2.837058    1.415626    0.095893
     11          6           0        1.291436   -0.085336   -0.382599
     12          6           0        1.904348   -1.501434   -0.229571
     13          6           0        3.431206   -1.578914   -0.325051
     14          6           0        4.026830   -0.521545    0.606371
     15          7           0        2.052529    0.979447    0.287231
     16          6           0        3.498617    0.826941    0.114360
     17          1           0       -2.817451   -2.529229    0.251273
     18          1           0       -2.385520   -1.219631    2.338956
     19          1           0       -3.907186   -0.668166    1.567252
     20          1           0       -2.454955    1.278134    2.238467
     21          1           0       -0.678574   -2.139585   -0.872168
     22          1           0       -0.479189   -2.022620    0.910534
     23          1           0       -0.229259    0.089214    1.995958
     24          1           0       -0.322961    1.659307    1.208693
     25          1           0       -4.181253   -0.785218   -0.947433
     26          1           0       -2.849146   -1.390086   -1.981113
     27          1           0       -0.780030   -0.008013   -2.327598
     28          1           0       -0.627124    1.600387   -1.574111
     29          1           0       -3.001627    1.124633   -2.058788
     30          1           0       -3.941426    1.504197    0.228489
     31          1           0       -2.437331    2.454037    0.012288
     32          1           0        1.450695    0.086708   -1.474001
     33          1           0        1.488195   -2.220053   -0.974580
     34          1           0        1.655919   -1.870158    0.792215
     35          1           0        3.758204   -1.401190   -1.377539
     36          1           0        3.793543   -2.595834   -0.037985
     37          1           0        5.142055   -0.551596    0.553591
     38          1           0        3.728846   -0.702456    1.666797
     39          1           0        4.023296    1.615375    0.706907
     40          1           0        3.796200    0.971002   -0.952537
     41          6           0        1.742501    2.318122   -0.231061
     42          1           0        2.280605    3.098561    0.355635
     43          1           0        2.030360    2.424372   -1.303117
     44          1           0        0.673809    2.599345   -0.172343
 ---------------------------------------------------------------------
 Rotational constants (GHZ):      0.9871158      0.3228673      0.2924383
 Standard basis: 6-31+G(d,p) (6D, 7F)
 There are   458 symmetry adapted basis functions of A   symmetry.
 Integral buffers will be    131072 words long.
 Raffenetti 2 integral format.
 Two-electron integral symmetry is turned on.
   458 basis functions,   733 primitive gaussians,   458 cartesian basis functions
    65 alpha electrons       65 beta electrons
       nuclear repulsion energy      1374.7532148807 Hartrees.
 NAtoms=   44 NActive=   44 NUniq=   44 SFac= 7.50D-01 NAtFMM=   80 NAOKFM=F Big=F
 One-electron integrals computed using PRISM.
 NBasis=   458 RedAO= T  NBF=   458
 NBsUse=   457 1.00D-06 NBFU=   457
 Harris functional with IExCor=  402 diagonalized for initial guess.
 ExpMin= 4.38D-02 ExpMax= 4.17D+03 ExpMxC= 6.27D+02 IAcc=2 IRadAn=         0 AccDes= 0.00D+00
 HarFok:  IExCor=  402 AccDes= 0.00D+00 IRadAn=         0 IDoV= 1
 ScaDFX=  1.000000  1.000000  1.000000  1.000000
 FoFCou: FMM=F IPFlag=           0 FMFlag=      100000 FMFlg1=           0
         NFxFlg=           0 DoJE=T BraDBF=F KetDBF=T FulRan=T
         Omega=  0.000000  0.000000  1.000000  0.000000  0.000000 ICntrl=     500 IOpCl=  0
         NMat0=    1 NMatS0=    1 NMatT0=    0 NMatD0=    1 NMtDS0=    0 NMtDT0=    0
         I1Cent=           4 NGrid=           0.
 Petite list used in FoFCou.
 Initial guess orbital symmetries:
       Occupied  (A) (A) (A) (A) (A) (A) (A) (A) (A) (A) (A) (A)
                 (A) (A) (A) (A) (A) (A) (A) (A) (A) (A) (A) (A)
                 (A) (A) (A) (A) (A) (A) (A) (A) (A) (A) (A) (A)
                 (A) (A) (A) (A) (A) (A) (A) (A) (A) (A) (A) (A)
                 (A) (A) (A) (A) (A) (A) (A) (A) (A) (A) (A) (A)
                 (A) (A) (A) (A) (A)
       Virtual   (A) (A) (A) (A) (A) (A) (A) (A) (A) (A) (A) (A)
                 (A) (A) (A) (A) (A) (A) (A) (A) (A) (A) (A) (A)
                 (A) (A) (A) (A) (A) (A) (A) (A) (A) (A) (A) (A)
                 (A) (A) (A) (A) (A) (A) (A) (A) (A) (A) (A) (A)
                 (A) (A) (A) (A) (A) (A) (A) (A) (A) (A) (A) (A)
                 (A) (A) (A) (A) (A) (A) (A) (A) (A) (A) (A) (A)
                 (A) (A) (A) (A) (A) (A) (A) (A) (A) (A) (A) (A)
                 (A) (A) (A) (A) (A) (A) (A) (A) (A) (A) (A) (A)
                 (A) (A) (A) (A) (A) (A) (A) (A) (A) (A) (A) (A)
                 (A) (A) (A) (A) (A) (A) (A) (A) (A) (A) (A) (A)
                 (A) (A) (A) (A) (A) (A) (A) (A) (A) (A) (A) (A)
                 (A) (A) (A) (A) (A) (A) (A) (A) (A) (A) (A) (A)
                 (A) (A) (A) (A) (A) (A) (A) (A) (A) (A) (A) (A)
                 (A) (A) (A) (A) (A) (A) (A) (A) (A) (A) (A) (A)
                 (A) (A) (A) (A) (A) (A) (A) (A) (A) (A) (A) (A)
                 (A) (A) (A) (A) (A) (A) (A) (A) (A) (A) (A) (A)
                 (A) (A) (A) (A) (A) (A) (A) (A) (A) (A) (A) (A)
                 (A) (A) (A) (A) (A) (A) (A) (A) (A) (A) (A) (A)
                 (A) (A) (A) (A) (A) (A) (A) (A) (A) (A) (A) (A)
                 (A) (A) (A) (A) (A) (A) (A) (A) (A) (A) (A) (A)
                 (A) (A) (A) (A) (A) (A) (A) (A) (A) (A) (A) (A)
                 (A) (A) (A) (A) (A) (A) (A) (A) (A) (A) (A) (A)
                 (A) (A) (A) (A) (A) (A) (A) (A) (A) (A) (A) (A)
                 (A) (A) (A) (A) (A) (A) (A) (A) (A) (A) (A) (A)
                 (A) (A) (A) (A) (A) (A) (A) (A) (A) (A) (A) (A)
                 (A) (A) (A) (A) (A) (A) (A) (A) (A) (A) (A) (A)
                 (A) (A) (A) (A) (A) (A) (A) (A) (A) (A) (A) (A)
                 (A) (A) (A) (A) (A) (A) (A) (A) (A) (A) (A) (A)
                 (A) (A) (A) (A) (A) (A) (A) (A) (A) (A) (A) (A)
                 (A) (A) (A) (A) (A) (A) (A) (A) (A) (A) (A) (A)
                 (A) (A) (A) (A) (A) (A) (A) (A) (A) (A) (A) (A)
                 (A) (A) (A) (A) (A) (A) (A) (A) (A) (A) (A) (A)
                 (A) (A) (A) (A) (A) (A) (A) (A)
 The electronic state of the initial guess is 1-A.
 Requested convergence on RMS density matrix=1.00D-08 within 128 cycles.
 Requested convergence on MAX density matrix=1.00D-06.
 Requested convergence on             energy=1.00D-06.
 No special actions if energy rises.
 SCF Done:  E(RB3LYP) =  -680.752265874     A.U. after   13 cycles
             Convg  =    0.9606D-08             -V/T =  2.0105

 **********************************************************************

            Population analysis using the SCF density.

 **********************************************************************

 Orbital symmetries:
       Occupied  (A) (A) (A) (A) (A) (A) (A) (A) (A) (A) (A) (A)
                 (A) (A) (A) (A) (A) (A) (A) (A) (A) (A) (A) (A)
                 (A) (A) (A) (A) (A) (A) (A) (A) (A) (A) (A) (A)
                 (A) (A) (A) (A) (A) (A) (A) (A) (A) (A) (A) (A)
                 (A) (A) (A) (A) (A) (A) (A) (A) (A) (A) (A) (A)
                 (A) (A) (A) (A) (A)
       Virtual   (A) (A) (A) (A) (A) (A) (A) (A) (A) (A) (A) (A)
                 (A) (A) (A) (A) (A) (A) (A) (A) (A) (A) (A) (A)
                 (A) (A) (A) (A) (A) (A) (A) (A) (A) (A) (A) (A)
                 (A) (A) (A) (A) (A) (A) (A) (A) (A) (A) (A) (A)
                 (A) (A) (A) (A) (A) (A) (A) (A) (A) (A) (A) (A)
                 (A) (A) (A) (A) (A) (A) (A) (A) (A) (A) (A) (A)
                 (A) (A) (A) (A) (A) (A) (A) (A) (A) (A) (A) (A)
                 (A) (A) (A) (A) (A) (A) (A) (A) (A) (A) (A) (A)
                 (A) (A) (A) (A) (A) (A) (A) (A) (A) (A) (A) (A)
                 (A) (A) (A) (A) (A) (A) (A) (A) (A) (A) (A) (A)
                 (A) (A) (A) (A) (A) (A) (A) (A) (A) (A) (A) (A)
                 (A) (A) (A) (A) (A) (A) (A) (A) (A) (A) (A) (A)
                 (A) (A) (A) (A) (A) (A) (A) (A) (A) (A) (A) (A)
                 (A) (A) (A) (A) (A) (A) (A) (A) (A) (A) (A) (A)
                 (A) (A) (A) (A) (A) (A) (A) (A) (A) (A) (A) (A)
                 (A) (A) (A) (A) (A) (A) (A) (A) (A) (A) (A) (A)
                 (A) (A) (A) (A) (A) (A) (A) (A) (A) (A) (A) (A)
                 (A) (A) (A) (A) (A) (A) (A) (A) (A) (A) (A) (A)
                 (A) (A) (A) (A) (A) (A) (A) (A) (A) (A) (A) (A)
                 (A) (A) (A) (A) (A) (A) (A) (A) (A) (A) (A) (A)
                 (A) (A) (A) (A) (A) (A) (A) (A) (A) (A) (A) (A)
                 (A) (A) (A) (A) (A) (A) (A) (A) (A) (A) (A) (A)
                 (A) (A) (A) (A) (A) (A) (A) (A) (A) (A) (A) (A)
                 (A) (A) (A) (A) (A) (A) (A) (A) (A) (A) (A) (A)
                 (A) (A) (A) (A) (A) (A) (A) (A) (A) (A) (A) (A)
                 (A) (A) (A) (A) (A) (A) (A) (A) (A) (A) (A) (A)
                 (A) (A) (A) (A) (A) (A) (A) (A) (A) (A) (A) (A)
                 (A) (A) (A) (A) (A) (A) (A) (A) (A) (A) (A) (A)
                 (A) (A) (A) (A) (A) (A) (A) (A) (A) (A) (A) (A)
                 (A) (A) (A) (A) (A) (A) (A) (A) (A) (A) (A) (A)
                 (A) (A) (A) (A) (A) (A) (A) (A) (A) (A) (A) (A)
                 (A) (A) (A) (A) (A) (A) (A) (A) (A) (A) (A) (A)
                 (A) (A) (A) (A) (A) (A) (A) (A)
 The electronic state is 1-A.
 Alpha  occ. eigenvalues --  -14.33371 -10.21623 -10.20879 -10.20588 -10.19955
 Alpha  occ. eigenvalues --  -10.18617 -10.18497 -10.18442 -10.18429 -10.18406
 Alpha  occ. eigenvalues --  -10.18264 -10.18114 -10.17967 -10.17949 -10.17927
 Alpha  occ. eigenvalues --  -10.17618 -10.17279  -0.92838  -0.86870  -0.79716
 Alpha  occ. eigenvalues --   -0.78428  -0.76699  -0.76238  -0.72959  -0.68667
 Alpha  occ. eigenvalues --   -0.66472  -0.66041  -0.62407  -0.61346  -0.58058
 Alpha  occ. eigenvalues --   -0.57261  -0.56647  -0.53968  -0.51557  -0.48059
 Alpha  occ. eigenvalues --   -0.46086  -0.45602  -0.45157  -0.44609  -0.44093
 Alpha  occ. eigenvalues --   -0.43696  -0.43145  -0.42386  -0.41062  -0.40092
 Alpha  occ. eigenvalues --   -0.39729  -0.39362  -0.38601  -0.38334  -0.38092
 Alpha  occ. eigenvalues --   -0.36996  -0.36336  -0.34730  -0.33241  -0.32841
 Alpha  occ. eigenvalues --   -0.32593  -0.32009  -0.31773  -0.31460  -0.30949
 Alpha  occ. eigenvalues --   -0.30093  -0.27882  -0.27714  -0.27019  -0.21792
 Alpha virt. eigenvalues --   -0.00683   0.00586   0.00987   0.01412   0.02327
 Alpha virt. eigenvalues --    0.02579   0.02716   0.03331   0.03532   0.04461
 Alpha virt. eigenvalues --    0.04675   0.05037   0.05566   0.05874   0.06208
 Alpha virt. eigenvalues --    0.07233   0.07794   0.07999   0.08114   0.08455
 Alpha virt. eigenvalues --    0.08705   0.08988   0.10063   0.10122   0.10664
 Alpha virt. eigenvalues --    0.11282   0.11677   0.12266   0.12317   0.12885
 Alpha virt. eigenvalues --    0.13057   0.13135   0.13432   0.14130   0.14725
 Alpha virt. eigenvalues --    0.15113   0.15644   0.15686   0.16337   0.16914
 Alpha virt. eigenvalues --    0.17195   0.17267   0.17437   0.17728   0.18140
 Alpha virt. eigenvalues --    0.18249   0.18557   0.18746   0.19065   0.19256
 Alpha virt. eigenvalues --    0.19666   0.19838   0.20082   0.20226   0.20515
 Alpha virt. eigenvalues --    0.20794   0.21028   0.21417   0.21758   0.22060
 Alpha virt. eigenvalues --    0.22334   0.22740   0.22968   0.23456   0.23899
 Alpha virt. eigenvalues --    0.24284   0.24439   0.24774   0.25112   0.25700
 Alpha virt. eigenvalues --    0.25789   0.26575   0.26945   0.27087   0.27276
 Alpha virt. eigenvalues --    0.27668   0.28065   0.28179   0.28717   0.28945
 Alpha virt. eigenvalues --    0.29673   0.29910   0.30133   0.30294   0.31054
 Alpha virt. eigenvalues --    0.31490   0.31776   0.32343   0.33101   0.33478
 Alpha virt. eigenvalues --    0.34884   0.34945   0.35893   0.36131   0.36416
 Alpha virt. eigenvalues --    0.36584   0.37417   0.37768   0.38533   0.39012
 Alpha virt. eigenvalues --    0.39803   0.40195   0.40477   0.40986   0.41988
 Alpha virt. eigenvalues --    0.42242   0.43120   0.44825   0.45808   0.46666
 Alpha virt. eigenvalues --    0.47142   0.49166   0.50748   0.56394   0.63453
 Alpha virt. eigenvalues --    0.63838   0.64387   0.65269   0.65854   0.67196
 Alpha virt. eigenvalues --    0.67961   0.68837   0.69872   0.70744   0.71803
 Alpha virt. eigenvalues --    0.72489   0.72599   0.73436   0.74495   0.75063
 Alpha virt. eigenvalues --    0.75448   0.76073   0.76781   0.77806   0.78783
 Alpha virt. eigenvalues --    0.79188   0.80597   0.80959   0.81833   0.82411
 Alpha virt. eigenvalues --    0.83421   0.83833   0.84269   0.84694   0.85224
 Alpha virt. eigenvalues --    0.87025   0.87272   0.88768   0.89636   0.90707
 Alpha virt. eigenvalues --    0.92232   0.92956   0.94470   0.95519   0.96262
 Alpha virt. eigenvalues --    0.96703   0.97844   0.99082   0.99315   0.99961
 Alpha virt. eigenvalues --    1.00209   1.01178   1.03660   1.03916   1.05499
 Alpha virt. eigenvalues --    1.07170   1.07331   1.08552   1.08805   1.09898
 Alpha virt. eigenvalues --    1.10636   1.11233   1.11852   1.12078   1.12379
 Alpha virt. eigenvalues --    1.13189   1.13280   1.14024   1.14743   1.15832
 Alpha virt. eigenvalues --    1.16328   1.16704   1.17720   1.18607   1.19144
 Alpha virt. eigenvalues --    1.20700   1.22140   1.23195   1.23856   1.24829
 Alpha virt. eigenvalues --    1.25608   1.25863   1.26697   1.30599   1.33155
 Alpha virt. eigenvalues --    1.35951   1.39283   1.41262   1.41858   1.44164
 Alpha virt. eigenvalues --    1.46897   1.47996   1.49636   1.50383   1.51059
 Alpha virt. eigenvalues --    1.51930   1.54673   1.54975   1.56376   1.59144
 Alpha virt. eigenvalues --    1.61293   1.64490   1.65116   1.66429   1.69087
 Alpha virt. eigenvalues --    1.69724   1.71826   1.73633   1.75373   1.78099
 Alpha virt. eigenvalues --    1.79722   1.80481   1.80860   1.81296   1.82515
 Alpha virt. eigenvalues --    1.83510   1.84593   1.85147   1.86088   1.87870
 Alpha virt. eigenvalues --    1.88490   1.89542   1.91136   1.92035   1.93863
 Alpha virt. eigenvalues --    1.94316   1.96332   1.96743   1.96859   1.98181
 Alpha virt. eigenvalues --    1.99375   1.99469   2.00002   2.00409   2.01503
 Alpha virt. eigenvalues --    2.01809   2.02456   2.03591   2.05138   2.06059
 Alpha virt. eigenvalues --    2.06665   2.07138   2.08717   2.09951   2.10509
 Alpha virt. eigenvalues --    2.12939   2.13378   2.14044   2.14841   2.15088
 Alpha virt. eigenvalues --    2.15345   2.15878   2.16747   2.18237   2.18409
 Alpha virt. eigenvalues --    2.19201   2.19961   2.22567   2.23472   2.26625
 Alpha virt. eigenvalues --    2.29227   2.30261   2.30775   2.32231   2.33027
 Alpha virt. eigenvalues --    2.33626   2.34899   2.35907   2.37751   2.38292
 Alpha virt. eigenvalues --    2.38829   2.38884   2.39171   2.42219   2.42720
 Alpha virt. eigenvalues --    2.43961   2.45386   2.47653   2.48179   2.49921
 Alpha virt. eigenvalues --    2.50455   2.50777   2.51811   2.52565   2.53341
 Alpha virt. eigenvalues --    2.53982   2.54508   2.56101   2.57133   2.58757
 Alpha virt. eigenvalues --    2.59824   2.60680   2.61495   2.62594   2.63789
 Alpha virt. eigenvalues --    2.65194   2.66333   2.67858   2.68082   2.70085
 Alpha virt. eigenvalues --    2.71159   2.71848   2.72239   2.73656   2.74756
 Alpha virt. eigenvalues --    2.75082   2.76505   2.77390   2.78025   2.78356
 Alpha virt. eigenvalues --    2.79685   2.80888   2.81647   2.82335   2.83028
 Alpha virt. eigenvalues --    2.84131   2.85432   2.86895   2.87012   2.87500
 Alpha virt. eigenvalues --    2.88906   2.89508   2.90171   2.90631   2.91493
 Alpha virt. eigenvalues --    2.92739   2.93279   2.93813   2.94118   2.95374
 Alpha virt. eigenvalues --    2.97007   2.98124   2.98560   3.01452   3.04778
 Alpha virt. eigenvalues --    3.06764   3.08313   3.10908   3.23452   3.28631
 Alpha virt. eigenvalues --    3.29684   3.30633   3.30891   3.31986   3.32715
 Alpha virt. eigenvalues --    3.35243   3.37362   3.39129   3.39986   3.43681
 Alpha virt. eigenvalues --    3.45627   3.45895   3.46662   3.47489   3.48559
 Alpha virt. eigenvalues --    3.49244   3.50053   3.51134   3.51891   3.52253
 Alpha virt. eigenvalues --    3.52851   3.53730   3.56448   3.57384   3.59846
 Alpha virt. eigenvalues --    4.34538   4.41384   4.47608   4.50496   4.51665
 Alpha virt. eigenvalues --    4.53348   4.56290   4.63403   4.70950   4.77641
 Alpha virt. eigenvalues --    4.79795   4.83320   4.86127   4.89525   4.99245
 Alpha virt. eigenvalues --    5.03088   5.05329
          Condensed to atoms (all electrons):
              1          2          3          4          5          6
     1  C   11.069366  -0.066144  -1.894622  -5.676908   1.693823   0.608063
     2  C   -0.066144   5.728294   0.064900   0.350304  -0.125057   0.079537
     3  C   -1.894622   0.064900   8.264546   1.607145  -2.108108  -0.281860
     4  C   -5.676908   0.350304   1.607145  16.995981  -2.288105  -2.077978
     5  C    1.693823  -0.125057  -2.108108  -2.288105  10.277370  -1.172964
     6  C    0.608063   0.079537  -0.281860  -2.077978  -1.172964  12.517370
     7  C   -0.145572  -0.027700   0.636903   0.334264  -0.831385   0.154344
     8  C    1.695831  -0.700866   0.661295  -3.927960  -0.672283  -2.231091
     9  C   -1.887789   0.571343  -0.830688   2.468899   0.731171  -0.054168
    10  C    1.124180  -0.235607  -0.247109  -1.732562   0.271113   0.040757
    11  C   -0.575434   0.028468  -0.062148   0.893184  -0.380883   0.204454
    12  C    0.062573  -0.037198  -0.023079  -0.749986   0.334093  -0.532435
    13  C   -0.218155  -0.000310  -0.007551  -0.226709  -0.060277   0.008629
    14  C   -0.014353  -0.003573   0.014182  -0.108872  -0.012758  -0.059445
    15  N    0.043780  -0.002505   0.066912  -0.337824   0.042947  -0.646025
    16  C   -0.014488   0.004612   0.007725   0.118293  -0.054539  -0.068280
    17  H    0.187672  -0.004231   0.070626   0.028623  -0.026408  -0.002490
    18  H   -0.010164   0.421706  -0.039855  -0.058060  -0.022182   0.011257
    19  H   -0.065820   0.396198  -0.026826   0.055638   0.024510  -0.041308
    20  H    0.065448  -0.002986   0.160591  -0.013845   0.051004   0.011294
    21  H    0.013742   0.012804  -0.019641   0.421681   0.027171  -0.074709
    22  H    0.047046  -0.022674  -0.004248   0.406166  -0.058482  -0.048817
    23  H    0.005712  -0.025420  -0.071236  -0.052163   0.463212  -0.014856
    24  H   -0.000776   0.025085   0.005457   0.008697   0.391247  -0.051657
    25  H   -0.051234  -0.020041   0.004505   0.033763   0.002506  -0.043379
    26  H   -0.018117   0.011786  -0.031826  -0.043625   0.027024   0.007459
    27  H   -0.016110  -0.000265  -0.008382  -0.015389   0.016201  -0.090826
    28  H   -0.006330   0.006068   0.020677   0.056975  -0.048592  -0.028864
    29  H    0.062493  -0.018600   0.045682  -0.024799  -0.018401   0.038590
    30  H    0.024654  -0.025866  -0.045334  -0.012575   0.035104  -0.038262
    31  H   -0.041515   0.016006   0.004306   0.041145  -0.059763   0.007716
    32  H    0.011150   0.003164   0.002939   0.036812   0.000513  -0.074629
    33  H    0.007946  -0.000594   0.003079   0.036447   0.006093  -0.036974
    34  H    0.022379   0.000956   0.008825  -0.023189  -0.003714  -0.019177
    35  H    0.000130  -0.000016   0.000448  -0.000028   0.000793  -0.005202
    36  H   -0.001760   0.000013  -0.000107  -0.012456   0.000051  -0.004551
    37  H    0.000052  -0.000012   0.000022   0.000876  -0.000501   0.002056
    38  H    0.000504  -0.000067   0.000913  -0.001720   0.003846  -0.000188
    39  H   -0.000065   0.000009  -0.000393  -0.001868  -0.003282  -0.004931
    40  H   -0.000091   0.000080   0.000653   0.006404   0.000026   0.014825
    41  C    0.013584  -0.005744  -0.026129  -0.012392  -0.087997   0.134178
    42  H    0.000586  -0.000370   0.000259  -0.004089   0.033693  -0.035948
    43  H   -0.000362   0.000305   0.002494   0.012968  -0.015427   0.053850
    44  H   -0.000528  -0.000090   0.013843   0.010012  -0.080063   0.057265
              7          8          9         10         11         12
     1  C   -0.145572   1.695831  -1.887789   1.124180  -0.575434   0.062573
     2  C   -0.027700  -0.700866   0.571343  -0.235607   0.028468  -0.037198
     3  C    0.636903   0.661295  -0.830688  -0.247109  -0.062148  -0.023079
     4  C    0.334264  -3.927960   2.468899  -1.732562   0.893184  -0.749986
     5  C   -0.831385  -0.672283   0.731171   0.271113  -0.380883   0.334093
     6  C    0.154344  -2.231091  -0.054168   0.040757   0.204454  -0.532435
     7  C    5.922445  -0.140232  -0.010517  -0.233463   0.033503  -0.050387
     8  C   -0.140232  12.270677  -2.762847   1.095888  -0.539992   0.514591
     9  C   -0.010517  -2.762847   8.783994  -0.836247   0.029582  -0.214939
    10  C   -0.233463   1.095888  -0.836247   6.369690  -0.076979   0.077345
    11  C    0.033503  -0.539992   0.029582  -0.076979   8.115322  -2.056075
    12  C   -0.050387   0.514591  -0.214939   0.077345  -2.056075  10.975710
    13  C   -0.006863  -0.179548   0.020187  -0.011520   0.841017  -2.813305
    14  C   -0.000644   0.033363  -0.008694   0.001499  -0.008737  -0.819604
    15  N    0.002657   0.480390  -0.143287   0.066394  -0.204147   0.420449
    16  C    0.002635  -0.031614  -0.000655  -0.007435  -0.438144   0.648092
    17  H    0.002281  -0.008617   0.056564  -0.017146   0.001304  -0.007903
    18  H    0.013506   0.015511  -0.027456   0.016834  -0.003580  -0.002415
    19  H   -0.017856   0.004822   0.006542  -0.023707  -0.000739  -0.000267
    20  H   -0.019585  -0.017538   0.056062  -0.004692  -0.003817  -0.001372
    21  H   -0.030270  -0.050526   0.003964   0.005829  -0.022316   0.000116
    22  H    0.017912   0.015153  -0.017182   0.003445  -0.001368  -0.020418
    23  H    0.000452   0.028363  -0.012176   0.014010   0.003888  -0.028390
    24  H    0.011466  -0.036266   0.002109  -0.015345  -0.022852  -0.003427
    25  H    0.401958   0.030548  -0.031568  -0.014175  -0.000485  -0.000724
    26  H    0.399709  -0.025819  -0.025619   0.017931  -0.007550   0.000779
    27  H   -0.030201   0.482198  -0.041076   0.015982  -0.012689   0.002777
    28  H    0.023812   0.384575   0.008201  -0.053293  -0.012877  -0.013817
    29  H    0.013341   0.027893   0.155099   0.002766  -0.003012  -0.000908
    30  H   -0.025785   0.040886  -0.050951   0.411413   0.000452  -0.000256
    31  H    0.019663  -0.059881   0.006770   0.383352  -0.005654  -0.000018
    32  H    0.000293   0.044945   0.020330   0.004145   0.423249  -0.126130
    33  H   -0.000856  -0.026067   0.002971  -0.000838  -0.027570   0.275966
    34  H    0.002291   0.031509  -0.001960   0.002476  -0.169318   0.453579
    35  H    0.000158   0.005365  -0.000239   0.000061   0.017481  -0.129052
    36  H    0.000013  -0.001204  -0.000168   0.000023  -0.017235  -0.116062
    37  H    0.000000   0.000389  -0.000013  -0.000001   0.003867   0.087903
    38  H    0.000043   0.001967  -0.000153   0.000091  -0.012869   0.039625
    39  H    0.000007   0.000134   0.000035  -0.000049   0.032692  -0.016916
    40  H    0.000052   0.001569   0.001554  -0.000081   0.048562  -0.023761
    41  C   -0.004606  -0.085858  -0.015417   0.003642  -0.073619  -0.101498
    42  H   -0.000195   0.006357   0.000499   0.001013  -0.002426   0.004964
    43  H    0.000582   0.006682   0.006286  -0.000708  -0.045519  -0.029088
    44  H    0.000518  -0.052620  -0.007124  -0.012026   0.046173   0.007712
             13         14         15         16         17         18
     1  C   -0.218155  -0.014353   0.043780  -0.014488   0.187672  -0.010164
     2  C   -0.000310  -0.003573  -0.002505   0.004612  -0.004231   0.421706
     3  C   -0.007551   0.014182   0.066912   0.007725   0.070626  -0.039855
     4  C   -0.226709  -0.108872  -0.337824   0.118293   0.028623  -0.058060
     5  C   -0.060277  -0.012758   0.042947  -0.054539  -0.026408  -0.022182
     6  C    0.008629  -0.059445  -0.646025  -0.068280  -0.002490   0.011257
     7  C   -0.006863  -0.000644   0.002657   0.002635   0.002281   0.013506
     8  C   -0.179548   0.033363   0.480390  -0.031614  -0.008617   0.015511
     9  C    0.020187  -0.008694  -0.143287  -0.000655   0.056564  -0.027456
    10  C   -0.011520   0.001499   0.066394  -0.007435  -0.017146   0.016834
    11  C    0.841017  -0.008737  -0.204147  -0.438144   0.001304  -0.003580
    12  C   -2.813305  -0.819604   0.420449   0.648092  -0.007903  -0.002415
    13  C    8.381672   1.049724  -0.121799  -0.784776  -0.001015  -0.000376
    14  C    1.049724   5.770761  -0.008753  -0.041873  -0.000013   0.000044
    15  N   -0.121799  -0.008753   7.446486   0.141223   0.000061   0.000078
    16  C   -0.784776  -0.041873   0.141223   5.997754   0.000004  -0.000192
    17  H   -0.001015  -0.000013   0.000061   0.000004   0.632415  -0.004640
    18  H   -0.000376   0.000044   0.000078  -0.000192  -0.004640   0.590635
    19  H    0.000022  -0.000013  -0.000098  -0.000003  -0.003509  -0.031402
    20  H   -0.000048  -0.000133  -0.000550   0.000026  -0.000183  -0.004542
    21  H    0.008185   0.000509   0.000120   0.000816  -0.005959   0.000065
    22  H   -0.005519  -0.001017  -0.002390   0.000459  -0.004382   0.003356
    23  H   -0.006693   0.003428   0.000278  -0.006094  -0.000070   0.002804
    24  H   -0.000936  -0.000446   0.011580   0.007011   0.000020   0.000114
    25  H   -0.000037   0.000001   0.000027   0.000009  -0.003606   0.000088
    26  H    0.000059  -0.000025   0.000019  -0.000012  -0.004606  -0.000141
    27  H    0.002400  -0.000713  -0.002261   0.000098  -0.000059  -0.000003
    28  H   -0.001347  -0.000513  -0.009165   0.000261   0.000017  -0.000002
    29  H   -0.000006   0.000000   0.000005  -0.000085  -0.000166   0.000018
    30  H   -0.000036  -0.000003   0.000098   0.000034  -0.000049   0.000082
    31  H    0.000119   0.000048  -0.000510   0.000264   0.000020  -0.000143
    32  H   -0.075608  -0.035073  -0.100342  -0.009152   0.000003   0.000000
    33  H    0.058646   0.038947   0.008979  -0.017063  -0.000001   0.000001
    34  H   -0.049389  -0.016544   0.035233   0.003425   0.000010   0.000000
    35  H    0.470401  -0.060726   0.012737  -0.012554   0.000000   0.000000
    36  H    0.475637  -0.053025   0.005687   0.047330   0.000000   0.000000
    37  H   -0.102859   0.340347   0.002712  -0.012179   0.000000   0.000000
    38  H   -0.112004   0.443168   0.015218  -0.065994   0.000000   0.000000
    39  H    0.048160   0.032263  -0.071692   0.355166   0.000000   0.000000
    40  H   -0.082386  -0.088765  -0.082752   0.440353   0.000000   0.000000
    41  C   -0.042553  -0.082385   0.087945  -0.105461  -0.000195   0.000241
    42  H    0.003485   0.002967  -0.047016  -0.008113   0.000000   0.000000
    43  H   -0.013072  -0.014979  -0.097903  -0.020318   0.000000   0.000000
    44  H    0.000923   0.004354  -0.045633   0.012846   0.000000   0.000000
             19         20         21         22         23         24
     1  C   -0.065820   0.065448   0.013742   0.047046   0.005712  -0.000776
     2  C    0.396198  -0.002986   0.012804  -0.022674  -0.025420   0.025085
     3  C   -0.026826   0.160591  -0.019641  -0.004248  -0.071236   0.005457
     4  C    0.055638  -0.013845   0.421681   0.406166  -0.052163   0.008697
     5  C    0.024510   0.051004   0.027171  -0.058482   0.463212   0.391247
     6  C   -0.041308   0.011294  -0.074709  -0.048817  -0.014856  -0.051657
     7  C   -0.017856  -0.019585  -0.030270   0.017912   0.000452   0.011466
     8  C    0.004822  -0.017538  -0.050526   0.015153   0.028363  -0.036266
     9  C    0.006542   0.056062   0.003964  -0.017182  -0.012176   0.002109
    10  C   -0.023707  -0.004692   0.005829   0.003445   0.014010  -0.015345
    11  C   -0.000739  -0.003817  -0.022316  -0.001368   0.003888  -0.022852
    12  C   -0.000267  -0.001372   0.000116  -0.020418  -0.028390  -0.003427
    13  C    0.000022  -0.000048   0.008185  -0.005519  -0.006693  -0.000936
    14  C   -0.000013  -0.000133   0.000509  -0.001017   0.003428  -0.000446
    15  N   -0.000098  -0.000550   0.000120  -0.002390   0.000278   0.011580
    16  C   -0.000003   0.000026   0.000816   0.000459  -0.006094   0.007011
    17  H   -0.003509  -0.000183  -0.005959  -0.004382  -0.000070   0.000020
    18  H   -0.031402  -0.004542   0.000065   0.003356   0.002804   0.000114
    19  H    0.594933  -0.003701  -0.000157   0.000086   0.000091  -0.000166
    20  H   -0.003701   0.632255   0.000021  -0.000074  -0.003497  -0.006550
    21  H   -0.000157   0.000021   0.604095  -0.031444   0.000216  -0.000173
    22  H    0.000086  -0.000074  -0.031444   0.582125   0.002105   0.000209
    23  H    0.000091  -0.003497   0.000216   0.002105   0.571949  -0.030313
    24  H   -0.000166  -0.006550  -0.000173   0.000209  -0.030313   0.601002
    25  H    0.003250  -0.000049   0.000087  -0.000151  -0.000001  -0.000002
    26  H    0.000083   0.000019   0.003484   0.000057  -0.000003  -0.000003
    27  H   -0.000002   0.000017   0.003312   0.000033  -0.000115  -0.000011
    28  H   -0.000002  -0.000038   0.000042  -0.000123   0.000004   0.001015
    29  H   -0.000059  -0.000149  -0.000051   0.000017   0.000016  -0.000039
    30  H    0.003101  -0.003833  -0.000001  -0.000002  -0.000136   0.000054
    31  H    0.000078  -0.004532  -0.000004  -0.000004   0.000067   0.002913
    32  H    0.000000   0.000003   0.001076  -0.000083  -0.000080   0.000282
    33  H    0.000000   0.000000  -0.002217  -0.000741   0.000025  -0.000004
    34  H    0.000000   0.000001   0.000137  -0.002057   0.000235   0.000044
    35  H    0.000000   0.000000   0.000007  -0.000007   0.000000   0.000000
    36  H    0.000000   0.000000   0.000006   0.000012   0.000001   0.000000
    37  H    0.000000   0.000000   0.000000   0.000000   0.000000   0.000000
    38  H    0.000000   0.000000   0.000000  -0.000005   0.000000   0.000001
    39  H    0.000000   0.000000   0.000000   0.000000   0.000009   0.000002
    40  H    0.000000   0.000000   0.000000   0.000000  -0.000002  -0.000003
    41  C   -0.000003   0.000223   0.000422   0.000631   0.008039  -0.030133
    42  H    0.000000  -0.000001   0.000000   0.000000  -0.000026   0.000381
    43  H    0.000000   0.000000   0.000000   0.000000  -0.000021   0.000283
    44  H    0.000000  -0.000019   0.000000  -0.000003   0.000176   0.003131
             25         26         27         28         29         30
     1  C   -0.051234  -0.018117  -0.016110  -0.006330   0.062493   0.024654
     2  C   -0.020041   0.011786  -0.000265   0.006068  -0.018600  -0.025866
     3  C    0.004505  -0.031826  -0.008382   0.020677   0.045682  -0.045334
     4  C    0.033763  -0.043625  -0.015389   0.056975  -0.024799  -0.012575
     5  C    0.002506   0.027024   0.016201  -0.048592  -0.018401   0.035104
     6  C   -0.043379   0.007459  -0.090826  -0.028864   0.038590  -0.038262
     7  C    0.401958   0.399709  -0.030201   0.023812   0.013341  -0.025785
     8  C    0.030548  -0.025819   0.482198   0.384575   0.027893   0.040886
     9  C   -0.031568  -0.025619  -0.041076   0.008201   0.155099  -0.050951
    10  C   -0.014175   0.017931   0.015982  -0.053293   0.002766   0.411413
    11  C   -0.000485  -0.007550  -0.012689  -0.012877  -0.003012   0.000452
    12  C   -0.000724   0.000779   0.002777  -0.013817  -0.000908  -0.000256
    13  C   -0.000037   0.000059   0.002400  -0.001347  -0.000006  -0.000036
    14  C    0.000001  -0.000025  -0.000713  -0.000513   0.000000  -0.000003
    15  N    0.000027   0.000019  -0.002261  -0.009165   0.000005   0.000098
    16  C    0.000009  -0.000012   0.000098   0.000261  -0.000085   0.000034
    17  H   -0.003606  -0.004606  -0.000059   0.000017  -0.000166  -0.000049
    18  H    0.000088  -0.000141  -0.000003  -0.000002   0.000018   0.000082
    19  H    0.003250   0.000083  -0.000002  -0.000002  -0.000059   0.003101
    20  H   -0.000049   0.000019   0.000017  -0.000038  -0.000149  -0.003833
    21  H    0.000087   0.003484   0.003312   0.000042  -0.000051  -0.000001
    22  H   -0.000151   0.000057   0.000033  -0.000123   0.000017  -0.000002
    23  H   -0.000001  -0.000003  -0.000115   0.000004   0.000016  -0.000136
    24  H   -0.000002  -0.000003  -0.000011   0.001015  -0.000039   0.000054
    25  H    0.590891  -0.030699   0.000138  -0.000151  -0.004304   0.002878
    26  H   -0.030699   0.591952   0.003230   0.000104  -0.004102   0.000063
    27  H    0.000138   0.003230   0.587476  -0.031826  -0.004087  -0.000141
    28  H   -0.000151   0.000104  -0.031826   0.583826  -0.005180   0.000094
    29  H   -0.004304  -0.004102  -0.004087  -0.005180   0.630923  -0.004291
    30  H    0.002878   0.000063  -0.000141   0.000094  -0.004291   0.589014
    31  H    0.000057  -0.000142   0.000083   0.003007  -0.004219  -0.030606
    32  H    0.000000   0.000006   0.001924  -0.000418  -0.000017   0.000000
    33  H    0.000000  -0.000003   0.000076   0.000008   0.000000   0.000000
    34  H    0.000000   0.000000   0.000001  -0.000006   0.000000   0.000000
    35  H    0.000000   0.000000   0.000003   0.000000   0.000000   0.000000
    36  H    0.000000   0.000000   0.000000   0.000000   0.000000   0.000000
    37  H    0.000000   0.000000   0.000000   0.000000   0.000000   0.000000
    38  H    0.000000   0.000000   0.000000   0.000000   0.000000   0.000000
    39  H    0.000000   0.000000   0.000000   0.000000   0.000000   0.000000
    40  H    0.000000   0.000000   0.000000   0.000014   0.000000   0.000000
    41  C    0.000035   0.000016   0.000546  -0.015320   0.000335  -0.000027
    42  H    0.000000   0.000000  -0.000003   0.000099   0.000000   0.000000
    43  H    0.000000   0.000000  -0.000004   0.000224   0.000000   0.000000
    44  H    0.000000   0.000000   0.000133  -0.000744  -0.000012   0.000002
             31         32         33         34         35         36
     1  C   -0.041515   0.011150   0.007946   0.022379   0.000130  -0.001760
     2  C    0.016006   0.003164  -0.000594   0.000956  -0.000016   0.000013
     3  C    0.004306   0.002939   0.003079   0.008825   0.000448  -0.000107
     4  C    0.041145   0.036812   0.036447  -0.023189  -0.000028  -0.012456
     5  C   -0.059763   0.000513   0.006093  -0.003714   0.000793   0.000051
     6  C    0.007716  -0.074629  -0.036974  -0.019177  -0.005202  -0.004551
     7  C    0.019663   0.000293  -0.000856   0.002291   0.000158   0.000013
     8  C   -0.059881   0.044945  -0.026067   0.031509   0.005365  -0.001204
     9  C    0.006770   0.020330   0.002971  -0.001960  -0.000239  -0.000168
    10  C    0.383352   0.004145  -0.000838   0.002476   0.000061   0.000023
    11  C   -0.005654   0.423249  -0.027570  -0.169318   0.017481  -0.017235
    12  C   -0.000018  -0.126130   0.275966   0.453579  -0.129052  -0.116062
    13  C    0.000119  -0.075608   0.058646  -0.049389   0.470401   0.475637
    14  C    0.000048  -0.035073   0.038947  -0.016544  -0.060726  -0.053025
    15  N   -0.000510  -0.100342   0.008979   0.035233   0.012737   0.005687
    16  C    0.000264  -0.009152  -0.017063   0.003425  -0.012554   0.047330
    17  H    0.000020   0.000003  -0.000001   0.000010   0.000000   0.000000
    18  H   -0.000143   0.000000   0.000001   0.000000   0.000000   0.000000
    19  H    0.000078   0.000000   0.000000   0.000000   0.000000   0.000000
    20  H   -0.004532   0.000003   0.000000   0.000001   0.000000   0.000000
    21  H   -0.000004   0.001076  -0.002217   0.000137   0.000007   0.000006
    22  H   -0.000004  -0.000083  -0.000741  -0.002057  -0.000007   0.000012
    23  H    0.000067  -0.000080   0.000025   0.000235   0.000000   0.000001
    24  H    0.002913   0.000282  -0.000004   0.000044   0.000000   0.000000
    25  H    0.000057   0.000000   0.000000   0.000000   0.000000   0.000000
    26  H   -0.000142   0.000006  -0.000003   0.000000   0.000000   0.000000
    27  H    0.000083   0.001924   0.000076   0.000001   0.000003   0.000000
    28  H    0.003007  -0.000418   0.000008  -0.000006   0.000000   0.000000
    29  H   -0.004219  -0.000017   0.000000   0.000000   0.000000   0.000000
    30  H   -0.030606   0.000000   0.000000   0.000000   0.000000   0.000000
    31  H    0.595548   0.000001   0.000000   0.000000   0.000000   0.000000
    32  H    0.000001   0.701102  -0.008194   0.007412   0.003614  -0.000094
    33  H    0.000000  -0.008194   0.582343  -0.029599  -0.005043  -0.002481
    34  H    0.000000   0.007412  -0.029599   0.604131   0.005671  -0.006795
    35  H    0.000000   0.003614  -0.005043   0.005671   0.583223  -0.031189
    36  H    0.000000  -0.000094  -0.002481  -0.006795  -0.031189   0.592018
    37  H    0.000000   0.000047  -0.000185   0.000050  -0.003687  -0.002925
    38  H    0.000000   0.000177   0.000075   0.004153   0.004532  -0.002976
    39  H    0.000000  -0.000497   0.000009  -0.000045   0.000076  -0.000207
    40  H    0.000000   0.010504  -0.000026   0.000169   0.003802   0.000167
    41  C   -0.001772   0.040300  -0.002230   0.002077   0.003998   0.001713
    42  H    0.000003  -0.000118   0.000002   0.000006   0.000002   0.000000
    43  H    0.000005   0.013492   0.000001   0.000003   0.000003   0.000000
    44  H    0.000406  -0.002114  -0.000004  -0.000001   0.000002   0.000000
             37         38         39         40         41         42
     1  C    0.000052   0.000504  -0.000065  -0.000091   0.013584   0.000586
     2  C   -0.000012  -0.000067   0.000009   0.000080  -0.005744  -0.000370
     3  C    0.000022   0.000913  -0.000393   0.000653  -0.026129   0.000259
     4  C    0.000876  -0.001720  -0.001868   0.006404  -0.012392  -0.004089
     5  C   -0.000501   0.003846  -0.003282   0.000026  -0.087997   0.033693
     6  C    0.002056  -0.000188  -0.004931   0.014825   0.134178  -0.035948
     7  C    0.000000   0.000043   0.000007   0.000052  -0.004606  -0.000195
     8  C    0.000389   0.001967   0.000134   0.001569  -0.085858   0.006357
     9  C   -0.000013  -0.000153   0.000035   0.001554  -0.015417   0.000499
    10  C   -0.000001   0.000091  -0.000049  -0.000081   0.003642   0.001013
    11  C    0.003867  -0.012869   0.032692   0.048562  -0.073619  -0.002426
    12  C    0.087903   0.039625  -0.016916  -0.023761  -0.101498   0.004964
    13  C   -0.102859  -0.112004   0.048160  -0.082386  -0.042553   0.003485
    14  C    0.340347   0.443168   0.032263  -0.088765  -0.082385   0.002967
    15  N    0.002712   0.015218  -0.071692  -0.082752   0.087945  -0.047016
    16  C   -0.012179  -0.065994   0.355166   0.440353  -0.105461  -0.008113
    17  H    0.000000   0.000000   0.000000   0.000000  -0.000195   0.000000
    18  H    0.000000   0.000000   0.000000   0.000000   0.000241   0.000000
    19  H    0.000000   0.000000   0.000000   0.000000  -0.000003   0.000000
    20  H    0.000000   0.000000   0.000000   0.000000   0.000223  -0.000001
    21  H    0.000000   0.000000   0.000000   0.000000   0.000422   0.000000
    22  H    0.000000  -0.000005   0.000000   0.000000   0.000631   0.000000
    23  H    0.000000   0.000000   0.000009  -0.000002   0.008039  -0.000026
    24  H    0.000000   0.000001   0.000002  -0.000003  -0.030133   0.000381
    25  H    0.000000   0.000000   0.000000   0.000000   0.000035   0.000000
    26  H    0.000000   0.000000   0.000000   0.000000   0.000016   0.000000
    27  H    0.000000   0.000000   0.000000   0.000000   0.000546  -0.000003
    28  H    0.000000   0.000000   0.000000   0.000014  -0.015320   0.000099
    29  H    0.000000   0.000000   0.000000   0.000000   0.000335   0.000000
    30  H    0.000000   0.000000   0.000000   0.000000  -0.000027   0.000000
    31  H    0.000000   0.000000   0.000000   0.000000  -0.001772   0.000003
    32  H    0.000047   0.000177  -0.000497   0.010504   0.040300  -0.000118
    33  H   -0.000185   0.000075   0.000009  -0.000026  -0.002230   0.000002
    34  H    0.000050   0.004153  -0.000045   0.000169   0.002077   0.000006
    35  H   -0.003687   0.004532   0.000076   0.003802   0.003998   0.000002
    36  H   -0.002925  -0.002976  -0.000207   0.000167   0.001713   0.000000
    37  H    0.588145  -0.029334  -0.004586  -0.001017  -0.000624  -0.000017
    38  H   -0.029334   0.558914  -0.003862   0.004508   0.003026   0.000002
    39  H   -0.004586  -0.003862   0.603742  -0.045859  -0.045567   0.004076
    40  H   -0.001017   0.004508  -0.045859   0.628018   0.028598  -0.002262
    41  C   -0.000624   0.003026  -0.045567   0.028598   5.415848   0.398501
    42  H   -0.000017   0.000002   0.004076  -0.002262   0.398501   0.573277
    43  H    0.000016  -0.000002  -0.002357   0.012706   0.467436  -0.038174
    44  H    0.000002   0.000003   0.000407  -0.000158   0.393470  -0.025610
             43         44
     1  C   -0.000362  -0.000528
     2  C    0.000305  -0.000090
     3  C    0.002494   0.013843
     4  C    0.012968   0.010012
     5  C   -0.015427  -0.080063
     6  C    0.053850   0.057265
     7  C    0.000582   0.000518
     8  C    0.006682  -0.052620
     9  C    0.006286  -0.007124
    10  C   -0.000708  -0.012026
    11  C   -0.045519   0.046173
    12  C   -0.029088   0.007712
    13  C   -0.013072   0.000923
    14  C   -0.014979   0.004354
    15  N   -0.097903  -0.045633
    16  C   -0.020318   0.012846
    17  H    0.000000   0.000000
    18  H    0.000000   0.000000
    19  H    0.000000   0.000000
    20  H    0.000000  -0.000019
    21  H    0.000000   0.000000
    22  H    0.000000  -0.000003
    23  H   -0.000021   0.000176
    24  H    0.000283   0.003131
    25  H    0.000000   0.000000
    26  H    0.000000   0.000000
    27  H   -0.000004   0.000133
    28  H    0.000224  -0.000744
    29  H    0.000000  -0.000012
    30  H    0.000000   0.000002
    31  H    0.000005   0.000406
    32  H    0.013492  -0.002114
    33  H    0.000001  -0.000004
    34  H    0.000003  -0.000001
    35  H    0.000003   0.000002
    36  H    0.000000   0.000000
    37  H    0.000016   0.000002
    38  H   -0.000002   0.000003
    39  H   -0.002357   0.000407
    40  H    0.012706  -0.000158
    41  C    0.467436   0.393470
    42  H   -0.038174  -0.025610
    43  H    0.614722  -0.042846
    44  H   -0.042846   0.583371
 Mulliken atomic charges:
              1
     1  C   -0.054379
     2  C   -0.395702
     3  C    0.060213
     4  C   -0.521176
     5  C   -0.302342
     6  C   -0.210628
     7  C   -0.418690
     8  C   -0.330073
     9  C    0.048773
    10  C   -0.406895
    11  C    0.064834
    12  C    0.013155
    13  C   -0.444566
    14  C   -0.293927
    15  N    0.032637
    16  C   -0.089414
    17  H    0.115631
    18  H    0.128810
    19  H    0.126286
    20  H    0.114771
    21  H    0.129564
    22  H    0.142381
    23  H    0.146212
    24  H    0.126997
    25  H    0.129865
    26  H    0.128512
    27  H    0.137533
    28  H    0.139586
    29  H    0.115310
    30  H    0.130228
    31  H    0.127187
    32  H    0.105067
    33  H    0.139079
    34  H    0.137023
    35  H    0.135236
    36  H    0.130564
    37  H    0.131454
    38  H    0.148407
    39  H    0.125390
    40  H    0.124598
    41  C   -0.265275
    42  H    0.134197
    43  H    0.128721
    44  H    0.134846
 Sum of Mulliken atomic charges =   0.00000
 Mulliken charges with hydrogens summed into heavy atoms:
              1
     1  C    0.061253
     2  C   -0.140606
     3  C    0.174984
     4  C   -0.249231
     5  C   -0.029133
     6  C   -0.210628
     7  C   -0.160313
     8  C   -0.052954
     9  C    0.164083
    10  C   -0.149480
    11  C    0.169901
    12  C    0.289257
    13  C   -0.178766
    14  C   -0.014066
    15  N    0.032637
    16  C    0.160574
    41  C    0.132488
 Sum of Mulliken charges with hydrogens summed into heavy atoms =   0.00000
 Electronic spatial extent (au):  <R**2>=           4240.3095
 Charge=              0.0000 electrons
 Dipole moment (field-independent basis, Debye):
    X=              0.1526    Y=             -0.0857    Z=             -0.4494  Tot=              0.4823
 Quadrupole moment (field-independent basis, Debye-Ang):
   XX=           -108.5488   YY=           -108.4095   ZZ=           -111.4905
   XY=             -0.3392   XZ=             -0.1616   YZ=             -0.3888
 Traceless Quadrupole moment (field-independent basis, Debye-Ang):
   XX=              0.9341   YY=              1.0734   ZZ=             -2.0076
   XY=             -0.3392   XZ=             -0.1616   YZ=             -0.3888
 Octapole moment (field-independent basis, Debye-Ang**2):
  XXX=             14.3468  YYY=              6.5801  ZZZ=              1.8382  XYY=              4.6807
  XXY=              1.4251  XXZ=              2.4719  XZZ=             -0.4573  YZZ=             -2.9817
  YYZ=              1.6864  XYZ=             -0.0942
 Hexadecapole moment (field-independent basis, Debye-Ang**3):
 XXXX=          -4127.8081 YYYY=          -1167.1503 ZZZZ=           -698.7276 XXXY=              5.0148
 XXXZ=             15.8326 YYYX=             11.0286 YYYZ=              6.3267 ZZZX=              6.0383
 ZZZY=              2.3692 XXYY=           -896.3202 XXZZ=           -826.3970 YYZZ=           -312.6846
 XXYZ=              2.4972 YYXZ=              7.7226 ZZXY=             -5.7644
 N-N= 1.374753214881D+03 E-N=-4.323345693678D+03  KE= 6.736588255794D+02
 1\1\GINC-ROCK\SP\RB3LYP\6-31+G(d,p)\C16H27N1\STYLIANAKIS\19-Feb-2018\0
 \\# b3lyp/6-31+g(d,p)\\2-(1-Ad)-N-Me-pip-ecl.hin\\0,1\C,0,-1.6406,0.05
 372,-2.58291\C,0,-2.97963,0.27065,-1.86735\C,0,-2.7071,1.1125,-0.61494
 \C,0,-0.66296,-0.64636,-1.62027\C,0,-1.69943,0.38132,0.29066\C,0,-0.29
 988,0.22026,-0.37604\C,0,-1.06643,1.40708,-3.02845\C,0,0.21298,1.58712
 ,-0.87826\C,0,-0.81673,2.27733,-1.78756\C,0,-2.13358,2.48021,-1.02073\
 C,0,0.72498,-0.46451,0.61743\C,0,1.09839,-1.90349,0.17662\C,0,2.03504,
 -2.66559,1.11912\C,0,1.48109,-2.5571,2.54099\N,0,0.47765,-0.31795,2.05
 932\C,0,1.44149,-1.06408,2.87087\X,0,-0.07453,-0.52316,2.17989\H,0,-1.
 80917,-0.58808,-3.48381\H,0,-3.4345,-0.7086,-1.58544\H,0,-3.70724,0.78
 549,-2.53855\H,0,-3.66989,1.26287,-0.06503\H,0,0.26211,-0.8498,-2.2070
 8\H,0,-1.10799,-1.62941,-1.34308\H,0,-2.09905,-0.6193,0.57992\H,0,-1.6
 7862,0.95757,1.23603\H,0,-1.77594,1.91806,-3.72169\H,0,-0.11607,1.2568
 ,-3.59348\H,0,1.16558,1.44564,-1.44101\H,0,0.45021,2.26487,-0.0285\H,0
 ,-0.41834,3.27176,-2.10968\H,0,-2.86701,3.02862,-1.65821\H,0,-1.95858,
 3.10889,-0.11563\H,0,1.69301,0.06035,0.43423\H,0,1.56077,-1.92325,-0.8
 3849\H,0,0.16009,-2.5039,0.14795\H,0,3.0637,-2.23506,1.06672\H,0,2.114
 02,-3.73763,0.81529\H,0,2.14829,-3.10095,3.25267\H,0,0.46239,-3.00763,
 2.61378\H,0,1.15721,-0.97836,3.94784\H,0,2.46942,-0.6385,2.77177\C,0,0
 .58216,1.07259,2.52005\H,0,0.31106,1.14823,3.59877\H,0,1.61316,1.47647
 ,2.38823\H,0,-0.09215,1.78165,2.00316\\Version=EM64L-G09RevA.01\State=
 1-A\HF=-680.7522659\RMSD=9.606e-09\Dipole=0.1827661,0.0216119,-0.04620
 29\Quadrupole=-0.6988894,0.6703849,0.0285045,-0.7607313,0.7896162,0.40
 445\PG=C01 [X(C16H27N1)]\\@


 At the touch of love, everyone becomves a poet.
                                -- Plato
 Job cpu time:  0 days  1 hours  8 minutes  5.6 seconds.
 File lengths (MBytes):  RWF=    113 Int=      0 D2E=      0 Chk=      8 Scr=      1
 Normal termination of Gaussian 09 at Mon Feb 19 02:36:14 2018.
