 Entering Gaussian System, Link 0=g09
 Input=3,3-Dimethil-N-methylpyrrolidine-lp.gjf
 Output=3,3-Dimethil-N-methylpyrrolidine-lp.out
 Initial command:
 /usr/local/g09/l1.exe /home/scratch/stylianakis/Gau-17187.inp -scrdir=/home/scratch/stylianakis/
 Entering Link 1 = /usr/local/g09/l1.exe PID=     17188.
  
 Copyright (c) 1988,1990,1992,1993,1995,1998,2003,2009, Gaussian, Inc.
                  All Rights Reserved.
  
 This is part of the Gaussian(R) 09 program.  It is based on
 the Gaussian(R) 03 system (copyright 2003, Gaussian, Inc.),
 the Gaussian(R) 98 system (copyright 1998, Gaussian, Inc.),
 the Gaussian(R) 94 system (copyright 1995, Gaussian, Inc.),
 the Gaussian 92(TM) system (copyright 1992, Gaussian, Inc.),
 the Gaussian 90(TM) system (copyright 1990, Gaussian, Inc.),
 the Gaussian 88(TM) system (copyright 1988, Gaussian, Inc.),
 the Gaussian 86(TM) system (copyright 1986, Carnegie Mellon
 University), and the Gaussian 82(TM) system (copyright 1983,
 Carnegie Mellon University). Gaussian is a federally registered
 trademark of Gaussian, Inc.
  
 This software contains proprietary and confidential information,
 including trade secrets, belonging to Gaussian, Inc.
  
 This software is provided under written license and may be
 used, copied, transmitted, or stored only in accord with that
 written license.
  
 The following legend is applicable only to US Government
 contracts under FAR:
  
                    RESTRICTED RIGHTS LEGEND
  
 Use, reproduction and disclosure by the US Government is
 subject to restrictions as set forth in subparagraphs (a)
 and (c) of the Commercial Computer Software - Restricted
 Rights clause in FAR 52.227-19.
  
 Gaussian, Inc.
 340 Quinnipiac St., Bldg. 40, Wallingford CT 06492
  
  
 ---------------------------------------------------------------
 Warning -- This program may not be used in any manner that
 competes with the business of Gaussian, Inc. or will provide
 assistance to any competitor of Gaussian, Inc.  The licensee
 of this program is prohibited from giving any competitor of
 Gaussian, Inc. access to this program.  By using this program,
 the user acknowledges that Gaussian, Inc. is engaged in the
 business of creating and licensing software in the field of
 computational chemistry and represents and warrants to the
 licensee that it is not a competitor of Gaussian, Inc. and that
 it will not use this program in any manner prohibited above.
 ---------------------------------------------------------------
  

 Cite this work as:
 Gaussian 09, Revision A.01,
 M. J. Frisch, G. W. Trucks, H. B. Schlegel, G. E. Scuseria, 
 M. A. Robb, J. R. Cheeseman, G. Scalmani, V. Barone, B. Mennucci, 
 G. A. Petersson, H. Nakatsuji, M. Caricato, X. Li, H. P. Hratchian, 
 A. F. Izmaylov, J. Bloino, G. Zheng, J. L. Sonnenberg, M. Hada, 
 M. Ehara, K. Toyota, R. Fukuda, J. Hasegawa, M. Ishida, T. Nakajima, 
 Y. Honda, O. Kitao, H. Nakai, T. Vreven, J. A. Montgomery, Jr., 
 J. E. Peralta, F. Ogliaro, M. Bearpark, J. J. Heyd, E. Brothers, 
 K. N. Kudin, V. N. Staroverov, R. Kobayashi, J. Normand, 
 K. Raghavachari, A. Rendell, J. C. Burant, S. S. Iyengar, J. Tomasi, 
 M. Cossi, N. Rega, J. M. Millam, M. Klene, J. E. Knox, J. B. Cross, 
 V. Bakken, C. Adamo, J. Jaramillo, R. Gomperts, R. E. Stratmann, 
 O. Yazyev, A. J. Austin, R. Cammi, C. Pomelli, J. W. Ochterski, 
 R. L. Martin, K. Morokuma, V. G. Zakrzewski, G. A. Voth, 
 P. Salvador, J. J. Dannenberg, S. Dapprich, A. D. Daniels, 
 O. Farkas, J. B. Foresman, J. V. Ortiz, J. Cioslowski, 
 and D. J. Fox, Gaussian, Inc., Wallingford CT, 2009.
 
 ******************************************
 Gaussian 09:  EM64L-G09RevA.01  8-May-2009
                19-Feb-2018 
 ******************************************
 %mem=8000Mb
 %nproc=4
 Will use up to    4 processors via shared memory.
 -------------------
 # b3lyp/6-31+g(d,p)
 -------------------
 1/38=1/1;
 2/12=2,17=6,18=5,40=1/2;
 3/5=1,6=6,7=111,11=2,16=1,25=1,30=1,74=-5/1,2,3;
 4//1;
 5/5=2,38=5/2;
 6/7=2,8=2,9=2,10=2,28=1/1;
 99/5=1,9=1/99;
 ---------------------------------------
 3,3-Dimethil-N-methylpyrrolidine-lp.hin
 ---------------------------------------
 Symbolic Z-matrix:
 Charge =  0 Multiplicity = 1
 C                     0.85996  -0.15922   0.50751 
 C                     0.05067  -1.40581   0.07967 
 C                    -1.29417  -0.84804  -0.42299 
 C                     0.02074   0.99389  -0.07846 
 N                    -1.34166   0.51876   0.06363 
 C                    -2.3241    1.3446   -0.60963 
 H                    -0.09544  -2.10975   0.9321 
 H                     0.5624   -1.97191  -0.73385 
 C                     2.29341  -0.16087  -0.04549 
 C                     0.9025   -0.05296   2.04555 
 H                    -2.16819  -1.4338   -0.05065 
 H                    -1.30902  -0.86283  -1.53984 
 H                     0.26658   1.14536  -1.15673 
 H                     0.17769   1.95808   0.45983 
 H                    -2.12087   1.41928  -1.70314 
 H                    -3.3442    0.9195   -0.46456 
 H                    -2.31863   2.37211  -0.17778 
 Xx                   -1.47912   0.50762   0.64978 
 H                     2.30364  -0.23829  -1.15667 
 H                     2.87467  -1.0215    0.35722 
 H                     2.82785   0.77661   0.23058 
 H                     1.456    -0.91044   2.49206 
 H                    -0.11945  -0.04329   2.48889 
 H                     1.4166    0.88049   2.36981 
 
                          Input orientation:                          
 ---------------------------------------------------------------------
 Center     Atomic      Atomic             Coordinates (Angstroms)
 Number     Number       Type             X           Y           Z
 ---------------------------------------------------------------------
      1          6           0        0.859960   -0.159220    0.507510
      2          6           0        0.050670   -1.405810    0.079670
      3          6           0       -1.294170   -0.848040   -0.422990
      4          6           0        0.020740    0.993890   -0.078460
      5          7           0       -1.341660    0.518760    0.063630
      6          6           0       -2.324100    1.344600   -0.609630
      7          1           0       -0.095440   -2.109750    0.932100
      8          1           0        0.562400   -1.971910   -0.733850
      9          6           0        2.293410   -0.160870   -0.045490
     10          6           0        0.902500   -0.052960    2.045550
     11          1           0       -2.168190   -1.433800   -0.050650
     12          1           0       -1.309020   -0.862830   -1.539840
     13          1           0        0.266580    1.145360   -1.156730
     14          1           0        0.177690    1.958080    0.459830
     15          1           0       -2.120870    1.419280   -1.703140
     16          1           0       -3.344200    0.919500   -0.464560
     17          1           0       -2.318630    2.372110   -0.177780
     18          1           0        2.303640   -0.238290   -1.156670
     19          1           0        2.874670   -1.021500    0.357220
     20          1           0        2.827850    0.776610    0.230580
     21          1           0        1.456000   -0.910440    2.492060
     22          1           0       -0.119450   -0.043290    2.488890
     23          1           0        1.416600    0.880490    2.369810
 ---------------------------------------------------------------------
                    Distance matrix (angstroms):
                    1          2          3          4          5
     1  C    0.000000
     2  C    1.546604   0.000000
     3  C    2.445522   1.540250   0.000000
     4  C    1.541854   2.405091   2.289191   0.000000
     5  N    2.346022   2.375460   1.451619   1.449852   0.000000
     6  C    3.694281   3.698570   2.429663   2.429694   1.449303
     7  H    2.213060   1.115131   2.205705   3.266085   3.035847
     8  H    2.217061   1.115415   2.192389   3.085272   3.234943
     9  C    1.536421   2.568156   3.672253   2.549429   3.699667
    10  C    1.542293   2.533871   3.398706   2.526819   3.048135
    11  H    3.332535   2.222860   1.116093   3.268924   2.123371
    12  H    3.064504   2.183208   1.117047   2.711329   2.116831
    13  H    2.196298   2.843197   2.635898   1.116265   2.113845
    14  H    2.225022   3.387685   3.289385   1.115371   2.130033
    15  H    4.032863   3.984361   2.731841   2.721587   2.130629
    16  H    4.447867   4.150710   2.707129   3.387835   2.109442
    17  H    4.120763   4.466827   3.388069   2.716985   2.108947
    18  H    2.204531   2.822678   3.722139   2.809348   3.917967
    19  H    2.196627   2.863513   4.244767   3.520871   4.498448
    20  H    2.196602   3.535316   4.478581   2.832416   4.180810
    21  H    2.204095   2.835484   4.008097   3.506283   3.970741
    22  H    2.213267   2.773039   3.241394   2.772487   2.773370
    23  H    2.204315   3.512502   4.258617   2.820516   3.613490
                    6          7          8          9         10
     6  C    0.000000
     7  H    4.390489   0.000000
     8  H    4.398471   1.796425   0.000000
     9  C    4.889386   3.234257   2.598096   0.000000
    10  C    4.406144   2.542841   3.394569   2.513707   0.000000
    11  H    2.838357   2.391443   2.865737   4.639639   3.966095
    12  H    2.601620   3.022925   2.319890   3.962743   4.289724
    13  H    2.655304   3.884586   3.159701   2.655020   3.477781
    14  H    2.789096   4.104251   4.125251   3.036704   2.661605
    15  H    1.114739   4.847774   4.431662   4.972982   5.035964
    16  H    1.114612   4.656335   4.867678   5.755473   5.028001
    17  H    1.114586   5.124595   5.242142   5.263497   4.604328
    18  H    4.921460   3.690651   2.493217   1.113921   3.500250
    19  H    5.793137   3.215016   2.727692   1.113877   2.770917
    20  H    5.250824   4.167593   3.690088   1.113871   2.772954
    21  H    5.384686   2.505751   3.511657   2.775297   1.114004
    22  H    4.048153   2.587359   3.817139   3.501257   1.114013
    23  H    4.804716   3.646205   4.300994   2.772526   1.113900
                   11         12         13         14         15
    11  H    0.000000
    12  H    1.811592   0.000000
    13  H    3.715318   2.581107   0.000000
    14  H    4.155550   3.763844   1.811541   0.000000
    15  H    3.297427   2.427714   2.464450   3.201894   0.000000
    16  H    2.663145   2.911166   3.683455   3.786404   1.811187
    17  H    3.811003   3.652308   3.024330   2.609517   1.809342
    18  H    4.759179   3.686215   2.462539   3.457857   4.756307
    19  H    5.076100   4.596442   3.713416   4.020215   5.929411
    20  H    5.470413   4.789138   2.936104   2.910631   5.351834
    21  H    4.458030   4.889153   4.353700   3.740647   5.985090
    22  H    3.546846   4.279882   3.853888   2.865460   4.870104
    23  H    4.905638   5.074794   3.718761   2.518754   5.421523
                   16         17         18         19         20
    16  H    0.000000
    17  H    1.801142   0.000000
    18  H    5.806685   5.397943   0.000000
    19  H    6.566365   6.226811   1.797597   0.000000
    20  H    6.212716   5.403576   1.797020   1.803172   0.000000
    21  H    5.927242   5.670186   3.805721   2.565638   3.137260
    22  H    4.477594   4.216833   4.381723   3.803376   3.802470
    23  H    5.540793   4.760997   3.804546   3.129545   2.564902
                   21         22         23
    21  H    0.000000
    22  H    1.798333   0.000000
    23  H    1.795530   1.796385   0.000000
 Stoichiometry    C7H15N
 Framework group  C1[X(C7H15N)]
 Deg. of freedom    63
 Full point group                 C1      NOp   1
 Largest Abelian subgroup         C1      NOp   1
 Largest concise Abelian subgroup C1      NOp   1
                         Standard orientation:                         
 ---------------------------------------------------------------------
 Center     Atomic      Atomic             Coordinates (Angstroms)
 Number     Number       Type             X           Y           Z
 ---------------------------------------------------------------------
      1          6           0       -1.023848   -0.075601   -0.021194
      2          6           0       -0.490587    1.372965    0.075107
      3          6           0        1.042331    1.231860    0.023897
      4          6           0        0.238061   -0.863636   -0.426039
      5          7           0        1.300880   -0.173667    0.278539
      6          6           0        2.631921   -0.601230   -0.103559
      7          1           0       -0.821024    1.867551    1.018353
      8          1           0       -0.849094    2.002857   -0.772749
      9          6           0       -2.149336   -0.228586   -1.055826
     10          6           0       -1.524675   -0.552357    1.357407
     11          1           0        1.558175    1.874326    0.776761
     12          1           0        1.408362    1.515581   -0.992625
     13          1           0        0.400169   -0.799241   -1.528591
     14          1           0        0.185261   -1.939793   -0.137678
     15          1           0        2.816753   -0.451705   -1.192652
     16          1           0        3.396548   -0.027955    0.470078
     17          1           0        2.767825   -1.681853    0.133267
     18          1           0       -1.824878    0.108282   -2.066799
     19          1           0       -3.039164    0.376856   -0.768826
     20          1           0       -2.468432   -1.292220   -1.142833
     21          1           0       -2.402426    0.045182    1.694314
     22          1           0       -0.735649   -0.463083    2.138748
     23          1           0       -1.841780   -1.619602    1.322700
 ---------------------------------------------------------------------
 Rotational constants (GHZ):      3.4562437      1.4732842      1.3815349
 Standard basis: 6-31+G(d,p) (6D, 7F)
 There are   227 symmetry adapted basis functions of A   symmetry.
 Integral buffers will be    131072 words long.
 Raffenetti 2 integral format.
 Two-electron integral symmetry is turned on.
   227 basis functions,   361 primitive gaussians,   227 cartesian basis functions
    32 alpha electrons       32 beta electrons
       nuclear repulsion energy       417.3697523862 Hartrees.
 NAtoms=   23 NActive=   23 NUniq=   23 SFac= 7.50D-01 NAtFMM=   80 NAOKFM=F Big=F
 One-electron integrals computed using PRISM.
 NBasis=   227 RedAO= T  NBF=   227
 NBsUse=   227 1.00D-06 NBFU=   227
 Harris functional with IExCor=  402 diagonalized for initial guess.
 ExpMin= 4.38D-02 ExpMax= 4.17D+03 ExpMxC= 6.27D+02 IAcc=2 IRadAn=         0 AccDes= 0.00D+00
 HarFok:  IExCor=  402 AccDes= 0.00D+00 IRadAn=         0 IDoV= 1
 ScaDFX=  1.000000  1.000000  1.000000  1.000000
 FoFCou: FMM=F IPFlag=           0 FMFlag=      100000 FMFlg1=           0
         NFxFlg=           0 DoJE=T BraDBF=F KetDBF=T FulRan=T
         Omega=  0.000000  0.000000  1.000000  0.000000  0.000000 ICntrl=     500 IOpCl=  0
         NMat0=    1 NMatS0=    1 NMatT0=    0 NMatD0=    1 NMtDS0=    0 NMtDT0=    0
         I1Cent=           4 NGrid=           0.
 Petite list used in FoFCou.
 Initial guess orbital symmetries:
       Occupied  (A) (A) (A) (A) (A) (A) (A) (A) (A) (A) (A) (A)
                 (A) (A) (A) (A) (A) (A) (A) (A) (A) (A) (A) (A)
                 (A) (A) (A) (A) (A) (A) (A) (A)
       Virtual   (A) (A) (A) (A) (A) (A) (A) (A) (A) (A) (A) (A)
                 (A) (A) (A) (A) (A) (A) (A) (A) (A) (A) (A) (A)
                 (A) (A) (A) (A) (A) (A) (A) (A) (A) (A) (A) (A)
                 (A) (A) (A) (A) (A) (A) (A) (A) (A) (A) (A) (A)
                 (A) (A) (A) (A) (A) (A) (A) (A) (A) (A) (A) (A)
                 (A) (A) (A) (A) (A) (A) (A) (A) (A) (A) (A) (A)
                 (A) (A) (A) (A) (A) (A) (A) (A) (A) (A) (A) (A)
                 (A) (A) (A) (A) (A) (A) (A) (A) (A) (A) (A) (A)
                 (A) (A) (A) (A) (A) (A) (A) (A) (A) (A) (A) (A)
                 (A) (A) (A) (A) (A) (A) (A) (A) (A) (A) (A) (A)
                 (A) (A) (A) (A) (A) (A) (A) (A) (A) (A) (A) (A)
                 (A) (A) (A) (A) (A) (A) (A) (A) (A) (A) (A) (A)
                 (A) (A) (A) (A) (A) (A) (A) (A) (A) (A) (A) (A)
                 (A) (A) (A) (A) (A) (A) (A) (A) (A) (A) (A) (A)
                 (A) (A) (A) (A) (A) (A) (A) (A) (A) (A) (A) (A)
                 (A) (A) (A) (A) (A) (A) (A) (A) (A) (A) (A) (A)
                 (A) (A) (A)
 The electronic state of the initial guess is 1-A.
 Requested convergence on RMS density matrix=1.00D-08 within 128 cycles.
 Requested convergence on MAX density matrix=1.00D-06.
 Requested convergence on             energy=1.00D-06.
 No special actions if energy rises.
 Keep R1 ints in memory in canonical form, NReq=341149413.
 SCF Done:  E(RB3LYP) =  -330.550413015     A.U. after   12 cycles
             Convg  =    0.7835D-08             -V/T =  2.0107

 **********************************************************************

            Population analysis using the SCF density.

 **********************************************************************

 Orbital symmetries:
       Occupied  (A) (A) (A) (A) (A) (A) (A) (A) (A) (A) (A) (A)
                 (A) (A) (A) (A) (A) (A) (A) (A) (A) (A) (A) (A)
                 (A) (A) (A) (A) (A) (A) (A) (A)
       Virtual   (A) (A) (A) (A) (A) (A) (A) (A) (A) (A) (A) (A)
                 (A) (A) (A) (A) (A) (A) (A) (A) (A) (A) (A) (A)
                 (A) (A) (A) (A) (A) (A) (A) (A) (A) (A) (A) (A)
                 (A) (A) (A) (A) (A) (A) (A) (A) (A) (A) (A) (A)
                 (A) (A) (A) (A) (A) (A) (A) (A) (A) (A) (A) (A)
                 (A) (A) (A) (A) (A) (A) (A) (A) (A) (A) (A) (A)
                 (A) (A) (A) (A) (A) (A) (A) (A) (A) (A) (A) (A)
                 (A) (A) (A) (A) (A) (A) (A) (A) (A) (A) (A) (A)
                 (A) (A) (A) (A) (A) (A) (A) (A) (A) (A) (A) (A)
                 (A) (A) (A) (A) (A) (A) (A) (A) (A) (A) (A) (A)
                 (A) (A) (A) (A) (A) (A) (A) (A) (A) (A) (A) (A)
                 (A) (A) (A) (A) (A) (A) (A) (A) (A) (A) (A) (A)
                 (A) (A) (A) (A) (A) (A) (A) (A) (A) (A) (A) (A)
                 (A) (A) (A) (A) (A) (A) (A) (A) (A) (A) (A) (A)
                 (A) (A) (A) (A) (A) (A) (A) (A) (A) (A) (A) (A)
                 (A) (A) (A) (A) (A) (A) (A) (A) (A) (A) (A) (A)
                 (A) (A) (A)
 The electronic state is 1-A.
 Alpha  occ. eigenvalues --  -14.32794 -10.20915 -10.20880 -10.20648 -10.19961
 Alpha  occ. eigenvalues --  -10.18535 -10.18244 -10.17673  -0.94045  -0.81095
 Alpha  occ. eigenvalues --   -0.73733  -0.69643  -0.67957  -0.64322  -0.57358
 Alpha  occ. eigenvalues --   -0.54132  -0.48644  -0.47752  -0.44480  -0.43725
 Alpha  occ. eigenvalues --   -0.42088  -0.40760  -0.40513  -0.38717  -0.36782
 Alpha  occ. eigenvalues --   -0.35710  -0.35204  -0.34772  -0.32109  -0.31626
 Alpha  occ. eigenvalues --   -0.31417  -0.21796
 Alpha virt. eigenvalues --    0.00334   0.01513   0.02486   0.02571   0.04016
 Alpha virt. eigenvalues --    0.04381   0.04588   0.04881   0.05792   0.06460
 Alpha virt. eigenvalues --    0.06983   0.07877   0.08376   0.09072   0.09358
 Alpha virt. eigenvalues --    0.09714   0.10394   0.11906   0.12680   0.13439
 Alpha virt. eigenvalues --    0.13995   0.14614   0.15572   0.16976   0.17627
 Alpha virt. eigenvalues --    0.18181   0.18594   0.19429   0.19907   0.20626
 Alpha virt. eigenvalues --    0.21634   0.22358   0.22721   0.23279   0.24031
 Alpha virt. eigenvalues --    0.24494   0.25556   0.27243   0.27411   0.28149
 Alpha virt. eigenvalues --    0.29024   0.29840   0.30283   0.30766   0.31582
 Alpha virt. eigenvalues --    0.32531   0.33083   0.33999   0.35812   0.37062
 Alpha virt. eigenvalues --    0.37969   0.38691   0.40312   0.44764   0.48833
 Alpha virt. eigenvalues --    0.61847   0.64454   0.65069   0.65409   0.66795
 Alpha virt. eigenvalues --    0.67657   0.68534   0.70947   0.72313   0.72621
 Alpha virt. eigenvalues --    0.74691   0.76545   0.77086   0.78791   0.79331
 Alpha virt. eigenvalues --    0.82713   0.86115   0.87567   0.89387   0.89614
 Alpha virt. eigenvalues --    0.92034   0.92809   0.95266   0.98026   0.99708
 Alpha virt. eigenvalues --    1.00208   1.00746   1.01500   1.02123   1.02656
 Alpha virt. eigenvalues --    1.04945   1.08160   1.09961   1.11182   1.11611
 Alpha virt. eigenvalues --    1.13306   1.13490   1.16484   1.21724   1.24964
 Alpha virt. eigenvalues --    1.26818   1.31786   1.35000   1.41085   1.44434
 Alpha virt. eigenvalues --    1.46515   1.50405   1.54323   1.57136   1.61898
 Alpha virt. eigenvalues --    1.66903   1.70727   1.74076   1.76897   1.80811
 Alpha virt. eigenvalues --    1.81403   1.83188   1.87480   1.87905   1.91118
 Alpha virt. eigenvalues --    1.91828   1.93838   1.96890   1.97376   2.00438
 Alpha virt. eigenvalues --    2.02310   2.03328   2.04533   2.04759   2.05740
 Alpha virt. eigenvalues --    2.05989   2.07702   2.08691   2.09795   2.11117
 Alpha virt. eigenvalues --    2.12610   2.13909   2.15175   2.16461   2.21000
 Alpha virt. eigenvalues --    2.21854   2.26762   2.27588   2.33355   2.35263
 Alpha virt. eigenvalues --    2.36349   2.37291   2.39474   2.40714   2.47063
 Alpha virt. eigenvalues --    2.49073   2.49600   2.54518   2.55196   2.60664
 Alpha virt. eigenvalues --    2.61246   2.64304   2.66449   2.68253   2.69164
 Alpha virt. eigenvalues --    2.70867   2.73493   2.75274   2.76977   2.77242
 Alpha virt. eigenvalues --    2.77403   2.78952   2.81074   2.83337   2.86651
 Alpha virt. eigenvalues --    2.88225   2.92024   2.94811   2.95914   2.98635
 Alpha virt. eigenvalues --    3.02739   3.05588   3.21351   3.23253   3.23889
 Alpha virt. eigenvalues --    3.25023   3.30058   3.34633   3.40982   3.41399
 Alpha virt. eigenvalues --    3.42839   3.43741   3.45398   3.45847   3.48261
 Alpha virt. eigenvalues --    3.51961   3.54400   4.28149   4.41676   4.48512
 Alpha virt. eigenvalues --    4.57239   4.59453   4.65149   4.71923   4.91008
          Condensed to atoms (all electrons):
              1          2          3          4          5          6
     1  C    7.278060  -0.799699   0.436325  -0.336163  -0.200345   0.005358
     2  C   -0.799699   6.655000  -0.352859   0.565761   0.007175  -0.005139
     3  C    0.436325  -0.352859   5.710837  -0.444207   0.153660  -0.130055
     4  C   -0.336163   0.565761  -0.444207   5.956231   0.232529  -0.147671
     5  N   -0.200345   0.007175   0.153660   0.232529   7.214759   0.155095
     6  C    0.005358  -0.005139  -0.130055  -0.147671   0.155095   5.165366
     7  H   -0.076005   0.391168  -0.014543  -0.009003   0.010883   0.001277
     8  H   -0.113576   0.516128  -0.108141   0.036580   0.010286  -0.002671
     9  C   -0.031749  -0.120072   0.017972   0.045497  -0.063268  -0.015983
    10  C    0.057428  -0.267955   0.052962  -0.346799   0.071886   0.022194
    11  H    0.042395  -0.044553   0.402270  -0.011489  -0.042028  -0.018116
    12  H    0.063849  -0.189681   0.535682  -0.037267  -0.124897   0.019491
    13  H   -0.122227  -0.002856  -0.003281   0.498531  -0.123632   0.016651
    14  H   -0.008327   0.008673   0.004474   0.407398  -0.053128  -0.019030
    15  H   -0.007355  -0.010223   0.002487   0.005622  -0.120230   0.439713
    16  H   -0.003387   0.003025  -0.003012   0.004526  -0.042546   0.397057
    17  H    0.001305   0.002283   0.002070   0.000022  -0.045123   0.395516
    18  H   -0.070377  -0.023995   0.005590  -0.017750   0.002868   0.001743
    19  H   -0.092236   0.020042  -0.003853   0.018088  -0.000701   0.000107
    20  H   -0.105994   0.016917  -0.005730   0.019271  -0.002590  -0.001120
    21  H   -0.046170  -0.029977   0.009420   0.000169  -0.003916  -0.000478
    22  H   -0.036166  -0.041936   0.012301  -0.044439   0.001574   0.002446
    23  H   -0.077118   0.002415   0.006042  -0.019973   0.003274  -0.000386
              7          8          9         10         11         12
     1  C   -0.076005  -0.113576  -0.031749   0.057428   0.042395   0.063849
     2  C    0.391168   0.516128  -0.120072  -0.267955  -0.044553  -0.189681
     3  C   -0.014543  -0.108141   0.017972   0.052962   0.402270   0.535682
     4  C   -0.009003   0.036580   0.045497  -0.346799  -0.011489  -0.037267
     5  N    0.010883   0.010286  -0.063268   0.071886  -0.042028  -0.124897
     6  C    0.001277  -0.002671  -0.015983   0.022194  -0.018116   0.019491
     7  H    0.564011  -0.031481  -0.005069   0.026622  -0.008399   0.003996
     8  H   -0.031481   0.569071  -0.005696  -0.006510   0.002960  -0.009556
     9  C   -0.005069  -0.005696   5.646605  -0.226427   0.004180  -0.006245
    10  C    0.026622  -0.006510  -0.226427   5.800012   0.001133   0.011903
    11  H   -0.008399   0.002960   0.004180   0.001133   0.584753  -0.045560
    12  H    0.003996  -0.009556  -0.006245   0.011903  -0.045560   0.637840
    13  H   -0.000088   0.000672   0.001429   0.000080  -0.000465   0.009373
    14  H   -0.000122  -0.000124   0.016334  -0.028032  -0.000112  -0.000386
    15  H   -0.000006   0.000016   0.002845  -0.001684  -0.001332   0.013191
    16  H   -0.000009  -0.000002  -0.000187   0.000702   0.002937  -0.001982
    17  H    0.000005   0.000004  -0.000342   0.000018   0.000029  -0.000187
    18  H    0.000003   0.001629   0.436206   0.013353  -0.000009  -0.000050
    19  H    0.000633  -0.000007   0.423421  -0.016134  -0.000004   0.000014
    20  H   -0.000130   0.000295   0.448739  -0.022273   0.000003  -0.000003
    21  H    0.001546   0.000150  -0.013543   0.429122   0.000005  -0.000003
    22  H   -0.000455   0.000036   0.016537   0.449395  -0.000096  -0.000020
    23  H    0.000412  -0.000141  -0.025832   0.455652   0.000002   0.000009
             13         14         15         16         17         18
     1  C   -0.122227  -0.008327  -0.007355  -0.003387   0.001305  -0.070377
     2  C   -0.002856   0.008673  -0.010223   0.003025   0.002283  -0.023995
     3  C   -0.003281   0.004474   0.002487  -0.003012   0.002070   0.005590
     4  C    0.498531   0.407398   0.005622   0.004526   0.000022  -0.017750
     5  N   -0.123632  -0.053128  -0.120230  -0.042546  -0.045123   0.002868
     6  C    0.016651  -0.019030   0.439713   0.397057   0.395516   0.001743
     7  H   -0.000088  -0.000122  -0.000006  -0.000009   0.000005   0.000003
     8  H    0.000672  -0.000124   0.000016  -0.000002   0.000004   0.001629
     9  C    0.001429   0.016334   0.002845  -0.000187  -0.000342   0.436206
    10  C    0.000080  -0.028032  -0.001684   0.000702   0.000018   0.013353
    11  H   -0.000465  -0.000112  -0.001332   0.002937   0.000029  -0.000009
    12  H    0.009373  -0.000386   0.013191  -0.001982  -0.000187  -0.000050
    13  H    0.638786  -0.045163   0.012700  -0.000212  -0.001439   0.002455
    14  H   -0.045163   0.578092  -0.001472   0.000057   0.003053  -0.000029
    15  H    0.012700  -0.001472   0.617543  -0.037577  -0.037802  -0.000002
    16  H   -0.000212   0.000057  -0.037577   0.566197  -0.022553   0.000000
    17  H   -0.001439   0.003053  -0.037802  -0.022553   0.567207   0.000000
    18  H    0.002455  -0.000029  -0.000002   0.000000   0.000000   0.561163
    19  H    0.000221  -0.000125   0.000000   0.000000   0.000000  -0.027589
    20  H   -0.000324   0.001155   0.000000   0.000000   0.000000  -0.027969
    21  H   -0.000127   0.000187   0.000000   0.000000   0.000000   0.000049
    22  H   -0.000010   0.000046  -0.000001   0.000007  -0.000003  -0.000147
    23  H    0.000204   0.002050   0.000001   0.000000   0.000000   0.000039
             19         20         21         22         23
     1  C   -0.092236  -0.105994  -0.046170  -0.036166  -0.077118
     2  C    0.020042   0.016917  -0.029977  -0.041936   0.002415
     3  C   -0.003853  -0.005730   0.009420   0.012301   0.006042
     4  C    0.018088   0.019271   0.000169  -0.044439  -0.019973
     5  N   -0.000701  -0.002590  -0.003916   0.001574   0.003274
     6  C    0.000107  -0.001120  -0.000478   0.002446  -0.000386
     7  H    0.000633  -0.000130   0.001546  -0.000455   0.000412
     8  H   -0.000007   0.000295   0.000150   0.000036  -0.000141
     9  C    0.423421   0.448739  -0.013543   0.016537  -0.025832
    10  C   -0.016134  -0.022273   0.429122   0.449395   0.455652
    11  H   -0.000004   0.000003   0.000005  -0.000096   0.000002
    12  H    0.000014  -0.000003  -0.000003  -0.000020   0.000009
    13  H    0.000221  -0.000324  -0.000127  -0.000010   0.000204
    14  H   -0.000125   0.001155   0.000187   0.000046   0.002050
    15  H    0.000000   0.000000   0.000000  -0.000001   0.000001
    16  H    0.000000   0.000000   0.000000   0.000007   0.000000
    17  H    0.000000   0.000000   0.000000  -0.000003   0.000000
    18  H   -0.027589  -0.027969   0.000049  -0.000147   0.000039
    19  H    0.558380  -0.028404   0.002733   0.000068  -0.000195
    20  H   -0.028404   0.562538  -0.000189   0.000065   0.002468
    21  H    0.002733  -0.000189   0.565780  -0.027328  -0.028311
    22  H    0.000068   0.000065  -0.027328   0.526540  -0.026714
    23  H   -0.000195   0.002468  -0.028311  -0.026714   0.569144
 Mulliken atomic charges:
              1
     1  C    0.242173
     2  C   -0.299641
     3  C   -0.286412
     4  C   -0.375466
     5  N   -0.041585
     6  C   -0.281367
     7  H    0.144754
     8  H    0.140079
     9  C   -0.545353
    10  C   -0.476652
    11  H    0.131495
    12  H    0.120487
    13  H    0.118723
    14  H    0.134531
    15  H    0.123564
    16  H    0.136960
    17  H    0.135936
    18  H    0.142818
    19  H    0.145540
    20  H    0.143275
    21  H    0.140880
    22  H    0.168302
    23  H    0.136959
 Sum of Mulliken atomic charges =   0.00000
 Mulliken charges with hydrogens summed into heavy atoms:
              1
     1  C    0.242173
     2  C   -0.014809
     3  C   -0.034430
     4  C   -0.122212
     5  N   -0.041585
     6  C    0.115093
     9  C   -0.113720
    10  C   -0.030511
 Sum of Mulliken charges with hydrogens summed into heavy atoms =   0.00000
 Electronic spatial extent (au):  <R**2>=           1077.3982
 Charge=              0.0000 electrons
 Dipole moment (field-independent basis, Debye):
    X=              0.0000    Y=              0.1521    Z=             -0.4775  Tot=              0.5011
 Quadrupole moment (field-independent basis, Debye-Ang):
   XX=            -53.2406   YY=            -52.5152   ZZ=            -55.6295
   XY=             -0.2114   XZ=             -0.2710   YZ=              0.6440
 Traceless Quadrupole moment (field-independent basis, Debye-Ang):
   XX=              0.5545   YY=              1.2799   ZZ=             -1.8344
   XY=             -0.2114   XZ=             -0.2710   YZ=              0.6440
 Octapole moment (field-independent basis, Debye-Ang**2):
  XXX=              8.4718  YYY=             -3.2240  ZZZ=              0.6963  XYY=              1.6131
  XXY=              0.2333  XXZ=              2.7113  XZZ=             -0.0976  YZZ=              2.5851
  YYZ=              1.7766  XYZ=              0.6321
 Hexadecapole moment (field-independent basis, Debye-Ang**3):
 XXXX=           -924.2408 YYYY=           -334.2668 ZZZZ=           -285.0127 XXXY=             -6.9901
 XXXZ=              6.9930 YYYX=             -1.1521 YYYZ=              0.5655 ZZZX=              2.5724
 ZZZY=              0.9928 XXYY=           -208.5623 XXZZ=           -209.7305 YYZZ=           -103.9109
 XXYZ=              3.1539 YYXZ=              3.7484 ZZXY=             -0.4464
 N-N= 4.173697523862D+02 E-N=-1.598766747330D+03  KE= 3.270429626350D+02
 1\1\GINC-ROCK\SP\RB3LYP\6-31+G(d,p)\C7H15N1\STYLIANAKIS\19-Feb-2018\0\
 \# b3lyp/6-31+g(d,p)\\3,3-Dimethil-N-methylpyrrolidine-lp.hin\\0,1\C,0
 ,0.85996,-0.15922,0.50751\C,0,0.05067,-1.40581,0.07967\C,0,-1.29417,-0
 .84804,-0.42299\C,0,0.02074,0.99389,-0.07846\N,0,-1.34166,0.51876,0.06
 363\C,0,-2.3241,1.3446,-0.60963\H,0,-0.09544,-2.10975,0.9321\H,0,0.562
 4,-1.97191,-0.73385\C,0,2.29341,-0.16087,-0.04549\C,0,0.9025,-0.05296,
 2.04555\H,0,-2.16819,-1.4338,-0.05065\H,0,-1.30902,-0.86283,-1.53984\H
 ,0,0.26658,1.14536,-1.15673\H,0,0.17769,1.95808,0.45983\H,0,-2.12087,1
 .41928,-1.70314\H,0,-3.3442,0.9195,-0.46456\H,0,-2.31863,2.37211,-0.17
 778\X,0,-1.47912,0.50762,0.64978\H,0,2.30364,-0.23829,-1.15667\H,0,2.8
 7467,-1.0215,0.35722\H,0,2.82785,0.77661,0.23058\H,0,1.456,-0.91044,2.
 49206\H,0,-0.11945,-0.04329,2.48889\H,0,1.4166,0.88049,2.36981\\Versio
 n=EM64L-G09RevA.01\State=1-A\HF=-330.550413\RMSD=7.835e-09\Dipole=0.05
 71743,-0.0281284,-0.1865754\Quadrupole=0.0718235,1.0946542,-1.1664777,
 0.0496459,0.6797043,-0.1256348\PG=C01 [X(C7H15N1)]\\@


 OLD AGE AND TREACHERY WILL ALWAYS PREVAIL OVER YOUTH AND SKILL.
 Job cpu time:  0 days  0 hours  4 minutes 28.1 seconds.
 File lengths (MBytes):  RWF=     26 Int=      0 D2E=      0 Chk=      3 Scr=      1
 Normal termination of Gaussian 09 at Mon Feb 19 01:22:14 2018.
