 Entering Gaussian System, Link 0=g09
 Input=Adamantyl_CMe2Cl_b3lyp.gjf
 Output=Adamantyl_CMe2Cl_b3lyp.log
 Initial command:
 /opt/g09/g09/l1.exe /scratch/tmp/Gau-17035.inp -scrdir=/scratch/tmp/
 Entering Link 1 = /opt/g09/g09/l1.exe PID=     17036.
  
 Copyright (c) 1988,1990,1992,1993,1995,1998,2003,2009,2011,
            Gaussian, Inc.  All Rights Reserved.
  
 This is part of the Gaussian(R) 09 program.  It is based on
 the Gaussian(R) 03 system (copyright 2003, Gaussian, Inc.),
 the Gaussian(R) 98 system (copyright 1998, Gaussian, Inc.),
 the Gaussian(R) 94 system (copyright 1995, Gaussian, Inc.),
 the Gaussian 92(TM) system (copyright 1992, Gaussian, Inc.),
 the Gaussian 90(TM) system (copyright 1990, Gaussian, Inc.),
 the Gaussian 88(TM) system (copyright 1988, Gaussian, Inc.),
 the Gaussian 86(TM) system (copyright 1986, Carnegie Mellon
 University), and the Gaussian 82(TM) system (copyright 1983,
 Carnegie Mellon University). Gaussian is a federally registered
 trademark of Gaussian, Inc.
  
 This software contains proprietary and confidential information,
 including trade secrets, belonging to Gaussian, Inc.
  
 This software is provided under written license and may be
 used, copied, transmitted, or stored only in accord with that
 written license.
  
 The following legend is applicable only to US Government
 contracts under FAR:
  
                    RESTRICTED RIGHTS LEGEND
  
 Use, reproduction and disclosure by the US Government is
 subject to restrictions as set forth in subparagraphs (a)
 and (c) of the Commercial Computer Software - Restricted
 Rights clause in FAR 52.227-19.
  
 Gaussian, Inc.
 340 Quinnipiac St., Bldg. 40, Wallingford CT 06492
  
  
 ---------------------------------------------------------------
 Warning -- This program may not be used in any manner that
 competes with the business of Gaussian, Inc. or will provide
 assistance to any competitor of Gaussian, Inc.  The licensee
 of this program is prohibited from giving any competitor of
 Gaussian, Inc. access to this program.  By using this program,
 the user acknowledges that Gaussian, Inc. is engaged in the
 business of creating and licensing software in the field of
 computational chemistry and represents and warrants to the
 licensee that it is not a competitor of Gaussian, Inc. and that
 it will not use this program in any manner prohibited above.
 ---------------------------------------------------------------
  

 Cite this work as:
 Gaussian 09, Revision C.01,
 M. J. Frisch, G. W. Trucks, H. B. Schlegel, G. E. Scuseria, 
 M. A. Robb, J. R. Cheeseman, G. Scalmani, V. Barone, B. Mennucci, 
 G. A. Petersson, H. Nakatsuji, M. Caricato, X. Li, H. P. Hratchian, 
 A. F. Izmaylov, J. Bloino, G. Zheng, J. L. Sonnenberg, M. Hada, 
 M. Ehara, K. Toyota, R. Fukuda, J. Hasegawa, M. Ishida, T. Nakajima, 
 Y. Honda, O. Kitao, H. Nakai, T. Vreven, J. A. Montgomery, Jr., 
 J. E. Peralta, F. Ogliaro, M. Bearpark, J. J. Heyd, E. Brothers, 
 K. N. Kudin, V. N. Staroverov, T. Keith, R. Kobayashi, J. Normand, 
 K. Raghavachari, A. Rendell, J. C. Burant, S. S. Iyengar, J. Tomasi, 
 M. Cossi, N. Rega, J. M. Millam, M. Klene, J. E. Knox, J. B. Cross, 
 V. Bakken, C. Adamo, J. Jaramillo, R. Gomperts, R. E. Stratmann, 
 O. Yazyev, A. J. Austin, R. Cammi, C. Pomelli, J. W. Ochterski, 
 R. L. Martin, K. Morokuma, V. G. Zakrzewski, G. A. Voth, 
 P. Salvador, J. J. Dannenberg, S. Dapprich, A. D. Daniels, 
 O. Farkas, J. B. Foresman, J. V. Ortiz, J. Cioslowski, 
 and D. J. Fox, Gaussian, Inc., Wallingford CT, 2010.
 
 ******************************************
 Gaussian 09:  AM64L-G09RevC.01 23-Sep-2011
                 5-Jul-2018 
 ******************************************
 %mem=2000MB
 %nprocshared=4
 Will use up to    4 processors via shared memory.
 %rwf=/pub/tmp/
 %NoSave
 -------------------
 # b3lyp/6-31+g(d,p)
 -------------------
 1/38=1/1;
 2/12=2,17=6,18=5,40=1/2;
 3/5=1,6=6,7=111,11=2,16=1,25=1,30=1,74=-5/1,2,3;
 4//1;
 5/5=2,38=5/2;
 6/7=2,8=2,9=2,10=2,28=1/1;
 99/5=1,9=1/99;
 ----------------
 Adamantyl-CMe2Cl
 ----------------
 Charge =  0 Multiplicity = 1
 Symbolic Z-Matrix:
 C                     2.13607  -1.59155   0.00031 
 C                     1.71755  -0.80638  -1.24883 
 C                     0.1931   -0.61175  -1.25323 
 C                     1.71761  -0.80585   1.24914 
 C                     0.19317  -0.61122   1.25353 
 C                    -0.27641   0.16881  0. 
 C                     2.40932   0.56286  -1.25229 
 C                     1.98632   1.34165  -0.00031 
 C                     0.46004   1.53654  -0.00031 
 C                     2.40939   0.56339   1.25198 
 C                    -1.83111   0.39418  0. 
 C                    -2.36049   1.11269   1.245 
 C                    -2.36051   1.1127   -1.24499 
 Cl                   -2.67867  -1.25364   0. 
 H                     3.21229  -1.7542    0.00032 
 H                     1.66655  -2.57306   0.00054 
 H                     1.99878  -1.36076  -2.14136 
 H                    -0.29684  -1.57788  -1.29375 
 H                    -0.08373  -0.07662  -2.15615 
 H                     1.9989   -1.35984   2.1419 
 H                    -0.08364  -0.07572   2.15624 
 H                    -0.29676  -1.57734   1.29447 
 H                     2.13933   1.1174   -2.14926 
 H                     3.49054   0.4405   -1.26988 
 H                     2.45903   2.32144  -0.00053 
 H                     0.18254   2.11886  -0.87367 
 H                     0.1826    2.11922   0.87284 
 H                     3.49061   0.44104   1.26956 
 H                     2.13945   1.11831   2.14873 
 H                    -3.43922   1.18917   1.1872 
 H                    -2.11578   0.58972   2.1582 
 H                    -1.95828   2.11819   1.29902 
 H                    -3.43922   1.18932  -1.1871 
 H                    -1.95817   2.11815  -1.29908 
 H                    -2.11595   0.58966  -2.15819 
 
                          Input orientation:                          
 ---------------------------------------------------------------------
 Center     Atomic      Atomic             Coordinates (Angstroms)
 Number     Number       Type             X           Y           Z
 ---------------------------------------------------------------------
      1          6           0        2.136071   -1.591548    0.000313
      2          6           0        1.717545   -0.806384   -1.248826
      3          6           0        0.193103   -0.611752   -1.253229
      4          6           0        1.717611   -0.805850    1.249136
      5          6           0        0.193167   -0.611224    1.253528
      6          6           0       -0.276411    0.168805   -0.000002
      7          6           0        2.409320    0.562857   -1.252294
      8          6           0        1.986320    1.341649   -0.000311
      9          6           0        0.460042    1.536543   -0.000307
     10          6           0        2.409387    0.563392    1.251983
     11          6           0       -1.831108    0.394182   -0.000001
     12          6           0       -2.360490    1.112689    1.244998
     13          6           0       -2.360508    1.112698   -1.244990
     14         17           0       -2.678668   -1.253641    0.000000
     15          1           0        3.212291   -1.754195    0.000321
     16          1           0        1.666552   -2.573058    0.000536
     17          1           0        1.998784   -1.360758   -2.141363
     18          1           0       -0.296837   -1.577884   -1.293749
     19          1           0       -0.083729   -0.076618   -2.156150
     20          1           0        1.998896   -1.359842    2.141896
     21          1           0       -0.083635   -0.075716    2.156239
     22          1           0       -0.296761   -1.577343    1.294474
     23          1           0        2.139333    1.117397   -2.149262
     24          1           0        3.490544    0.440499   -1.269877
     25          1           0        2.459028    2.321444   -0.000533
     26          1           0        0.182544    2.118859   -0.873674
     27          1           0        0.182604    2.119215    0.872839
     28          1           0        3.490612    0.441042    1.269559
     29          1           0        2.139448    1.118315    2.148727
     30          1           0       -3.439220    1.189169    1.187195
     31          1           0       -2.115783    0.589718    2.158200
     32          1           0       -1.958275    2.118194    1.299015
     33          1           0       -3.439223    1.189316   -1.187099
     34          1           0       -1.958170    2.118151   -1.299082
     35          1           0       -2.115947    0.589661   -2.158191
 ---------------------------------------------------------------------
                    Distance matrix (angstroms):
                    1          2          3          4          5
     1  C    0.000000
     2  C    1.533621   0.000000
     3  C    2.511273   1.536823   0.000000
     4  C    1.533620   2.497962   2.936602   0.000000
     5  C    2.511266   2.936595   2.506757   1.536824   0.000000
     6  C    2.986455   2.546844   1.549287   2.546845   1.549286
     7  C    2.507020   1.534075   2.508251   2.934105   3.545271
     8  C    2.937017   2.499015   2.932781   2.499015   2.932784
     9  C    3.548806   2.937588   2.501248   2.937583   2.501245
    10  C    2.507019   2.934106   3.545274   1.534075   2.508258
    11  C    4.436399   3.948906   2.584553   3.948902   2.584544
    12  C    5.392699   5.150958   3.966821   4.506852   3.081090
    13  C    5.392861   4.507040   3.081351   5.150975   3.966832
    14  Cl   4.826582   4.591981   3.198386   4.592181   3.198667
    15  H    1.088441   2.166329   3.462955   2.166325   3.462950
    16  H    1.088030   2.164404   2.754941   2.164401   2.754931
    17  H    2.158446   1.087680   2.147155   3.447095   3.917568
    18  H    2.755689   2.157537   1.084018   3.334712   2.768241
    19  H    3.445701   2.144850   1.085482   3.920788   3.462424
    20  H    2.158444   3.447096   3.917576   1.087680   2.147157
    21  H    3.445701   3.920790   3.462426   2.144859   1.085484
    22  H    2.755672   3.334694   2.768235   2.157534   1.084017
    23  H    3.458188   2.165554   2.753297   3.927574   4.284235
    24  H    2.752670   2.167645   3.461304   3.322966   4.283269
    25  H    3.926297   3.448382   3.912455   3.448382   3.912459
    26  H    4.283368   3.324758   2.756884   3.926407   3.460990
    27  H    4.283351   3.926402   3.460991   3.324733   2.756870
    28  H    2.752669   3.322966   4.283270   2.167646   3.461310
    29  H    3.458186   3.927574   4.284238   2.165553   2.753306
    30  H    6.342314   6.042239   4.732098   5.529633   4.054633
    31  H    5.243344   5.315198   4.290959   4.179583   2.755348
    32  H    5.675604   5.343810   4.312190   4.697303   3.475701
    33  H    6.342480   5.529818   4.054875   6.042257   4.732110
    34  H    5.675659   4.697479   3.475982   5.343647   4.312025
    35  H    5.243708   4.179898   2.755732   5.315402   4.291149
                    6          7          8          9         10
     6  C    0.000000
     7  C    2.989425   0.000000
     8  C    2.548630   1.533919   0.000000
     9  C    1.553406   2.513010   1.538671   0.000000
    10  C    2.989427   2.504277   1.533920   2.513006   0.000000
    11  C    1.570948   4.424694   3.933249   2.560148   4.424691
    12  C    2.604674   5.412012   4.527469   3.112208   4.801406
    13  C    2.604686   4.801420   4.527312   3.111974   5.411886
    14  Cl   2.791808   5.545767   5.338318   4.199598   5.545933
    15  H    3.983588   2.753641   3.329753   4.289969   2.753638
    16  H    3.360494   3.457637   3.927745   4.283047   3.457635
    17  H    3.478721   2.158536   3.447791   3.917423   3.922467
    18  H    2.173734   3.450765   3.925489   3.456228   4.288294
    19  H    2.178608   2.727852   3.308206   2.746932   4.270903
    20  H    3.478723   3.922467   3.447791   3.917416   2.158536
    21  H    2.178607   4.270913   3.308224   2.746935   2.727874
    22  H    2.173733   4.288281   3.925486   3.456225   3.450766
    23  H    3.369713   1.088558   2.166031   2.759295   3.456634
    24  H    3.984514   1.088267   2.164846   3.463678   2.746594
    25  H    3.480874   2.159168   1.087865   2.147560   2.159168
    26  H    2.185556   2.742814   2.149518   1.085756   3.449163
    27  H    2.185554   3.449160   2.149510   1.085754   2.742790
    28  H    3.984515   2.746593   2.164846   3.463674   1.088267
    29  H    3.369715   3.456633   2.166031   2.759287   1.088557
    30  H    3.529014   6.367793   5.556069   4.090852   5.882346
    31  H    2.866757   5.666458   4.695936   3.491490   4.615093
    32  H    2.883787   5.291894   4.225056   2.806210   4.636388
    33  H    3.529026   5.882360   5.555915   4.090637   6.367664
    34  H    2.883725   4.636388   4.224780   2.805857   5.291575
    35  H    2.866844   4.615128   4.695799   3.491242   5.666447
                   11         12         13         14         15
    11  C    0.000000
    12  C    1.531836   0.000000
    13  C    1.531838   2.489988   0.000000
    14  Cl   1.853019   2.692726   2.692728   0.000000
    15  H    5.481915   6.389377   6.389520   5.912187   0.000000
    16  H    4.586735   5.599150   5.599406   4.541123   1.749241
    17  H    4.725814   6.048855   5.091650   5.145432   2.492830
    18  H    2.813684   4.235928   3.391216   2.729842   3.744287
    19  H    2.814954   4.262147   2.725511   3.573244   4.281166
    20  H    4.725807   5.091373   6.048872   5.145736   2.492827
    21  H    2.814931   2.725204   4.262023   3.573663   4.281168
    22  H    2.813680   3.390825   4.236065   2.730188   3.744270
    23  H    4.572392   5.636438   4.589804   5.783968   3.744060
    24  H    5.471262   6.403986   5.889591   6.522413   2.550982
    25  H    4.703149   5.122518   5.122272   6.259166   4.144664
    26  H    2.791525   3.459504   2.759955   4.508170   4.994375
    27  H    2.791527   2.760240   3.459147   4.508313   4.994356
    28  H    5.471260   5.889576   6.403880   6.522557   2.550979
    29  H    4.572386   4.589793   5.636218   5.784241   3.744056
    30  H    2.151154   1.082981   2.661765   2.820495   7.369848
    31  H    2.185659   1.080425   3.451826   2.893551   6.207958
    32  H    2.162367   1.084313   2.764919   3.684519   6.589139
    33  H    2.151156   2.661697   1.082981   2.820583   7.369997
    34  H    2.162366   2.764988   1.084314   3.684523   6.589171
    35  H    2.185665   3.451819   1.080423   2.893476   6.208297
                   16         17         18         19         20
    16  H    0.000000
    17  H    2.483502   0.000000
    18  H    2.553515   2.456719   0.000000
    19  H    3.734567   2.446650   1.744405   0.000000
    20  H    2.483499   4.283259   4.137824   4.945421   0.000000
    21  H    3.734558   4.945421   3.768870   4.312389   2.446655
    22  H    2.553492   4.137803   2.588223   3.768868   2.456720
    23  H    4.297047   2.482150   3.732475   2.523435   4.956861
    24  H    3.744652   2.495869   4.291701   3.718645   4.135993
    25  H    4.958243   4.284109   4.946914   4.106458   4.284109
    26  H    4.998060   4.124742   3.751290   2.556514   4.949157
    27  H    4.998044   4.949155   4.311903   3.750652   4.124713
    28  H    3.744651   4.135991   4.999138   4.977888   2.495871
    29  H    4.297044   4.956860   5.005558   4.990225   2.482149
    30  H    6.452241   6.866827   4.866851   4.903009   6.081284
    31  H    5.381889   6.262608   4.463520   4.815274   4.553200
    32  H    6.069041   6.292664   4.810800   4.502143   5.335390
    33  H    6.452509   6.081564   4.188479   3.714968   6.866844
    34  H    6.069189   5.335703   4.052250   3.010831   6.292467
    35  H    5.382397   4.553617   2.958830   2.138654   6.262846
                   21         22         23         24         25
    21  H    0.000000
    22  H    1.744404   0.000000
    23  H    4.990235   5.005546   0.000000
    24  H    4.977902   4.999126   1.748508   0.000000
    25  H    4.106480   4.946914   2.483741   2.492632   0.000000
    26  H    3.750651   4.311903   2.541471   3.730514   2.446589
    27  H    2.556506   3.751281   3.737047   4.283898   2.446586
    28  H    3.718667   4.291700   3.737880   2.539436   2.492631
    29  H    2.523463   3.732484   4.297989   3.737880   2.483741
    30  H    3.714691   4.188096   6.500565   7.390490   6.122261
    31  H    2.138325   2.958212   6.077720   6.573042   5.346765
    32  H    3.010374   4.051869   5.448174   6.253279   4.608981
    33  H    4.902875   4.866998   5.661379   6.970599   6.122011
    34  H    4.501797   4.810768   4.302772   5.701215   4.608600
    35  H    4.815322   4.463882   4.287889   5.678388   5.346490
                   26         27         28         29         30
    26  H    0.000000
    27  H    1.746513   0.000000
    28  H    4.283904   3.730492   0.000000
    29  H    3.737040   2.541442   1.748508   0.000000
    30  H    4.269506   3.752521   6.970585   5.661369   0.000000
    31  H    4.100346   3.045340   5.678332   4.287948   1.747478
    32  H    3.050194   2.182886   5.701235   4.302685   1.751796
    33  H    3.752264   4.269155   7.390379   6.500334   2.374294
    34  H    2.182574   3.049616   6.252986   5.447709   3.039423
    35  H    3.044912   4.100002   6.573056   6.077615   3.647200
                   31         32         33         34         35
    31  H    0.000000
    32  H    1.760468   0.000000
    33  H    3.647196   3.039208   0.000000
    34  H    3.783351   2.598097   1.751797   0.000000
    35  H    4.316391   3.783325   1.747474   1.760467   0.000000
 Stoichiometry    C13H21Cl
 Framework group  C1[X(C13H21Cl)]
 Deg. of freedom    99
 Full point group                 C1      NOp   1
 Largest Abelian subgroup         C1      NOp   1
 Largest concise Abelian subgroup C1      NOp   1
                         Standard orientation:                         
 ---------------------------------------------------------------------
 Center     Atomic      Atomic             Coordinates (Angstroms)
 Number     Number       Type             X           Y           Z
 ---------------------------------------------------------------------
      1          6           0        2.136071   -1.591548    0.000313
      2          6           0        1.717545   -0.806384   -1.248826
      3          6           0        0.193103   -0.611752   -1.253229
      4          6           0        1.717611   -0.805850    1.249136
      5          6           0        0.193167   -0.611224    1.253528
      6          6           0       -0.276411    0.168805   -0.000002
      7          6           0        2.409320    0.562857   -1.252294
      8          6           0        1.986320    1.341649   -0.000311
      9          6           0        0.460042    1.536543   -0.000307
     10          6           0        2.409387    0.563392    1.251983
     11          6           0       -1.831108    0.394182   -0.000001
     12          6           0       -2.360490    1.112689    1.244998
     13          6           0       -2.360508    1.112698   -1.244990
     14         17           0       -2.678668   -1.253641    0.000000
     15          1           0        3.212291   -1.754195    0.000321
     16          1           0        1.666552   -2.573058    0.000536
     17          1           0        1.998784   -1.360758   -2.141363
     18          1           0       -0.296837   -1.577884   -1.293749
     19          1           0       -0.083729   -0.076618   -2.156150
     20          1           0        1.998896   -1.359842    2.141896
     21          1           0       -0.083635   -0.075716    2.156239
     22          1           0       -0.296761   -1.577343    1.294474
     23          1           0        2.139333    1.117397   -2.149262
     24          1           0        3.490544    0.440499   -1.269877
     25          1           0        2.459028    2.321444   -0.000533
     26          1           0        0.182544    2.118859   -0.873674
     27          1           0        0.182604    2.119215    0.872839
     28          1           0        3.490612    0.441042    1.269559
     29          1           0        2.139448    1.118315    2.148727
     30          1           0       -3.439220    1.189169    1.187195
     31          1           0       -2.115783    0.589718    2.158200
     32          1           0       -1.958275    2.118194    1.299015
     33          1           0       -3.439223    1.189316   -1.187099
     34          1           0       -1.958170    2.118151   -1.299082
     35          1           0       -2.115947    0.589661   -2.158191
 ---------------------------------------------------------------------
 Rotational constants (GHZ):      1.1268780      0.4833998      0.4634087
 Standard basis: 6-31+G(d,p) (6D, 7F)
 There are   375 symmetry adapted basis functions of A   symmetry.
 Integral buffers will be    131072 words long.
 Raffenetti 2 integral format.
 Two-electron integral symmetry is turned on.
   375 basis functions,   619 primitive gaussians,   375 cartesian basis functions
    58 alpha electrons       58 beta electrons
       nuclear repulsion energy      1143.5999735113 Hartrees.
 NAtoms=   35 NActive=   35 NUniq=   35 SFac= 1.00D+00 NAtFMM=   60 NAOKFM=F Big=F
 One-electron integrals computed using PRISM.
 NBasis=   375 RedAO= T  NBF=   375
 NBsUse=   375 1.00D-06 NBFU=   375
 Harris functional with IExCor=  402 diagonalized for initial guess.
 ExpMin= 4.38D-02 ExpMax= 2.52D+04 ExpMxC= 3.78D+03 IAcc=2 IRadAn=         4 AccDes= 0.00D+00
 HarFok:  IExCor=  402 AccDes= 0.00D+00 IRadAn=         4 IDoV= 1
 ScaDFX=  1.000000  1.000000  1.000000  1.000000
 FoFCou: FMM=F IPFlag=           0 FMFlag=      100000 FMFlg1=           0
         NFxFlg=           0 DoJE=T BraDBF=F KetDBF=T FulRan=T
         Omega=  0.000000  0.000000  1.000000  0.000000  0.000000 ICntrl=     500 IOpCl=  0
         NMat0=    1 NMatS0=    1 NMatT0=    0 NMatD0=    1 NMtDS0=    0 NMtDT0=    0
         I1Cent=           4 NGrid=           0.
 Petite list used in FoFCou.
 Initial guess orbital symmetries:
       Occupied  (A) (A) (A) (A) (A) (A) (A) (A) (A) (A) (A) (A)
                 (A) (A) (A) (A) (A) (A) (A) (A) (A) (A) (A) (A)
                 (A) (A) (A) (A) (A) (A) (A) (A) (A) (A) (A) (A)
                 (A) (A) (A) (A) (A) (A) (A) (A) (A) (A) (A) (A)
                 (A) (A) (A) (A) (A) (A) (A) (A) (A) (A)
       Virtual   (A) (A) (A) (A) (A) (A) (A) (A) (A) (A) (A) (A)
                 (A) (A) (A) (A) (A) (A) (A) (A) (A) (A) (A) (A)
                 (A) (A) (A) (A) (A) (A) (A) (A) (A) (A) (A) (A)
                 (A) (A) (A) (A) (A) (A) (A) (A) (A) (A) (A) (A)
                 (A) (A) (A) (A) (A) (A) (A) (A) (A) (A) (A) (A)
                 (A) (A) (A) (A) (A) (A) (A) (A) (A) (A) (A) (A)
                 (A) (A) (A) (A) (A) (A) (A) (A) (A) (A) (A) (A)
                 (A) (A) (A) (A) (A) (A) (A) (A) (A) (A) (A) (A)
                 (A) (A) (A) (A) (A) (A) (A) (A) (A) (A) (A) (A)
                 (A) (A) (A) (A) (A) (A) (A) (A) (A) (A) (A) (A)
                 (A) (A) (A) (A) (A) (A) (A) (A) (A) (A) (A) (A)
                 (A) (A) (A) (A) (A) (A) (A) (A) (A) (A) (A) (A)
                 (A) (A) (A) (A) (A) (A) (A) (A) (A) (A) (A) (A)
                 (A) (A) (A) (A) (A) (A) (A) (A) (A) (A) (A) (A)
                 (A) (A) (A) (A) (A) (A) (A) (A) (A) (A) (A) (A)
                 (A) (A) (A) (A) (A) (A) (A) (A) (A) (A) (A) (A)
                 (A) (A) (A) (A) (A) (A) (A) (A) (A) (A) (A) (A)
                 (A) (A) (A) (A) (A) (A) (A) (A) (A) (A) (A) (A)
                 (A) (A) (A) (A) (A) (A) (A) (A) (A) (A) (A) (A)
                 (A) (A) (A) (A) (A) (A) (A) (A) (A) (A) (A) (A)
                 (A) (A) (A) (A) (A) (A) (A) (A) (A) (A) (A) (A)
                 (A) (A) (A) (A) (A) (A) (A) (A) (A) (A) (A) (A)
                 (A) (A) (A) (A) (A) (A) (A) (A) (A) (A) (A) (A)
                 (A) (A) (A) (A) (A) (A) (A) (A) (A) (A) (A) (A)
                 (A) (A) (A) (A) (A) (A) (A) (A) (A) (A) (A) (A)
                 (A) (A) (A) (A) (A) (A) (A) (A) (A) (A) (A) (A)
                 (A) (A) (A) (A) (A)
 The electronic state of the initial guess is 1-A.
 Requested convergence on RMS density matrix=1.00D-08 within 128 cycles.
 Requested convergence on MAX density matrix=1.00D-06.
 Requested convergence on             energy=1.00D-06.
 No special actions if energy rises.
 SCF Done:  E(RB3LYP) =  -968.295853054     A.U. after   14 cycles
             Convg  =    0.2547D-08             -V/T =  2.0062

 **********************************************************************

            Population analysis using the SCF density.

 **********************************************************************

 Orbital symmetries:
       Occupied  (A) (A) (A) (A) (A) (A) (A) (A) (A) (A) (A) (A)
                 (A) (A) (A) (A) (A) (A) (A) (A) (A) (A) (A) (A)
                 (A) (A) (A) (A) (A) (A) (A) (A) (A) (A) (A) (A)
                 (A) (A) (A) (A) (A) (A) (A) (A) (A) (A) (A) (A)
                 (A) (A) (A) (A) (A) (A) (A) (A) (A) (A)
       Virtual   (A) (A) (A) (A) (A) (A) (A) (A) (A) (A) (A) (A)
                 (A) (A) (A) (A) (A) (A) (A) (A) (A) (A) (A) (A)
                 (A) (A) (A) (A) (A) (A) (A) (A) (A) (A) (A) (A)
                 (A) (A) (A) (A) (A) (A) (A) (A) (A) (A) (A) (A)
                 (A) (A) (A) (A) (A) (A) (A) (A) (A) (A) (A) (A)
                 (A) (A) (A) (A) (A) (A) (A) (A) (A) (A) (A) (A)
                 (A) (A) (A) (A) (A) (A) (A) (A) (A) (A) (A) (A)
                 (A) (A) (A) (A) (A) (A) (A) (A) (A) (A) (A) (A)
                 (A) (A) (A) (A) (A) (A) (A) (A) (A) (A) (A) (A)
                 (A) (A) (A) (A) (A) (A) (A) (A) (A) (A) (A) (A)
                 (A) (A) (A) (A) (A) (A) (A) (A) (A) (A) (A) (A)
                 (A) (A) (A) (A) (A) (A) (A) (A) (A) (A) (A) (A)
                 (A) (A) (A) (A) (A) (A) (A) (A) (A) (A) (A) (A)
                 (A) (A) (A) (A) (A) (A) (A) (A) (A) (A) (A) (A)
                 (A) (A) (A) (A) (A) (A) (A) (A) (A) (A) (A) (A)
                 (A) (A) (A) (A) (A) (A) (A) (A) (A) (A) (A) (A)
                 (A) (A) (A) (A) (A) (A) (A) (A) (A) (A) (A) (A)
                 (A) (A) (A) (A) (A) (A) (A) (A) (A) (A) (A) (A)
                 (A) (A) (A) (A) (A) (A) (A) (A) (A) (A) (A) (A)
                 (A) (A) (A) (A) (A) (A) (A) (A) (A) (A) (A) (A)
                 (A) (A) (A) (A) (A) (A) (A) (A) (A) (A) (A) (A)
                 (A) (A) (A) (A) (A) (A) (A) (A) (A) (A) (A) (A)
                 (A) (A) (A) (A) (A) (A) (A) (A) (A) (A) (A) (A)
                 (A) (A) (A) (A) (A) (A) (A) (A) (A) (A) (A) (A)
                 (A) (A) (A) (A) (A) (A) (A) (A) (A) (A) (A) (A)
                 (A) (A) (A) (A) (A) (A) (A) (A) (A) (A) (A) (A)
                 (A) (A) (A) (A) (A)
 The electronic state is 1-A.
 Alpha  occ. eigenvalues -- -101.52299 -10.25940 -10.20707 -10.18762 -10.18433
 Alpha  occ. eigenvalues --  -10.18432 -10.18415 -10.18415 -10.18364 -10.17681
 Alpha  occ. eigenvalues --  -10.17680 -10.17500 -10.17499 -10.17464  -9.43845
 Alpha  occ. eigenvalues --   -7.20190  -7.19301  -7.19291  -0.88582  -0.85509
 Alpha  occ. eigenvalues --   -0.77861  -0.77294  -0.77236  -0.74633  -0.70489
 Alpha  occ. eigenvalues --   -0.67315  -0.66948  -0.61526  -0.58779  -0.58649
 Alpha  occ. eigenvalues --   -0.54294  -0.52581  -0.46935  -0.46251  -0.45827
 Alpha  occ. eigenvalues --   -0.45621  -0.45218  -0.43849  -0.43179  -0.41564
 Alpha  occ. eigenvalues --   -0.41263  -0.40791  -0.39781  -0.39511  -0.38155
 Alpha  occ. eigenvalues --   -0.36713  -0.36552  -0.35949  -0.33219  -0.33017
 Alpha  occ. eigenvalues --   -0.32814  -0.32636  -0.32511  -0.29905  -0.28800
 Alpha  occ. eigenvalues --   -0.28522  -0.28031  -0.27947
 Alpha virt. eigenvalues --   -0.00975   0.00790   0.01313   0.01376   0.01770
 Alpha virt. eigenvalues --    0.02939   0.02989   0.03518   0.03678   0.04069
 Alpha virt. eigenvalues --    0.05834   0.05955   0.06238   0.06577   0.06589
 Alpha virt. eigenvalues --    0.06990   0.08552   0.08675   0.09032   0.09701
 Alpha virt. eigenvalues --    0.10679   0.10712   0.11671   0.12156   0.12261
 Alpha virt. eigenvalues --    0.12655   0.12699   0.13523   0.13531   0.13781
 Alpha virt. eigenvalues --    0.15054   0.15570   0.15781   0.16123   0.16376
 Alpha virt. eigenvalues --    0.17020   0.17158   0.17323   0.18176   0.18306
 Alpha virt. eigenvalues --    0.18415   0.18442   0.18659   0.19074   0.19600
 Alpha virt. eigenvalues --    0.19635   0.19907   0.20202   0.20537   0.20612
 Alpha virt. eigenvalues --    0.20913   0.21066   0.21880   0.22381   0.22777
 Alpha virt. eigenvalues --    0.23719   0.24075   0.24874   0.25467   0.25795
 Alpha virt. eigenvalues --    0.26098   0.26427   0.26682   0.27612   0.28346
 Alpha virt. eigenvalues --    0.28347   0.28432   0.28829   0.29532   0.30092
 Alpha virt. eigenvalues --    0.30189   0.30787   0.31504   0.31922   0.32654
 Alpha virt. eigenvalues --    0.33373   0.33978   0.33984   0.35754   0.35777
 Alpha virt. eigenvalues --    0.36167   0.37171   0.37275   0.37877   0.38825
 Alpha virt. eigenvalues --    0.40325   0.40458   0.41444   0.44891   0.46175
 Alpha virt. eigenvalues --    0.46196   0.51130   0.56410   0.61215   0.63185
 Alpha virt. eigenvalues --    0.63426   0.63540   0.63623   0.63916   0.65314
 Alpha virt. eigenvalues --    0.66989   0.67961   0.70205   0.70783   0.71256
 Alpha virt. eigenvalues --    0.72659   0.73243   0.73791   0.73975   0.74879
 Alpha virt. eigenvalues --    0.75473   0.75794   0.76428   0.79794   0.80506
 Alpha virt. eigenvalues --    0.80879   0.81204   0.82659   0.83150   0.84423
 Alpha virt. eigenvalues --    0.85028   0.85862   0.86290   0.87331   0.88807
 Alpha virt. eigenvalues --    0.88874   0.90398   0.92814   0.93655   0.96171
 Alpha virt. eigenvalues --    0.96865   0.96959   0.97255   0.97843   1.00184
 Alpha virt. eigenvalues --    1.01417   1.01809   1.01957   1.03398   1.04570
 Alpha virt. eigenvalues --    1.04829   1.08556   1.09153   1.10298   1.10307
 Alpha virt. eigenvalues --    1.10924   1.12032   1.12382   1.13367   1.13656
 Alpha virt. eigenvalues --    1.14499   1.14922   1.16520   1.17496   1.17892
 Alpha virt. eigenvalues --    1.18014   1.19434   1.20688   1.21152   1.22850
 Alpha virt. eigenvalues --    1.22854   1.25285   1.26608   1.30030   1.35267
 Alpha virt. eigenvalues --    1.39297   1.39572   1.41838   1.42913   1.43689
 Alpha virt. eigenvalues --    1.48399   1.49314   1.50188   1.51504   1.55390
 Alpha virt. eigenvalues --    1.55562   1.65829   1.66768   1.69078   1.72284
 Alpha virt. eigenvalues --    1.73569   1.78205   1.78904   1.79056   1.80371
 Alpha virt. eigenvalues --    1.80416   1.81811   1.83938   1.84861   1.84896
 Alpha virt. eigenvalues --    1.86630   1.88820   1.89372   1.89889   1.91355
 Alpha virt. eigenvalues --    1.92759   1.96025   1.96313   1.97123   1.97806
 Alpha virt. eigenvalues --    1.99057   1.99575   2.00085   2.00798   2.04422
 Alpha virt. eigenvalues --    2.04765   2.05514   2.06500   2.07408   2.09814
 Alpha virt. eigenvalues --    2.10393   2.14914   2.15568   2.17087   2.17748
 Alpha virt. eigenvalues --    2.18369   2.18737   2.19297   2.19643   2.20498
 Alpha virt. eigenvalues --    2.21482   2.23853   2.24331   2.30556   2.30617
 Alpha virt. eigenvalues --    2.32440   2.34622   2.34700   2.36512   2.37258
 Alpha virt. eigenvalues --    2.39224   2.39682   2.40280   2.42402   2.44246
 Alpha virt. eigenvalues --    2.47354   2.48734   2.50164   2.50534   2.51079
 Alpha virt. eigenvalues --    2.52836   2.54662   2.55267   2.56071   2.56759
 Alpha virt. eigenvalues --    2.58787   2.62220   2.62680   2.64670   2.65357
 Alpha virt. eigenvalues --    2.68352   2.68813   2.69101   2.71030   2.73176
 Alpha virt. eigenvalues --    2.73478   2.75650   2.77360   2.78024   2.78976
 Alpha virt. eigenvalues --    2.81621   2.81722   2.82041   2.83795   2.85019
 Alpha virt. eigenvalues --    2.85533   2.86293   2.88978   2.92046   2.92448
 Alpha virt. eigenvalues --    2.93048   2.93940   2.94380   2.96204   2.96751
 Alpha virt. eigenvalues --    2.96907   2.98574   3.00347   3.00616   3.04176
 Alpha virt. eigenvalues --    3.04903   3.09562   3.31923   3.31985   3.36131
 Alpha virt. eigenvalues --    3.36308   3.36523   3.42719   3.43446   3.43593
 Alpha virt. eigenvalues --    3.47344   3.48351   3.50879   3.51400   3.52283
 Alpha virt. eigenvalues --    3.54158   3.54594   3.54767   3.55071   3.55548
 Alpha virt. eigenvalues --    3.57555   3.58935   3.59113   4.33973   4.44961
 Alpha virt. eigenvalues --    4.49960   4.51668   4.52111   4.54321   4.56500
 Alpha virt. eigenvalues --    4.70497   4.84244   4.84654   4.85021   4.98839
 Alpha virt. eigenvalues --    5.02480   5.02664
          Condensed to atoms (all electrons):
              1          2          3          4          5          6
     1  C    5.954885  -0.200302   0.415137  -0.200196   0.415185  -0.294208
     2  C   -0.200302   7.714996  -1.791735  -1.073083   0.773819   0.181774
     3  C    0.415137  -1.791735  11.253459   0.774146  -1.191266  -2.976096
     4  C   -0.200196  -1.073083   0.774146   7.715036  -1.791789   0.181494
     5  C    0.415185   0.773819  -1.191266  -1.791789  11.253716  -2.976036
     6  C   -0.294208   0.181774  -2.976096   0.181494  -2.976036  17.365533
     7  C   -0.176074  -0.073135   0.229638   0.577318  -0.715867   0.018842
     8  C    0.667288  -1.188560   1.087689  -1.188601   1.088021  -0.516562
     9  C   -0.931545   1.033920  -2.252920   1.033761  -2.253209  -0.526616
    10  C   -0.176056   0.577270  -0.715834  -0.073241   0.229717   0.018868
    11  C    0.250367  -0.157530   1.244813  -0.157354   1.244956  -6.389473
    12  C   -0.052332   0.093915  -0.610864  -0.023363   0.068740   0.908509
    13  C   -0.052303  -0.023356   0.068829   0.093907  -0.610952   0.908560
    14  Cl   0.011422  -0.018201  -0.076785  -0.018245  -0.076829   0.521309
    15  H    0.411844  -0.048662   0.033521  -0.048666   0.033516  -0.033098
    16  H    0.400712  -0.006765  -0.048058  -0.006763  -0.048065   0.003125
    17  H    0.000832   0.185906   0.009375   0.057207  -0.010755   0.022636
    18  H   -0.030088  -0.004286   0.479992  -0.001477  -0.033480  -0.075949
    19  H    0.011113  -0.013166   0.431572  -0.007877   0.020669  -0.050141
    20  H    0.000805   0.057217  -0.010764   0.185903   0.009393   0.022631
    21  H    0.011119  -0.007875   0.020656  -0.013151   0.431608  -0.050207
    22  H   -0.030097  -0.001487  -0.033472  -0.004289   0.479955  -0.075930
    23  H    0.016334  -0.024160  -0.035571  -0.032145   0.026904  -0.010208
    24  H   -0.023227  -0.043480   0.032235   0.011923  -0.000711  -0.037917
    25  H   -0.016824   0.055571  -0.012707   0.055580  -0.012719   0.037437
    26  H    0.004074   0.000730  -0.031549  -0.005062   0.015210  -0.070439
    27  H    0.004078  -0.005064   0.015218   0.000724  -0.031542  -0.070371
    28  H   -0.023223   0.011921  -0.000711  -0.043479   0.032240  -0.037913
    29  H    0.016337  -0.032145   0.026902  -0.024162  -0.035569  -0.010214
    30  H   -0.000647   0.001066  -0.014053   0.000047   0.006489  -0.027280
    31  H   -0.000162  -0.001256   0.002453  -0.000303  -0.031871   0.107661
    32  H    0.000251  -0.000933   0.001003   0.005138  -0.000590   0.081545
    33  H   -0.000647   0.000046   0.006492   0.001066  -0.014057  -0.027258
    34  H    0.000251   0.005139  -0.000561  -0.000933   0.001011   0.081490
    35  H   -0.000159  -0.000302  -0.031887  -0.001256   0.002457   0.107674
              7          8          9         10         11         12
     1  C   -0.176074   0.667288  -0.931545  -0.176056   0.250367  -0.052332
     2  C   -0.073135  -1.188560   1.033920   0.577270  -0.157530   0.093915
     3  C    0.229638   1.087689  -2.252920  -0.715834   1.244813  -0.610864
     4  C    0.577318  -1.188601   1.033761  -0.073241  -0.157354  -0.023363
     5  C   -0.715867   1.088021  -2.253209   0.229717   1.244956   0.068740
     6  C    0.018842  -0.516562  -0.526616   0.018868  -6.389473   0.908509
     7  C    5.743082  -0.064656   0.233756  -0.169432   0.083302  -0.044690
     8  C   -0.064656   7.726584  -1.889958  -0.064500   0.294879  -0.055260
     9  C    0.233756  -1.889958  11.373318   0.233635  -0.767593   0.222321
    10  C   -0.169432  -0.064500   0.233635   5.743047   0.083304   0.005828
    11  C    0.083302   0.294879  -0.767593   0.083304  15.216045  -1.852331
    12  C   -0.044690  -0.055260   0.222321   0.005828  -1.852331   6.754042
    13  C    0.005838  -0.055269   0.222212  -0.044692  -1.852364  -0.311278
    14  Cl  -0.008447   0.001230  -0.179397  -0.008442  -0.465428  -0.038944
    15  H   -0.021795   0.008575   0.000181  -0.021798   0.000008   0.000023
    16  H    0.014375  -0.029971   0.026038   0.014373  -0.001576  -0.000218
    17  H   -0.003678   0.054262  -0.009024  -0.018262  -0.006715  -0.000195
    18  H    0.006831  -0.003252   0.004919   0.003622  -0.011785   0.003463
    19  H   -0.027596  -0.000317  -0.022349   0.005639  -0.029435   0.000581
    20  H   -0.018263   0.054259  -0.009011  -0.003671  -0.006718   0.000034
    21  H    0.005640  -0.000318  -0.022350  -0.027586  -0.029413  -0.012912
    22  H    0.003623  -0.003251   0.004931   0.006829  -0.011761  -0.013679
    23  H    0.410955  -0.018392  -0.040509   0.016288   0.006882  -0.000261
    24  H    0.409673  -0.048497   0.037315  -0.021663  -0.002253   0.000054
    25  H   -0.007987   0.187323   0.009271  -0.007999  -0.004246  -0.000725
    26  H   -0.029293  -0.006125   0.463627   0.011645  -0.015792  -0.005161
    27  H    0.011647  -0.006121   0.463558  -0.029295  -0.015789  -0.023325
    28  H   -0.021662  -0.048497   0.037305   0.409673  -0.002254   0.000813
    29  H    0.016286  -0.018398  -0.040504   0.410960   0.006883  -0.002040
    30  H   -0.000215  -0.002243   0.015162   0.000653  -0.083150   0.468353
    31  H   -0.000017   0.004234  -0.013154  -0.004090  -0.243287   0.542600
    32  H   -0.000414  -0.004330  -0.038656  -0.002276  -0.144995   0.448887
    33  H    0.000653  -0.002243   0.015158  -0.000216  -0.083179  -0.011700
    34  H   -0.002280  -0.004329  -0.038664  -0.000415  -0.144995  -0.019640
    35  H   -0.004086   0.004236  -0.013166  -0.000016  -0.243209   0.002396
             13         14         15         16         17         18
     1  C   -0.052303   0.011422   0.411844   0.400712   0.000832  -0.030088
     2  C   -0.023356  -0.018201  -0.048662  -0.006765   0.185906  -0.004286
     3  C    0.068829  -0.076785   0.033521  -0.048058   0.009375   0.479992
     4  C    0.093907  -0.018245  -0.048666  -0.006763   0.057207  -0.001477
     5  C   -0.610952  -0.076829   0.033516  -0.048065  -0.010755  -0.033480
     6  C    0.908560   0.521309  -0.033098   0.003125   0.022636  -0.075949
     7  C    0.005838  -0.008447  -0.021795   0.014375  -0.003678   0.006831
     8  C   -0.055269   0.001230   0.008575  -0.029971   0.054262  -0.003252
     9  C    0.222212  -0.179397   0.000181   0.026038  -0.009024   0.004919
    10  C   -0.044692  -0.008442  -0.021798   0.014373  -0.018262   0.003622
    11  C   -1.852364  -0.465428   0.000008  -0.001576  -0.006715  -0.011785
    12  C   -0.311278  -0.038944   0.000023  -0.000218  -0.000195   0.003463
    13  C    6.754103  -0.038963   0.000023  -0.000219   0.000032  -0.013684
    14  Cl  -0.038963  17.397161   0.000043  -0.000492  -0.000287  -0.003509
    15  H    0.000023   0.000043   0.589899  -0.032401  -0.004080   0.000110
    16  H   -0.000219  -0.000492  -0.032401   0.583722  -0.004563   0.002972
    17  H    0.000032  -0.000287  -0.004080  -0.004563   0.628417  -0.004904
    18  H   -0.013684  -0.003509   0.000110   0.002972  -0.004904   0.547396
    19  H   -0.012902  -0.001132  -0.000170   0.000090  -0.004893  -0.033658
    20  H   -0.000195  -0.000287  -0.004080  -0.004562  -0.000178  -0.000051
    21  H    0.000576  -0.001133  -0.000170   0.000090   0.000021   0.000056
    22  H    0.003464  -0.003518   0.000110   0.002972  -0.000051   0.002213
    23  H   -0.002039  -0.000056   0.000089  -0.000160  -0.004629   0.000078
    24  H    0.000813  -0.000125   0.003163   0.000088  -0.003979  -0.000153
    25  H   -0.000724   0.000150  -0.000060   0.000021  -0.000177   0.000019
    26  H   -0.023322   0.000363  -0.000002  -0.000004  -0.000058   0.000067
    27  H   -0.005171   0.000361  -0.000002  -0.000004   0.000021  -0.000141
    28  H    0.000054  -0.000125   0.003163   0.000088  -0.000058  -0.000002
    29  H   -0.000260  -0.000056   0.000089  -0.000160   0.000022  -0.000004
    30  H   -0.011702   0.000059   0.000000   0.000000   0.000000  -0.000003
    31  H    0.002392  -0.008994   0.000000   0.000001   0.000000  -0.000009
    32  H   -0.019622   0.021881   0.000000   0.000000   0.000000   0.000000
    33  H    0.468350   0.000072   0.000000   0.000000   0.000000  -0.000019
    34  H    0.448930   0.021883   0.000000   0.000000   0.000000   0.000051
    35  H    0.542544  -0.009014   0.000000   0.000001   0.000008   0.000207
             19         20         21         22         23         24
     1  C    0.011113   0.000805   0.011119  -0.030097   0.016334  -0.023227
     2  C   -0.013166   0.057217  -0.007875  -0.001487  -0.024160  -0.043480
     3  C    0.431572  -0.010764   0.020656  -0.033472  -0.035571   0.032235
     4  C   -0.007877   0.185903  -0.013151  -0.004289  -0.032145   0.011923
     5  C    0.020669   0.009393   0.431608   0.479955   0.026904  -0.000711
     6  C   -0.050141   0.022631  -0.050207  -0.075930  -0.010208  -0.037917
     7  C   -0.027596  -0.018263   0.005640   0.003623   0.410955   0.409673
     8  C   -0.000317   0.054259  -0.000318  -0.003251  -0.018392  -0.048497
     9  C   -0.022349  -0.009011  -0.022350   0.004931  -0.040509   0.037315
    10  C    0.005639  -0.003671  -0.027586   0.006829   0.016288  -0.021663
    11  C   -0.029435  -0.006718  -0.029413  -0.011761   0.006882  -0.002253
    12  C    0.000581   0.000034  -0.012912  -0.013679  -0.000261   0.000054
    13  C   -0.012902  -0.000195   0.000576   0.003464  -0.002039   0.000813
    14  Cl  -0.001132  -0.000287  -0.001133  -0.003518  -0.000056  -0.000125
    15  H   -0.000170  -0.004080  -0.000170   0.000110   0.000089   0.003163
    16  H    0.000090  -0.004562   0.000090   0.002972  -0.000160   0.000088
    17  H   -0.004893  -0.000178   0.000021  -0.000051  -0.004629  -0.003979
    18  H   -0.033658  -0.000051   0.000056   0.002213   0.000078  -0.000153
    19  H    0.597727   0.000021  -0.000147   0.000056   0.003412   0.000136
    20  H    0.000021   0.628418  -0.004893  -0.004904   0.000022  -0.000058
    21  H   -0.000147  -0.004893   0.597742  -0.033660  -0.000004  -0.000002
    22  H    0.000056  -0.004904  -0.033660   0.547395  -0.000004  -0.000002
    23  H    0.003412   0.000022  -0.000004  -0.000004   0.590479  -0.032222
    24  H    0.000136  -0.000058  -0.000002  -0.000002  -0.032222   0.587845
    25  H   -0.000058  -0.000177  -0.000058   0.000019  -0.004616  -0.004064
    26  H    0.002863   0.000021   0.000068  -0.000141   0.003352   0.000124
    27  H    0.000068  -0.000058   0.002863   0.000067   0.000080  -0.000165
    28  H   -0.000002  -0.003979   0.000136  -0.000153   0.000094   0.003216
    29  H   -0.000004  -0.004629   0.003412   0.000078  -0.000164   0.000094
    30  H   -0.000003   0.000000   0.000053  -0.000019   0.000000   0.000000
    31  H    0.000002   0.000008  -0.000168   0.000207   0.000000   0.000000
    32  H   -0.000008   0.000000  -0.000300   0.000051   0.000000   0.000000
    33  H    0.000053   0.000000  -0.000003  -0.000003   0.000000   0.000000
    34  H   -0.000300   0.000000  -0.000008   0.000000  -0.000005   0.000000
    35  H   -0.000168   0.000000   0.000002  -0.000009  -0.000002   0.000000
             25         26         27         28         29         30
     1  C   -0.016824   0.004074   0.004078  -0.023223   0.016337  -0.000647
     2  C    0.055571   0.000730  -0.005064   0.011921  -0.032145   0.001066
     3  C   -0.012707  -0.031549   0.015218  -0.000711   0.026902  -0.014053
     4  C    0.055580  -0.005062   0.000724  -0.043479  -0.024162   0.000047
     5  C   -0.012719   0.015210  -0.031542   0.032240  -0.035569   0.006489
     6  C    0.037437  -0.070439  -0.070371  -0.037913  -0.010214  -0.027280
     7  C   -0.007987  -0.029293   0.011647  -0.021662   0.016286  -0.000215
     8  C    0.187323  -0.006125  -0.006121  -0.048497  -0.018398  -0.002243
     9  C    0.009271   0.463627   0.463558   0.037305  -0.040504   0.015162
    10  C   -0.007999   0.011645  -0.029295   0.409673   0.410960   0.000653
    11  C   -0.004246  -0.015792  -0.015789  -0.002254   0.006883  -0.083150
    12  C   -0.000725  -0.005161  -0.023325   0.000813  -0.002040   0.468353
    13  C   -0.000724  -0.023322  -0.005171   0.000054  -0.000260  -0.011702
    14  Cl   0.000150   0.000363   0.000361  -0.000125  -0.000056   0.000059
    15  H   -0.000060  -0.000002  -0.000002   0.003163   0.000089   0.000000
    16  H    0.000021  -0.000004  -0.000004   0.000088  -0.000160   0.000000
    17  H   -0.000177  -0.000058   0.000021  -0.000058   0.000022   0.000000
    18  H    0.000019   0.000067  -0.000141  -0.000002  -0.000004  -0.000003
    19  H   -0.000058   0.002863   0.000068  -0.000002  -0.000004  -0.000003
    20  H   -0.000177   0.000021  -0.000058  -0.003979  -0.004629   0.000000
    21  H   -0.000058   0.000068   0.002863   0.000136   0.003412   0.000053
    22  H    0.000019  -0.000141   0.000067  -0.000153   0.000078  -0.000019
    23  H   -0.004616   0.003352   0.000080   0.000094  -0.000164   0.000000
    24  H   -0.004064   0.000124  -0.000165   0.003216   0.000094   0.000000
    25  H    0.628600  -0.005068  -0.005068  -0.004064  -0.004616   0.000000
    26  H   -0.005068   0.590270  -0.036697  -0.000165   0.000080  -0.000013
    27  H   -0.005068  -0.036697   0.590260   0.000124   0.003352   0.000056
    28  H   -0.004064  -0.000165   0.000124   0.587844  -0.032222   0.000000
    29  H   -0.004616   0.000080   0.003352  -0.032222   0.590480   0.000000
    30  H    0.000000  -0.000013   0.000056   0.000000   0.000000   0.535334
    31  H    0.000000   0.000056  -0.000118   0.000000  -0.000002  -0.025826
    32  H    0.000002  -0.000144  -0.000659   0.000000  -0.000005  -0.028503
    33  H    0.000000   0.000056  -0.000013   0.000000   0.000000   0.003271
    34  H    0.000002  -0.000659  -0.000144   0.000000   0.000000   0.000082
    35  H    0.000000  -0.000118   0.000056   0.000000   0.000000   0.000123
             31         32         33         34         35
     1  C   -0.000162   0.000251  -0.000647   0.000251  -0.000159
     2  C   -0.001256  -0.000933   0.000046   0.005139  -0.000302
     3  C    0.002453   0.001003   0.006492  -0.000561  -0.031887
     4  C   -0.000303   0.005138   0.001066  -0.000933  -0.001256
     5  C   -0.031871  -0.000590  -0.014057   0.001011   0.002457
     6  C    0.107661   0.081545  -0.027258   0.081490   0.107674
     7  C   -0.000017  -0.000414   0.000653  -0.002280  -0.004086
     8  C    0.004234  -0.004330  -0.002243  -0.004329   0.004236
     9  C   -0.013154  -0.038656   0.015158  -0.038664  -0.013166
    10  C   -0.004090  -0.002276  -0.000216  -0.000415  -0.000016
    11  C   -0.243287  -0.144995  -0.083179  -0.144995  -0.243209
    12  C    0.542600   0.448887  -0.011700  -0.019640   0.002396
    13  C    0.002392  -0.019622   0.468350   0.448930   0.542544
    14  Cl  -0.008994   0.021881   0.000072   0.021883  -0.009014
    15  H    0.000000   0.000000   0.000000   0.000000   0.000000
    16  H    0.000001   0.000000   0.000000   0.000000   0.000001
    17  H    0.000000   0.000000   0.000000   0.000000   0.000008
    18  H   -0.000009   0.000000  -0.000019   0.000051   0.000207
    19  H    0.000002  -0.000008   0.000053  -0.000300  -0.000168
    20  H    0.000008   0.000000   0.000000   0.000000   0.000000
    21  H   -0.000168  -0.000300  -0.000003  -0.000008   0.000002
    22  H    0.000207   0.000051  -0.000003   0.000000  -0.000009
    23  H    0.000000   0.000000   0.000000  -0.000005  -0.000002
    24  H    0.000000   0.000000   0.000000   0.000000   0.000000
    25  H    0.000000   0.000002   0.000000   0.000002   0.000000
    26  H    0.000056  -0.000144   0.000056  -0.000659  -0.000118
    27  H   -0.000118  -0.000659  -0.000013  -0.000144   0.000056
    28  H    0.000000   0.000000   0.000000   0.000000   0.000000
    29  H   -0.000002  -0.000005   0.000000   0.000000   0.000000
    30  H   -0.025826  -0.028503   0.003271   0.000082   0.000123
    31  H    0.535161  -0.028199   0.000123   0.000090  -0.000174
    32  H   -0.028199   0.557351   0.000081   0.000936   0.000090
    33  H    0.000123   0.000081   0.535340  -0.028503  -0.025827
    34  H    0.000090   0.000936  -0.028503   0.557360  -0.028198
    35  H   -0.000174   0.000090  -0.025827  -0.028198   0.535146
 Mulliken atomic charges:
              1
     1  C   -0.383946
     2  C    0.022194
     3  C   -0.298297
     4  C    0.022183
     5  C   -0.298299
     6  C   -0.313173
     7  C   -0.381871
     8  C    0.041071
     9  C   -0.381764
    10  C   -0.381867
    11  C    0.291187
    12  C   -0.441639
    13  C   -0.441610
    14  Cl  -0.017527
    15  H    0.130627
    16  H    0.135314
    17  H    0.117747
    18  H    0.164460
    19  H    0.130324
    20  H    0.117747
    21  H    0.130317
    22  H    0.164462
    23  H    0.130179
    24  H    0.131839
    25  H    0.117964
    26  H    0.137206
    27  H    0.137213
    28  H    0.131840
    29  H    0.130178
    30  H    0.162911
    31  H    0.162644
    32  H    0.152416
    33  H    0.162906
    34  H    0.152411
    35  H    0.162654
 Sum of Mulliken atomic charges =   0.00000
 Mulliken charges with hydrogens summed into heavy atoms:
              1
     1  C   -0.118006
     2  C    0.139941
     3  C   -0.003514
     4  C    0.139930
     5  C   -0.003520
     6  C   -0.313173
     7  C   -0.119853
     8  C    0.159036
     9  C   -0.107345
    10  C   -0.119849
    11  C    0.291187
    12  C    0.036332
    13  C    0.036361
    14  Cl  -0.017527
 Sum of Mulliken charges with hydrogens summed into heavy atoms =   0.00000
 Electronic spatial extent (au):  <R**2>=           2865.9163
 Charge=              0.0000 electrons
 Dipole moment (field-independent basis, Debye):
    X=              1.4279    Y=              1.8967    Z=              0.0000  Tot=              2.3741
 Quadrupole moment (field-independent basis, Debye-Ang):
   XX=           -100.2228   YY=            -96.3897   ZZ=            -95.0514
   XY=             -5.2287   XZ=              0.0001   YZ=              0.0000
 Traceless Quadrupole moment (field-independent basis, Debye-Ang):
   XX=             -3.0015   YY=              0.8316   ZZ=              2.1699
   XY=             -5.2287   XZ=              0.0001   YZ=              0.0000
 Octapole moment (field-independent basis, Debye-Ang**2):
  XXX=              3.2503  YYY=             -3.6777  ZZZ=             -0.0002  XYY=             -1.7771
  XXY=             11.4333  XXZ=              0.0000  XZZ=             -4.9534  YZZ=             -0.7373
  YYZ=              0.0000  XYZ=             -0.0001
 Hexadecapole moment (field-independent basis, Debye-Ang**3):
 XXXX=          -2430.3322 YYYY=           -824.7891 ZZZZ=           -733.7634 XXXY=            -27.6827
 XXXZ=             -0.0002 YYYX=             16.8721 YYYZ=              0.0010 ZZZX=              0.0025
 ZZZY=             -0.0004 XXYY=           -548.7651 XXZZ=           -531.4627 YYZZ=           -262.2601
 XXYZ=              0.0000 YYXZ=             -0.0016 ZZXY=             -0.3627
 N-N= 1.143599973511D+03 E-N=-4.555277477910D+03  KE= 9.623120996393D+02
 1\1\GINC-XT24\SP\RB3LYP\6-31+G(d,p)\C13H21Cl1\GIANNIS\05-Jul-2018\0\\#
  b3lyp/6-31+g(d,p)\\Adamantyl-CMe2Cl\\0,1\C,0,2.136071,-1.591548,0.000
 313\C,0,1.717545,-0.806384,-1.248826\C,0,0.193103,-0.611752,-1.253229\
 C,0,1.717611,-0.80585,1.249136\C,0,0.193167,-0.611224,1.253528\C,0,-0.
 276411,0.168805,-0.000002\C,0,2.40932,0.562857,-1.252294\C,0,1.98632,1
 .341649,-0.000311\C,0,0.460042,1.536543,-0.000307\C,0,2.409387,0.56339
 2,1.251983\C,0,-1.831108,0.394182,-0.000001\C,0,-2.36049,1.112689,1.24
 4998\C,0,-2.360508,1.112698,-1.24499\Cl,0,-2.678668,-1.253641,0.\H,0,3
 .212291,-1.754195,0.000321\H,0,1.666552,-2.573058,0.000536\H,0,1.99878
 4,-1.360758,-2.141363\H,0,-0.296837,-1.577884,-1.293749\H,0,-0.083729,
 -0.076618,-2.15615\H,0,1.998896,-1.359842,2.141896\H,0,-0.083635,-0.07
 5716,2.156239\H,0,-0.296761,-1.577343,1.294474\H,0,2.139333,1.117397,-
 2.149262\H,0,3.490544,0.440499,-1.269877\H,0,2.459028,2.321444,-0.0005
 33\H,0,0.182544,2.118859,-0.873674\H,0,0.182604,2.119215,0.872839\H,0,
 3.490612,0.441042,1.269559\H,0,2.139448,1.118315,2.148727\H,0,-3.43922
 ,1.189169,1.187195\H,0,-2.115783,0.589718,2.1582\H,0,-1.958275,2.11819
 4,1.299015\H,0,-3.439223,1.189316,-1.187099\H,0,-1.95817,2.118151,-1.2
 99082\H,0,-2.115947,0.589661,-2.158191\\Version=AM64L-G09RevC.01\State
 =1-A\HF=-968.2958531\RMSD=2.547e-09\Dipole=0.5617831,0.7462257,-0.0000
 034\Quadrupole=-2.2315723,0.6182703,1.613302,-3.8873812,0.0000446,0.00
 00056\PG=C01 [X(C13H21Cl1)]\\@


 Standing in the middle of the road is very dangerous;
 you get knocked down by the traffic from both sides.
                                -- Margaret Thatcher
 Job cpu time:  0 days  0 hours 22 minutes 42.8 seconds.
 File lengths (MBytes):  RWF=     93 Int=      0 D2E=      0 Chk=      6 Scr=      1
 Normal termination of Gaussian 09 at Thu Jul  5 18:57:10 2018.
