 Entering Gaussian System, Link 0=g09
 Input=Adamantyl_CMe2Cl_ts_b3lyp.gjf
 Output=Adamantyl_CMe2Cl_ts_b3lyp.log
 Initial command:
 /opt/g09/g09/l1.exe /scratch/tmp/Gau-16503.inp -scrdir=/scratch/tmp/
 Entering Link 1 = /opt/g09/g09/l1.exe PID=     16504.
  
 Copyright (c) 1988,1990,1992,1993,1995,1998,2003,2009,2011,
            Gaussian, Inc.  All Rights Reserved.
  
 This is part of the Gaussian(R) 09 program.  It is based on
 the Gaussian(R) 03 system (copyright 2003, Gaussian, Inc.),
 the Gaussian(R) 98 system (copyright 1998, Gaussian, Inc.),
 the Gaussian(R) 94 system (copyright 1995, Gaussian, Inc.),
 the Gaussian 92(TM) system (copyright 1992, Gaussian, Inc.),
 the Gaussian 90(TM) system (copyright 1990, Gaussian, Inc.),
 the Gaussian 88(TM) system (copyright 1988, Gaussian, Inc.),
 the Gaussian 86(TM) system (copyright 1986, Carnegie Mellon
 University), and the Gaussian 82(TM) system (copyright 1983,
 Carnegie Mellon University). Gaussian is a federally registered
 trademark of Gaussian, Inc.
  
 This software contains proprietary and confidential information,
 including trade secrets, belonging to Gaussian, Inc.
  
 This software is provided under written license and may be
 used, copied, transmitted, or stored only in accord with that
 written license.
  
 The following legend is applicable only to US Government
 contracts under FAR:
  
                    RESTRICTED RIGHTS LEGEND
  
 Use, reproduction and disclosure by the US Government is
 subject to restrictions as set forth in subparagraphs (a)
 and (c) of the Commercial Computer Software - Restricted
 Rights clause in FAR 52.227-19.
  
 Gaussian, Inc.
 340 Quinnipiac St., Bldg. 40, Wallingford CT 06492
  
  
 ---------------------------------------------------------------
 Warning -- This program may not be used in any manner that
 competes with the business of Gaussian, Inc. or will provide
 assistance to any competitor of Gaussian, Inc.  The licensee
 of this program is prohibited from giving any competitor of
 Gaussian, Inc. access to this program.  By using this program,
 the user acknowledges that Gaussian, Inc. is engaged in the
 business of creating and licensing software in the field of
 computational chemistry and represents and warrants to the
 licensee that it is not a competitor of Gaussian, Inc. and that
 it will not use this program in any manner prohibited above.
 ---------------------------------------------------------------
  

 Cite this work as:
 Gaussian 09, Revision C.01,
 M. J. Frisch, G. W. Trucks, H. B. Schlegel, G. E. Scuseria, 
 M. A. Robb, J. R. Cheeseman, G. Scalmani, V. Barone, B. Mennucci, 
 G. A. Petersson, H. Nakatsuji, M. Caricato, X. Li, H. P. Hratchian, 
 A. F. Izmaylov, J. Bloino, G. Zheng, J. L. Sonnenberg, M. Hada, 
 M. Ehara, K. Toyota, R. Fukuda, J. Hasegawa, M. Ishida, T. Nakajima, 
 Y. Honda, O. Kitao, H. Nakai, T. Vreven, J. A. Montgomery, Jr., 
 J. E. Peralta, F. Ogliaro, M. Bearpark, J. J. Heyd, E. Brothers, 
 K. N. Kudin, V. N. Staroverov, T. Keith, R. Kobayashi, J. Normand, 
 K. Raghavachari, A. Rendell, J. C. Burant, S. S. Iyengar, J. Tomasi, 
 M. Cossi, N. Rega, J. M. Millam, M. Klene, J. E. Knox, J. B. Cross, 
 V. Bakken, C. Adamo, J. Jaramillo, R. Gomperts, R. E. Stratmann, 
 O. Yazyev, A. J. Austin, R. Cammi, C. Pomelli, J. W. Ochterski, 
 R. L. Martin, K. Morokuma, V. G. Zakrzewski, G. A. Voth, 
 P. Salvador, J. J. Dannenberg, S. Dapprich, A. D. Daniels, 
 O. Farkas, J. B. Foresman, J. V. Ortiz, J. Cioslowski, 
 and D. J. Fox, Gaussian, Inc., Wallingford CT, 2010.
 
 ******************************************
 Gaussian 09:  AM64L-G09RevC.01 23-Sep-2011
                 5-Jul-2018 
 ******************************************
 %mem=2000MB
 %nprocshared=4
 Will use up to    4 processors via shared memory.
 %rwf=/pub/tmp/
 %NoSave
 ------------------------------------
 # opt=modredundant b3lyp/6-31+g(d,p)
 ------------------------------------
 1/14=-1,18=120,19=15,26=3,38=1/1,3;
 2/9=110,12=2,17=6,18=5,40=1/2;
 3/5=1,6=6,7=111,11=2,16=1,25=1,30=1,71=1,74=-5/1,2,3;
 4//1;
 5/5=2,38=5/2;
 6/7=2,8=2,9=2,10=2,28=1/1;
 7//1,2,3,16;
 1/14=-1,18=20,19=15/3(2);
 2/9=110/2;
 99//99;
 2/9=110/2;
 3/5=1,6=6,7=111,11=2,16=1,25=1,30=1,71=1,74=-5/1,2,3;
 4/5=5,16=3/1;
 5/5=2,38=5/2;
 7//1,2,3,16;
 1/14=-1,18=20,19=15/3(-5);
 2/9=110/2;
 6/7=2,8=2,9=2,10=2,19=2,28=1/1;
 99/9=1/99;
 -------------------
 Adamantyl-CMe2Cl-ts
 -------------------
 Charge =  0 Multiplicity = 1
 Symbolic Z-Matrix:
 C                    -1.69234  -1.86778  -1.0798 
 C                    -2.01734  -0.37178  -0.9558 
 C                    -1.29634   0.21422   0.2702 
 C                    -0.17334  -2.02578  -1.2348 
 C                     0.53666  -1.42978  -0.0058 
 C                     0.24966   0.08322   0.1902 
 C                    -1.56234   0.36422  -2.2238 
 C                    -0.04334   0.19022  -2.3708 
 C                     0.66566   0.77422  -1.1358 
 C                     0.29666  -1.30078  -2.5038 
 C                     1.00066   0.68722   1.4552 
 C                     1.83866  -0.34078   2.2532 
 C                     1.96666   1.85322   1.1292 
 Cl                   -0.15134   1.38622   2.6882 
 H                    -2.22134  -2.30878  -1.9578 
 H                    -2.05034  -2.41778  -0.1768 
 H                    -3.12334  -0.24578  -0.8358 
 H                    -1.68134  -0.31578   1.1732 
 H                    -1.58834   1.28822   0.3502 
 H                     0.07466  -3.11278  -1.3198 
 H                     1.62966  -1.60178  -0.1338 
 H                     0.20266  -2.00778   0.8872 
 H                    -1.82434   1.44722  -2.1588 
 H                    -2.08834  -0.04178  -3.1198 
 H                     0.29966   0.72822  -3.2898 
 H                     0.42866   1.86322  -1.0978 
 H                     1.76266   0.66922  -1.2988 
 H                    -0.19934  -1.73378  -3.4048 
 H                     1.39566  -1.43678  -2.6438 
 H                     2.33966   0.12122   3.1362 
 H                     1.22366  -1.17478   2.6592 
 H                     2.66266  -0.76978   1.6402 
 H                     2.46466   2.25422   2.0422 
 H                     2.79666   1.52922   0.4622 
 H                     1.45066   2.72222   0.6622 
 
 The following ModRedundant input section has been read:
 D       3       6      11      14 F                                           

 GradGradGradGradGradGradGradGradGradGradGradGradGradGradGradGradGradGrad
 Berny optimization.
 Initialization pass.
                           ----------------------------
                           !    Initial Parameters    !
                           ! (Angstroms and Degrees)  !
 --------------------------                            --------------------------
 ! Name  Definition              Value          Derivative Info.                !
 --------------------------------------------------------------------------------
 ! R1    R(1,2)                  1.5359         estimate D2E/DX2                !
 ! R2    R(1,4)                  1.535          estimate D2E/DX2                !
 ! R3    R(1,15)                 1.1159         estimate D2E/DX2                !
 ! R4    R(1,16)                 1.1163         estimate D2E/DX2                !
 ! R5    R(2,3)                  1.5383         estimate D2E/DX2                !
 ! R6    R(2,7)                  1.5351         estimate D2E/DX2                !
 ! R7    R(2,17)                 1.1196         estimate D2E/DX2                !
 ! R8    R(3,6)                  1.5536         estimate D2E/DX2                !
 ! R9    R(3,18)                 1.1156         estimate D2E/DX2                !
 ! R10   R(3,19)                 1.1159         estimate D2E/DX2                !
 ! R11   R(4,5)                  1.5394         estimate D2E/DX2                !
 ! R12   R(4,10)                 1.5352         estimate D2E/DX2                !
 ! R13   R(4,20)                 1.1182         estimate D2E/DX2                !
 ! R14   R(5,6)                  1.5524         estimate D2E/DX2                !
 ! R15   R(5,21)                 1.1138         estimate D2E/DX2                !
 ! R16   R(5,22)                 1.1149         estimate D2E/DX2                !
 ! R17   R(6,9)                  1.552          estimate D2E/DX2                !
 ! R18   R(6,11)                 1.5903         estimate D2E/DX2                !
 ! R19   R(7,8)                  1.536          estimate D2E/DX2                !
 ! R20   R(7,23)                 1.1161         estimate D2E/DX2                !
 ! R21   R(7,24)                 1.1155         estimate D2E/DX2                !
 ! R22   R(8,9)                  1.5391         estimate D2E/DX2                !
 ! R23   R(8,10)                 1.535          estimate D2E/DX2                !
 ! R24   R(8,25)                 1.1188         estimate D2E/DX2                !
 ! R25   R(9,26)                 1.1151         estimate D2E/DX2                !
 ! R26   R(9,27)                 1.114          estimate D2E/DX2                !
 ! R27   R(10,28)                1.1159         estimate D2E/DX2                !
 ! R28   R(10,29)                1.1162         estimate D2E/DX2                !
 ! R29   R(11,12)                1.5478         estimate D2E/DX2                !
 ! R30   R(11,13)                1.5489         estimate D2E/DX2                !
 ! R31   R(11,14)                1.8265         estimate D2E/DX2                !
 ! R32   R(12,30)                1.1154         estimate D2E/DX2                !
 ! R33   R(12,31)                1.1129         estimate D2E/DX2                !
 ! R34   R(12,32)                1.113          estimate D2E/DX2                !
 ! R35   R(13,33)                1.1146         estimate D2E/DX2                !
 ! R36   R(13,34)                1.113          estimate D2E/DX2                !
 ! R37   R(13,35)                1.1133         estimate D2E/DX2                !
 ! A1    A(2,1,4)              108.5297         estimate D2E/DX2                !
 ! A2    A(2,1,15)             110.3738         estimate D2E/DX2                !
 ! A3    A(2,1,16)             110.2878         estimate D2E/DX2                !
 ! A4    A(4,1,15)             110.4251         estimate D2E/DX2                !
 ! A5    A(4,1,16)             110.385          estimate D2E/DX2                !
 ! A6    A(15,1,16)            106.8419         estimate D2E/DX2                !
 ! A7    A(1,2,3)              109.6462         estimate D2E/DX2                !
 ! A8    A(1,2,7)              109.7297         estimate D2E/DX2                !
 ! A9    A(1,2,17)             109.1049         estimate D2E/DX2                !
 ! A10   A(3,2,7)              109.6792         estimate D2E/DX2                !
 ! A11   A(3,2,17)             109.5553         estimate D2E/DX2                !
 ! A12   A(7,2,17)             109.1092         estimate D2E/DX2                !
 ! A13   A(2,3,6)              113.1569         estimate D2E/DX2                !
 ! A14   A(2,3,18)             107.6007         estimate D2E/DX2                !
 ! A15   A(2,3,19)             107.5262         estimate D2E/DX2                !
 ! A16   A(6,3,18)             110.1844         estimate D2E/DX2                !
 ! A17   A(6,3,19)             110.1971         estimate D2E/DX2                !
 ! A18   A(18,3,19)            107.9944         estimate D2E/DX2                !
 ! A19   A(1,4,5)              109.6293         estimate D2E/DX2                !
 ! A20   A(1,4,10)             109.7431         estimate D2E/DX2                !
 ! A21   A(1,4,20)             109.0995         estimate D2E/DX2                !
 ! A22   A(5,4,10)             109.6264         estimate D2E/DX2                !
 ! A23   A(5,4,20)             109.5584         estimate D2E/DX2                !
 ! A24   A(10,4,20)            109.1685         estimate D2E/DX2                !
 ! A25   A(4,5,6)              113.133          estimate D2E/DX2                !
 ! A26   A(4,5,21)             107.5212         estimate D2E/DX2                !
 ! A27   A(4,5,22)             107.4915         estimate D2E/DX2                !
 ! A28   A(6,5,21)             110.2691         estimate D2E/DX2                !
 ! A29   A(6,5,22)             110.4109         estimate D2E/DX2                !
 ! A30   A(21,5,22)            107.8156         estimate D2E/DX2                !
 ! A31   A(3,6,5)              105.8221         estimate D2E/DX2                !
 ! A32   A(3,6,9)              105.8534         estimate D2E/DX2                !
 ! A33   A(3,6,11)             113.3872         estimate D2E/DX2                !
 ! A34   A(5,6,9)              106.0514         estimate D2E/DX2                !
 ! A35   A(5,6,11)             112.5375         estimate D2E/DX2                !
 ! A36   A(9,6,11)             112.5772         estimate D2E/DX2                !
 ! A37   A(2,7,8)              108.5335         estimate D2E/DX2                !
 ! A38   A(2,7,23)             110.3365         estimate D2E/DX2                !
 ! A39   A(2,7,24)             110.4388         estimate D2E/DX2                !
 ! A40   A(8,7,23)             110.3428         estimate D2E/DX2                !
 ! A41   A(8,7,24)             110.3786         estimate D2E/DX2                !
 ! A42   A(23,7,24)            106.8129         estimate D2E/DX2                !
 ! A43   A(7,8,9)              109.6198         estimate D2E/DX2                !
 ! A44   A(7,8,10)             109.7165         estimate D2E/DX2                !
 ! A45   A(7,8,25)             109.1071         estimate D2E/DX2                !
 ! A46   A(9,8,10)             109.6356         estimate D2E/DX2                !
 ! A47   A(9,8,25)             109.5984         estimate D2E/DX2                !
 ! A48   A(10,8,25)            109.1479         estimate D2E/DX2                !
 ! A49   A(6,9,8)              113.1497         estimate D2E/DX2                !
 ! A50   A(6,9,26)             110.4082         estimate D2E/DX2                !
 ! A51   A(6,9,27)             110.3033         estimate D2E/DX2                !
 ! A52   A(8,9,26)             107.4564         estimate D2E/DX2                !
 ! A53   A(8,9,27)             107.4844         estimate D2E/DX2                !
 ! A54   A(26,9,27)            107.8374         estimate D2E/DX2                !
 ! A55   A(4,10,8)             108.6187         estimate D2E/DX2                !
 ! A56   A(4,10,28)            110.3697         estimate D2E/DX2                !
 ! A57   A(4,10,29)            110.3385         estimate D2E/DX2                !
 ! A58   A(8,10,28)            110.3889         estimate D2E/DX2                !
 ! A59   A(8,10,29)            110.3218         estimate D2E/DX2                !
 ! A60   A(28,10,29)           106.8028         estimate D2E/DX2                !
 ! A61   A(6,11,12)            114.4262         estimate D2E/DX2                !
 ! A62   A(6,11,13)            114.3949         estimate D2E/DX2                !
 ! A63   A(6,11,14)            112.6118         estimate D2E/DX2                !
 ! A64   A(12,11,13)           105.7136         estimate D2E/DX2                !
 ! A65   A(12,11,14)           104.3361         estimate D2E/DX2                !
 ! A66   A(13,11,14)           104.321          estimate D2E/DX2                !
 ! A67   A(11,12,30)           112.0997         estimate D2E/DX2                !
 ! A68   A(11,12,31)           112.7429         estimate D2E/DX2                !
 ! A69   A(11,12,32)           111.8921         estimate D2E/DX2                !
 ! A70   A(30,12,31)           105.6525         estimate D2E/DX2                !
 ! A71   A(30,12,32)           105.2553         estimate D2E/DX2                !
 ! A72   A(31,12,32)           108.7346         estimate D2E/DX2                !
 ! A73   A(11,13,33)           112.1532         estimate D2E/DX2                !
 ! A74   A(11,13,34)           111.8445         estimate D2E/DX2                !
 ! A75   A(11,13,35)           112.757          estimate D2E/DX2                !
 ! A76   A(33,13,34)           105.2139         estimate D2E/DX2                !
 ! A77   A(33,13,35)           105.6555         estimate D2E/DX2                !
 ! A78   A(34,13,35)           108.752          estimate D2E/DX2                !
 ! D1    D(4,1,2,3)            -59.6671         estimate D2E/DX2                !
 ! D2    D(4,1,2,7)             60.857          estimate D2E/DX2                !
 ! D3    D(4,1,2,17)          -179.6523         estimate D2E/DX2                !
 ! D4    D(15,1,2,3)           179.195          estimate D2E/DX2                !
 ! D5    D(15,1,2,7)           -60.2809         estimate D2E/DX2                !
 ! D6    D(15,1,2,17)           59.2098         estimate D2E/DX2                !
 ! D7    D(16,1,2,3)            61.3686         estimate D2E/DX2                !
 ! D8    D(16,1,2,7)          -178.1074         estimate D2E/DX2                !
 ! D9    D(16,1,2,17)          -58.6166         estimate D2E/DX2                !
 ! D10   D(2,1,4,5)             59.6888         estimate D2E/DX2                !
 ! D11   D(2,1,4,10)           -60.7679         estimate D2E/DX2                !
 ! D12   D(2,1,4,20)           179.6642         estimate D2E/DX2                !
 ! D13   D(15,1,4,5)          -179.2049         estimate D2E/DX2                !
 ! D14   D(15,1,4,10)           60.3384         estimate D2E/DX2                !
 ! D15   D(15,1,4,20)          -59.2295         estimate D2E/DX2                !
 ! D16   D(16,1,4,5)           -61.2869         estimate D2E/DX2                !
 ! D17   D(16,1,4,10)          178.2564         estimate D2E/DX2                !
 ! D18   D(16,1,4,20)           58.6885         estimate D2E/DX2                !
 ! D19   D(1,2,3,6)             60.2965         estimate D2E/DX2                !
 ! D20   D(1,2,3,18)           -61.6679         estimate D2E/DX2                !
 ! D21   D(1,2,3,19)          -177.7753         estimate D2E/DX2                !
 ! D22   D(7,2,3,6)            -60.2582         estimate D2E/DX2                !
 ! D23   D(7,2,3,18)           177.7774         estimate D2E/DX2                !
 ! D24   D(7,2,3,19)            61.6699         estimate D2E/DX2                !
 ! D25   D(17,2,3,6)          -179.9936         estimate D2E/DX2                !
 ! D26   D(17,2,3,18)           58.042          estimate D2E/DX2                !
 ! D27   D(17,2,3,19)          -58.0655         estimate D2E/DX2                !
 ! D28   D(1,2,7,8)            -60.8569         estimate D2E/DX2                !
 ! D29   D(1,2,7,23)           178.1271         estimate D2E/DX2                !
 ! D30   D(1,2,7,24)            60.2663         estimate D2E/DX2                !
 ! D31   D(3,2,7,8)             59.6472         estimate D2E/DX2                !
 ! D32   D(3,2,7,23)           -61.3688         estimate D2E/DX2                !
 ! D33   D(3,2,7,24)          -179.2296         estimate D2E/DX2                !
 ! D34   D(17,2,7,8)           179.655          estimate D2E/DX2                !
 ! D35   D(17,2,7,23)           58.639          estimate D2E/DX2                !
 ! D36   D(17,2,7,24)          -59.2218         estimate D2E/DX2                !
 ! D37   D(2,3,6,5)            -56.171          estimate D2E/DX2                !
 ! D38   D(2,3,6,9)             56.1148         estimate D2E/DX2                !
 ! D39   D(2,3,6,11)          -179.992          estimate D2E/DX2                !
 ! D40   D(18,3,6,5)            64.3352         estimate D2E/DX2                !
 ! D41   D(18,3,6,9)           176.6211         estimate D2E/DX2                !
 ! D42   D(18,3,6,11)          -59.4857         estimate D2E/DX2                !
 ! D43   D(19,3,6,5)          -176.5908         estimate D2E/DX2                !
 ! D44   D(19,3,6,9)           -64.305          estimate D2E/DX2                !
 ! D45   D(19,3,6,11)           59.5882         estimate D2E/DX2                !
 ! D46   D(1,4,5,6)            -60.3882         estimate D2E/DX2                !
 ! D47   D(1,4,5,21)           177.6116         estimate D2E/DX2                !
 ! D48   D(1,4,5,22)            61.7701         estimate D2E/DX2                !
 ! D49   D(10,4,5,6)            60.1395         estimate D2E/DX2                !
 ! D50   D(10,4,5,21)          -61.8607         estimate D2E/DX2                !
 ! D51   D(10,4,5,22)         -177.7023         estimate D2E/DX2                !
 ! D52   D(20,4,5,6)           179.9171         estimate D2E/DX2                !
 ! D53   D(20,4,5,21)           57.9168         estimate D2E/DX2                !
 ! D54   D(20,4,5,22)          -57.9247         estimate D2E/DX2                !
 ! D55   D(1,4,10,8)            60.7557         estimate D2E/DX2                !
 ! D56   D(1,4,10,28)          -60.3918         estimate D2E/DX2                !
 ! D57   D(1,4,10,29)         -178.1987         estimate D2E/DX2                !
 ! D58   D(5,4,10,8)           -59.7028         estimate D2E/DX2                !
 ! D59   D(5,4,10,28)          179.1497         estimate D2E/DX2                !
 ! D60   D(5,4,10,29)           61.3427         estimate D2E/DX2                !
 ! D61   D(20,4,10,8)         -179.7187         estimate D2E/DX2                !
 ! D62   D(20,4,10,28)          59.1338         estimate D2E/DX2                !
 ! D63   D(20,4,10,29)         -58.6731         estimate D2E/DX2                !
 ! D64   D(4,5,6,3)             56.1894         estimate D2E/DX2                !
 ! D65   D(4,5,6,9)            -55.9579         estimate D2E/DX2                !
 ! D66   D(4,5,6,11)          -179.4577         estimate D2E/DX2                !
 ! D67   D(21,5,6,3)           176.6379         estimate D2E/DX2                !
 ! D68   D(21,5,6,9)            64.4906         estimate D2E/DX2                !
 ! D69   D(21,5,6,11)          -59.0092         estimate D2E/DX2                !
 ! D70   D(22,5,6,3)           -64.3221         estimate D2E/DX2                !
 ! D71   D(22,5,6,9)          -176.4694         estimate D2E/DX2                !
 ! D72   D(22,5,6,11)           60.0308         estimate D2E/DX2                !
 ! D73   D(3,6,9,8)            -56.1666         estimate D2E/DX2                !
 ! D74   D(3,6,9,26)            64.3094         estimate D2E/DX2                !
 ! D75   D(3,6,9,27)          -176.6036         estimate D2E/DX2                !
 ! D76   D(5,6,9,8)             55.9588         estimate D2E/DX2                !
 ! D77   D(5,6,9,26)           176.4348         estimate D2E/DX2                !
 ! D78   D(5,6,9,27)           -64.4782         estimate D2E/DX2                !
 ! D79   D(11,6,9,8)           179.4337         estimate D2E/DX2                !
 ! D80   D(11,6,9,26)          -60.0903         estimate D2E/DX2                !
 ! D81   D(11,6,9,27)           58.9967         estimate D2E/DX2                !
 ! D82   D(3,6,11,12)          118.9143         estimate D2E/DX2                !
 ! D83   D(3,6,11,13)         -118.9055         estimate D2E/DX2                !
 ! D84   D(3,6,11,14)           -0.0169         Frozen                          !
 ! D85   D(5,6,11,12)           -1.1577         estimate D2E/DX2                !
 ! D86   D(5,6,11,13)          121.0225         estimate D2E/DX2                !
 ! D87   D(5,6,11,14)         -120.0888         estimate D2E/DX2                !
 ! D88   D(9,6,11,12)         -120.9433         estimate D2E/DX2                !
 ! D89   D(9,6,11,13)            1.2369         estimate D2E/DX2                !
 ! D90   D(9,6,11,14)          120.1256         estimate D2E/DX2                !
 ! D91   D(2,7,8,9)            -59.6651         estimate D2E/DX2                !
 ! D92   D(2,7,8,10)            60.7803         estimate D2E/DX2                !
 ! D93   D(2,7,8,25)          -179.6883         estimate D2E/DX2                !
 ! D94   D(23,7,8,9)            61.3471         estimate D2E/DX2                !
 ! D95   D(23,7,8,10)         -178.2075         estimate D2E/DX2                !
 ! D96   D(23,7,8,25)          -58.6761         estimate D2E/DX2                !
 ! D97   D(24,7,8,9)           179.1747         estimate D2E/DX2                !
 ! D98   D(24,7,8,10)          -60.3799         estimate D2E/DX2                !
 ! D99   D(24,7,8,25)           59.1514         estimate D2E/DX2                !
 ! D100  D(7,8,9,6)             60.3539         estimate D2E/DX2                !
 ! D101  D(7,8,9,26)           -61.7871         estimate D2E/DX2                !
 ! D102  D(7,8,9,27)          -177.6179         estimate D2E/DX2                !
 ! D103  D(10,8,9,6)           -60.1407         estimate D2E/DX2                !
 ! D104  D(10,8,9,26)          177.7183         estimate D2E/DX2                !
 ! D105  D(10,8,9,27)           61.8875         estimate D2E/DX2                !
 ! D106  D(25,8,9,6)          -179.9233         estimate D2E/DX2                !
 ! D107  D(25,8,9,26)           57.9357         estimate D2E/DX2                !
 ! D108  D(25,8,9,27)          -57.8951         estimate D2E/DX2                !
 ! D109  D(7,8,10,4)           -60.7367         estimate D2E/DX2                !
 ! D110  D(7,8,10,28)           60.399          estimate D2E/DX2                !
 ! D111  D(7,8,10,29)          178.2075         estimate D2E/DX2                !
 ! D112  D(9,8,10,4)            59.6992         estimate D2E/DX2                !
 ! D113  D(9,8,10,28)         -179.1651         estimate D2E/DX2                !
 ! D114  D(9,8,10,29)          -61.3566         estimate D2E/DX2                !
 ! D115  D(25,8,10,4)          179.757          estimate D2E/DX2                !
 ! D116  D(25,8,10,28)         -59.1073         estimate D2E/DX2                !
 ! D117  D(25,8,10,29)          58.7012         estimate D2E/DX2                !
 ! D118  D(6,11,12,30)        -179.4368         estimate D2E/DX2                !
 ! D119  D(6,11,12,31)         -60.3615         estimate D2E/DX2                !
 ! D120  D(6,11,12,32)          62.5794         estimate D2E/DX2                !
 ! D121  D(13,11,12,30)         53.7639         estimate D2E/DX2                !
 ! D122  D(13,11,12,31)        172.8392         estimate D2E/DX2                !
 ! D123  D(13,11,12,32)        -64.2199         estimate D2E/DX2                !
 ! D124  D(14,11,12,30)        -55.9375         estimate D2E/DX2                !
 ! D125  D(14,11,12,31)         63.1378         estimate D2E/DX2                !
 ! D126  D(14,11,12,32)       -173.9213         estimate D2E/DX2                !
 ! D127  D(6,11,13,33)         179.4465         estimate D2E/DX2                !
 ! D128  D(6,11,13,34)         -62.6185         estimate D2E/DX2                !
 ! D129  D(6,11,13,35)          60.3198         estimate D2E/DX2                !
 ! D130  D(12,11,13,33)        -53.7352         estimate D2E/DX2                !
 ! D131  D(12,11,13,34)         64.1998         estimate D2E/DX2                !
 ! D132  D(12,11,13,35)       -172.8619         estimate D2E/DX2                !
 ! D133  D(14,11,13,33)         55.977          estimate D2E/DX2                !
 ! D134  D(14,11,13,34)        173.912          estimate D2E/DX2                !
 ! D135  D(14,11,13,35)        -63.1498         estimate D2E/DX2                !
 --------------------------------------------------------------------------------
 Trust Radius=3.00D-01 FncErr=1.00D-07 GrdErr=1.00D-06
 Number of steps in this run=    210 maximum allowed number of steps=    210.
 GradGradGradGradGradGradGradGradGradGradGradGradGradGradGradGradGradGrad

                          Input orientation:                          
 ---------------------------------------------------------------------
 Center     Atomic      Atomic             Coordinates (Angstroms)
 Number     Number       Type             X           Y           Z
 ---------------------------------------------------------------------
      1          6           0       -1.692336   -1.867784   -1.079802
      2          6           0       -2.017336   -0.371784   -0.955802
      3          6           0       -1.296336    0.214216    0.270198
      4          6           0       -0.173336   -2.025784   -1.234802
      5          6           0        0.536664   -1.429784   -0.005802
      6          6           0        0.249664    0.083216    0.190198
      7          6           0       -1.562336    0.364216   -2.223802
      8          6           0       -0.043336    0.190216   -2.370802
      9          6           0        0.665664    0.774216   -1.135802
     10          6           0        0.296664   -1.300784   -2.503802
     11          6           0        1.000664    0.687216    1.455198
     12          6           0        1.838664   -0.340784    2.253198
     13          6           0        1.966664    1.853216    1.129198
     14         17           0       -0.151336    1.386216    2.688198
     15          1           0       -2.221336   -2.308784   -1.957802
     16          1           0       -2.050336   -2.417784   -0.176802
     17          1           0       -3.123336   -0.245784   -0.835802
     18          1           0       -1.681336   -0.315784    1.173198
     19          1           0       -1.588336    1.288216    0.350198
     20          1           0        0.074664   -3.112784   -1.319802
     21          1           0        1.629664   -1.601784   -0.133802
     22          1           0        0.202664   -2.007784    0.887198
     23          1           0       -1.824336    1.447216   -2.158802
     24          1           0       -2.088336   -0.041784   -3.119802
     25          1           0        0.299664    0.728216   -3.289802
     26          1           0        0.428664    1.863216   -1.097802
     27          1           0        1.762664    0.669216   -1.298802
     28          1           0       -0.199336   -1.733784   -3.404802
     29          1           0        1.395664   -1.436784   -2.643802
     30          1           0        2.339664    0.121216    3.136198
     31          1           0        1.223664   -1.174784    2.659198
     32          1           0        2.662664   -0.769784    1.640198
     33          1           0        2.464664    2.254216    2.042198
     34          1           0        2.796664    1.529216    0.462198
     35          1           0        1.450664    2.722216    0.662198
 ---------------------------------------------------------------------
                    Distance matrix (angstroms):
                    1          2          3          4          5
     1  C    0.000000
     2  C    1.535909   0.000000
     3  C    2.512775   1.538282   0.000000
     4  C    1.535041   2.492768   2.922970   0.000000
     5  C    2.512720   2.923146   2.477660   1.539402   0.000000
     6  C    3.031611   2.580626   1.553601   2.580201   1.552403
     7  C    2.511466   1.535104   2.512627   2.935906   3.541717
     8  C    2.936196   2.492939   2.923263   2.493602   2.924726
     9  C    3.541675   2.923047   2.477878   2.924675   2.480153
    10  C    2.511053   2.934952   3.539484   1.535215   2.512816
    11  C    4.495164   4.005337   2.627577   3.996842   2.613715
    12  C    5.090047   5.016710   3.750805   4.365033   2.825634
    13  C    5.666904   5.016982   3.751183   5.021428   3.756490
    14  Cl   5.211624   4.455475   2.920845   5.199246   3.957377
    15  H    1.115888   2.190340   3.490722   2.190233   3.491348
    16  H    1.116276   2.189531   2.774121   2.190013   2.774519
    17  H    2.176736   1.119604   2.184666   3.468444   3.935271
    18  H    2.735842   2.156078   1.115587   3.316116   2.747828
    19  H    3.466418   2.155290   1.115858   3.936629   3.468412
    20  H    2.174837   3.467281   3.934040   1.118167   2.184612
    21  H    3.464297   3.935631   3.467355   2.154713   1.113830
    22  H    2.734907   3.316858   2.750450   2.155130   1.114939
    23  H    3.488680   2.189342   2.774728   3.954909   4.299635
    24  H    2.766350   2.190168   3.490688   3.340166   4.302809
    25  H    3.948592   3.467859   3.935100   3.468612   3.936723
    26  H    4.291774   3.316369   2.750682   3.937702   3.471020
    27  H    4.292011   3.935699   3.467891   3.318918   2.753312
    28  H    2.766339   3.340325   4.301597   2.189712   3.491033
    29  H    3.488209   3.953750   4.296983   2.189512   2.774342
    30  H    6.163424   5.997580   4.630670   5.480002   3.940631
    31  H    4.792017   4.921089   3.739925   4.223629   2.763914
    32  H    5.250717   5.366565   4.303352   4.229191   2.768536
    33  H    6.634638   5.997683   4.631059   6.001348   4.635013
    34  H    5.836822   5.366481   4.303340   4.933430   3.752640
    35  H    5.829332   4.921157   3.740286   5.364652   4.303571
                    6          7          8          9         10
     6  C    0.000000
     7  C    3.031452   0.000000
     8  C    2.579926   1.535984   0.000000
     9  C    1.552035   2.513131   1.539143   0.000000
    10  C    3.029076   2.511276   1.535047   2.512610   0.000000
    11  C    1.590296   4.495369   3.996901   2.614015   4.485693
    12  C    2.638307   5.666335   5.020484   3.755592   5.091995
    13  C    2.638695   5.090537   4.365280   2.826140   5.092672
    14  Cl   2.845806   5.211828   5.199573   3.957905   5.863236
    15  H    4.054801   2.765857   3.340547   4.302946   2.766677
    16  H    3.417556   3.488248   3.955167   4.299442   3.488700
    17  H    3.540910   2.176089   3.468821   3.935343   3.948626
    18  H    2.203236   3.466435   3.936879   3.468139   4.289876
    19  H    2.203604   2.734946   3.316093   2.748255   4.289693
    20  H    3.539088   3.947976   3.468189   3.935976   2.175887
    21  H    2.201954   4.292100   3.318789   2.752940   2.735761
    22  H    2.204609   4.291845   3.937802   3.470796   3.465194
    23  H    3.417568   1.116135   2.190195   2.774808   3.488434
    24  H    4.054377   1.115495   2.190171   3.490935   2.766363
    25  H    3.539622   2.176211   1.118773   2.185358   2.175924
    26  H    2.204401   2.734768   2.154586   1.115139   3.464846
    27  H    2.202200   3.464719   2.154127   1.114003   2.735339
    28  H    4.053038   2.766611   2.189810   3.490938   1.115933
    29  H    3.413982   3.488519   2.189150   2.774074   1.116198
    30  H    3.612265   6.634324   6.000875   4.634508   6.164863
    31  H    2.937210   5.828723   5.363713   4.302556   5.247073
    32  H    2.941543   5.836701   4.932764   3.752082   4.801318
    33  H    3.612391   6.163407   5.479483   3.940366   6.164768
    34  H    2.941447   5.250972   4.228996   2.768536   4.801672
    35  H    2.937602   4.792424   4.223997   2.764730   5.247838
                   11         12         13         14         15
    11  C    0.000000
    12  C    1.547848   0.000000
    13  C    1.548867   2.468481   0.000000
    14  Cl   1.826470   2.670553   2.671047   0.000000
    15  H    5.568291   6.171640   6.662669   6.286751   0.000000
    16  H    4.648984   5.034198   6.006943   5.126874   1.792507
    17  H    4.809007   5.845716   5.845950   4.890274   2.515642
    18  H    2.877266   3.682041   4.244338   2.744618   3.750575
    19  H    2.878393   4.244924   3.682946   2.746055   4.320412
    20  H    4.795634   4.854071   5.851361   6.029605   2.514970
    21  H    2.856586   2.707687   3.694017   4.479262   4.319378
    22  H    2.867482   2.705798   4.251774   3.858517   3.749720
    23  H    4.649647   6.006684   5.034626   5.127968   3.782267
    24  H    5.568122   6.661821   6.171552   6.286813   2.550926
    25  H    4.796677   5.851165   4.855108   6.030991   4.165697
    26  H    2.868444   4.251461   2.706487   3.859757   5.016740
    27  H    2.857531   3.693586   2.708995   4.480363   5.017472
    28  H    5.560651   6.173075   6.173757   6.845535   2.552042
    29  H    4.633487   5.037666   5.038419   6.228384   3.783341
    30  H    2.222395   1.115408   2.677126   2.829489   7.256477
    31  H    2.228540   1.112932   3.473001   2.906921   5.871173
    32  H    2.217954   1.113008   2.761461   3.696652   6.258401
    33  H    2.223365   2.677764   1.114618   2.830936   7.666783
    34  H    2.218249   2.760859   1.112998   3.696786   6.765129
    35  H    2.229927   3.473297   1.113331   2.907916   6.757140
                   16         17         18         19         20
    16  H    0.000000
    17  H    2.510616   0.000000
    18  H    2.525285   2.473933   0.000000
    19  H    3.771685   2.473050   1.805213   0.000000
    20  H    2.510996   4.322169   4.137849   4.992321   0.000000
    21  H    3.769629   4.992249   3.784807   4.352227   2.471385
    22  H    2.525115   4.139523   2.548356   3.789415   2.471489
    23  H    4.349440   2.510773   3.772379   2.525086   5.010361
    24  H    3.782601   2.515849   4.320946   3.749640   4.165286
    25  H    5.011046   4.322930   4.993262   4.138568   4.322593
    26  H    5.031962   4.139230   3.789140   2.548650   4.993513
    27  H    5.032636   4.992453   4.352257   3.785705   4.141655
    28  H    3.783390   4.166975   5.016486   5.016157   2.514745
    29  H    4.350100   5.010859   5.029320   5.029306   2.511373
    30  H    6.057606   6.764306   4.495862   4.955085   5.953563
    31  H    4.506331   5.654598   3.374182   4.393768   4.572580
    32  H    5.313169   6.315295   4.392555   4.895964   4.577007
    33  H    6.865622   6.764512   4.954733   4.496980   6.769035
    34  H    6.283354   6.315206   4.895103   4.393046   5.668595
    35  H    6.275390   5.654600   4.393175   3.374792   6.314184
                   21         22         23         24         25
    21  H    0.000000
    22  H    1.801001   0.000000
    23  H    5.032608   5.032283   0.000000
    24  H    5.017302   5.016960   1.791742   0.000000
    25  H    4.142238   4.994240   2.511473   2.514825   0.000000
    26  H    3.791823   4.356138   2.524834   3.748706   2.471787
    27  H    2.555847   3.791903   3.769808   4.318769   2.471423
    28  H    3.749947   4.319484   3.783107   2.551942   2.514691
    29  H    2.526278   3.770577   4.349837   3.782969   2.511127
    30  H    3.763739   3.762634   6.865435   7.666243   6.769308
    31  H    2.854473   2.208238   6.275214   6.756469   6.313936
    32  H    2.215037   2.855040   6.283364   6.764583   5.668569
    33  H    4.505656   4.961382   6.057654   7.255871   5.953665
    34  H    3.394152   4.406794   5.313192   6.257954   4.577566
    35  H    4.400299   4.897043   4.506583   5.870923   4.573745
                   26         27         28         29         30
    26  H    0.000000
    27  H    1.801553   0.000000
    28  H    4.319148   3.749545   0.000000
    29  H    3.770306   2.525658   1.792025   0.000000
    30  H    4.961173   4.505825   7.257563   6.060272   0.000000
    31  H    4.896582   4.399616   6.253759   5.312253   1.775557
    32  H    4.406823   3.393883   5.879827   4.516950   1.770939
    33  H    3.762682   3.763949   7.257468   6.060102   2.400448
    34  H    2.855272   2.215824   5.880210   4.517432   3.056401
    35  H    2.209064   2.856164   6.254512   5.313186   3.698134
                   31         32         33         34         35
    31  H    0.000000
    32  H    1.809173   0.000000
    33  H    3.698488   3.057022   0.000000
    34  H    3.822663   2.586705   1.769816   0.000000
    35  H    4.384763   3.823544   1.775280   1.809686   0.000000
 Stoichiometry    C13H21Cl
 Framework group  C1[X(C13H21Cl)]
 Deg. of freedom    99
 Full point group                 C1      NOp   1
 Largest Abelian subgroup         C1      NOp   1
 Largest concise Abelian subgroup C1      NOp   1
                         Standard orientation:                         
 ---------------------------------------------------------------------
 Center     Atomic      Atomic             Coordinates (Angstroms)
 Number     Number       Type             X           Y           Z
 ---------------------------------------------------------------------
      1          6           0       -2.280382    0.862090    1.255090
      2          6           0       -1.683339    1.512545   -0.001678
      3          6           0       -0.155647    1.332350   -0.001254
      4          6           0       -1.924609   -0.631134    1.247452
      5          6           0       -0.394304   -0.798111    1.240914
      6          6           0        0.283773   -0.157813   -0.000127
      7          6           0       -2.280484    0.860089   -1.256375
      8          6           0       -1.924541   -0.634048   -1.246149
      9          6           0       -0.394471   -0.800780   -1.239237
     10          6           0       -2.521650   -1.300135    0.001312
     11          6           0        1.862359   -0.350449    0.000520
     12          6           0        2.414766   -1.103552    1.234827
     13          6           0        2.415181   -1.105560   -1.233653
     14         17           0        2.763677    1.238141   -0.000725
     15          1           0       -3.387735    0.998485    1.274397
     16          1           0       -1.877993    1.352983    2.173338
     17          1           0       -1.931922    2.604203   -0.002606
     18          1           0        0.245129    1.852524    0.900595
     19          1           0        0.244167    1.851216   -0.904618
     20          1           0       -2.349857   -1.113254    2.162341
     21          1           0       -0.175916   -1.889631    1.279754
     22          1           0       -0.003034   -0.338381    2.178275
     23          1           0       -1.878698    1.348386   -2.176099
     24          1           0       -3.387541    0.995540   -1.276527
     25          1           0       -2.350669   -1.118290   -2.160249
     26          1           0       -0.003803   -0.342635   -2.177861
     27          1           0       -0.176603   -1.892649   -1.276092
     28          1           0       -3.633056   -1.199717    0.001353
     29          1           0       -2.296444   -2.393377    0.002381
     30          1           0        3.524742   -1.208022    1.200558
     31          1           0        2.191668   -0.582092    2.192388
     32          1           0        2.024401   -2.144116    1.295054
     33          1           0        3.524300   -1.210870   -1.199889
     34          1           0        2.024616   -2.146165   -1.291650
     35          1           0        2.191823   -0.585491   -2.192373
 ---------------------------------------------------------------------
 Rotational constants (GHZ):      1.1328112      0.4652557      0.4473361
 Standard basis: 6-31+G(d,p) (6D, 7F)
 There are   375 symmetry adapted basis functions of A   symmetry.
 Integral buffers will be    131072 words long.
 Raffenetti 2 integral format.
 Two-electron integral symmetry is turned on.
   375 basis functions,   619 primitive gaussians,   375 cartesian basis functions
    58 alpha electrons       58 beta electrons
       nuclear repulsion energy      1133.3666666019 Hartrees.
 NAtoms=   35 NActive=   35 NUniq=   35 SFac= 1.00D+00 NAtFMM=   60 NAOKFM=F Big=F
 One-electron integrals computed using PRISM.
 NBasis=   375 RedAO= T  NBF=   375
 NBsUse=   375 1.00D-06 NBFU=   375
 Harris functional with IExCor=  402 diagonalized for initial guess.
 ExpMin= 4.38D-02 ExpMax= 2.52D+04 ExpMxC= 3.78D+03 IAcc=2 IRadAn=         4 AccDes= 0.00D+00
 HarFok:  IExCor=  402 AccDes= 0.00D+00 IRadAn=         4 IDoV= 1
 ScaDFX=  1.000000  1.000000  1.000000  1.000000
 FoFCou: FMM=F IPFlag=           0 FMFlag=      100000 FMFlg1=           0
         NFxFlg=           0 DoJE=T BraDBF=F KetDBF=T FulRan=T
         Omega=  0.000000  0.000000  1.000000  0.000000  0.000000 ICntrl=     500 IOpCl=  0
         NMat0=    1 NMatS0=    1 NMatT0=    0 NMatD0=    1 NMtDS0=    0 NMtDT0=    0
         I1Cent=           4 NGrid=           0.
 Petite list used in FoFCou.
 Initial guess orbital symmetries:
       Occupied  (A) (A) (A) (A) (A) (A) (A) (A) (A) (A) (A) (A)
                 (A) (A) (A) (A) (A) (A) (A) (A) (A) (A) (A) (A)
                 (A) (A) (A) (A) (A) (A) (A) (A) (A) (A) (A) (A)
                 (A) (A) (A) (A) (A) (A) (A) (A) (A) (A) (A) (A)
                 (A) (A) (A) (A) (A) (A) (A) (A) (A) (A)
       Virtual   (A) (A) (A) (A) (A) (A) (A) (A) (A) (A) (A) (A)
                 (A) (A) (A) (A) (A) (A) (A) (A) (A) (A) (A) (A)
                 (A) (A) (A) (A) (A) (A) (A) (A) (A) (A) (A) (A)
                 (A) (A) (A) (A) (A) (A) (A) (A) (A) (A) (A) (A)
                 (A) (A) (A) (A) (A) (A) (A) (A) (A) (A) (A) (A)
                 (A) (A) (A) (A) (A) (A) (A) (A) (A) (A) (A) (A)
                 (A) (A) (A) (A) (A) (A) (A) (A) (A) (A) (A) (A)
                 (A) (A) (A) (A) (A) (A) (A) (A) (A) (A) (A) (A)
                 (A) (A) (A) (A) (A) (A) (A) (A) (A) (A) (A) (A)
                 (A) (A) (A) (A) (A) (A) (A) (A) (A) (A) (A) (A)
                 (A) (A) (A) (A) (A) (A) (A) (A) (A) (A) (A) (A)
                 (A) (A) (A) (A) (A) (A) (A) (A) (A) (A) (A) (A)
                 (A) (A) (A) (A) (A) (A) (A) (A) (A) (A) (A) (A)
                 (A) (A) (A) (A) (A) (A) (A) (A) (A) (A) (A) (A)
                 (A) (A) (A) (A) (A) (A) (A) (A) (A) (A) (A) (A)
                 (A) (A) (A) (A) (A) (A) (A) (A) (A) (A) (A) (A)
                 (A) (A) (A) (A) (A) (A) (A) (A) (A) (A) (A) (A)
                 (A) (A) (A) (A) (A) (A) (A) (A) (A) (A) (A) (A)
                 (A) (A) (A) (A) (A) (A) (A) (A) (A) (A) (A) (A)
                 (A) (A) (A) (A) (A) (A) (A) (A) (A) (A) (A) (A)
                 (A) (A) (A) (A) (A) (A) (A) (A) (A) (A) (A) (A)
                 (A) (A) (A) (A) (A) (A) (A) (A) (A) (A) (A) (A)
                 (A) (A) (A) (A) (A) (A) (A) (A) (A) (A) (A) (A)
                 (A) (A) (A) (A) (A) (A) (A) (A) (A) (A) (A) (A)
                 (A) (A) (A) (A) (A) (A) (A) (A) (A) (A) (A) (A)
                 (A) (A) (A) (A) (A) (A) (A) (A) (A) (A) (A) (A)
                 (A) (A) (A) (A) (A)
 The electronic state of the initial guess is 1-A.
 Requested convergence on RMS density matrix=1.00D-08 within 128 cycles.
 Requested convergence on MAX density matrix=1.00D-06.
 Requested convergence on             energy=1.00D-06.
 No special actions if energy rises.
 SCF Done:  E(RB3LYP) =  -968.275878914     A.U. after   14 cycles
             Convg  =    0.1790D-08             -V/T =  2.0071

 **********************************************************************

            Population analysis using the SCF density.

 **********************************************************************

 Orbital symmetries:
       Occupied  (A) (A) (A) (A) (A) (A) (A) (A) (A) (A) (A) (A)
                 (A) (A) (A) (A) (A) (A) (A) (A) (A) (A) (A) (A)
                 (A) (A) (A) (A) (A) (A) (A) (A) (A) (A) (A) (A)
                 (A) (A) (A) (A) (A) (A) (A) (A) (A) (A) (A) (A)
                 (A) (A) (A) (A) (A) (A) (A) (A) (A) (A)
       Virtual   (A) (A) (A) (A) (A) (A) (A) (A) (A) (A) (A) (A)
                 (A) (A) (A) (A) (A) (A) (A) (A) (A) (A) (A) (A)
                 (A) (A) (A) (A) (A) (A) (A) (A) (A) (A) (A) (A)
                 (A) (A) (A) (A) (A) (A) (A) (A) (A) (A) (A) (A)
                 (A) (A) (A) (A) (A) (A) (A) (A) (A) (A) (A) (A)
                 (A) (A) (A) (A) (A) (A) (A) (A) (A) (A) (A) (A)
                 (A) (A) (A) (A) (A) (A) (A) (A) (A) (A) (A) (A)
                 (A) (A) (A) (A) (A) (A) (A) (A) (A) (A) (A) (A)
                 (A) (A) (A) (A) (A) (A) (A) (A) (A) (A) (A) (A)
                 (A) (A) (A) (A) (A) (A) (A) (A) (A) (A) (A) (A)
                 (A) (A) (A) (A) (A) (A) (A) (A) (A) (A) (A) (A)
                 (A) (A) (A) (A) (A) (A) (A) (A) (A) (A) (A) (A)
                 (A) (A) (A) (A) (A) (A) (A) (A) (A) (A) (A) (A)
                 (A) (A) (A) (A) (A) (A) (A) (A) (A) (A) (A) (A)
                 (A) (A) (A) (A) (A) (A) (A) (A) (A) (A) (A) (A)
                 (A) (A) (A) (A) (A) (A) (A) (A) (A) (A) (A) (A)
                 (A) (A) (A) (A) (A) (A) (A) (A) (A) (A) (A) (A)
                 (A) (A) (A) (A) (A) (A) (A) (A) (A) (A) (A) (A)
                 (A) (A) (A) (A) (A) (A) (A) (A) (A) (A) (A) (A)
                 (A) (A) (A) (A) (A) (A) (A) (A) (A) (A) (A) (A)
                 (A) (A) (A) (A) (A) (A) (A) (A) (A) (A) (A) (A)
                 (A) (A) (A) (A) (A) (A) (A) (A) (A) (A) (A) (A)
                 (A) (A) (A) (A) (A) (A) (A) (A) (A) (A) (A) (A)
                 (A) (A) (A) (A) (A) (A) (A) (A) (A) (A) (A) (A)
                 (A) (A) (A) (A) (A) (A) (A) (A) (A) (A) (A) (A)
                 (A) (A) (A) (A) (A) (A) (A) (A) (A) (A) (A) (A)
                 (A) (A) (A) (A) (A)
 The electronic state is 1-A.
 Alpha  occ. eigenvalues -- -101.52560 -10.26534 -10.21378 -10.19342 -10.19340
 Alpha  occ. eigenvalues --  -10.19159 -10.19152 -10.18852 -10.18809 -10.18807
 Alpha  occ. eigenvalues --  -10.18445 -10.18280 -10.18276 -10.18217  -9.44139
 Alpha  occ. eigenvalues --   -7.20505  -7.19579  -7.19569  -0.88489  -0.85721
 Alpha  occ. eigenvalues --   -0.77906  -0.77208  -0.76946  -0.74148  -0.69606
 Alpha  occ. eigenvalues --   -0.66553  -0.66352  -0.61373  -0.58262  -0.58211
 Alpha  occ. eigenvalues --   -0.54216  -0.52247  -0.46462  -0.46152  -0.45457
 Alpha  occ. eigenvalues --   -0.44884  -0.44514  -0.43753  -0.42686  -0.41017
 Alpha  occ. eigenvalues --   -0.40810  -0.40207  -0.39153  -0.39137  -0.38170
 Alpha  occ. eigenvalues --   -0.37256  -0.36065  -0.35887  -0.33093  -0.32897
 Alpha  occ. eigenvalues --   -0.32465  -0.32352  -0.32341  -0.29748  -0.29128
 Alpha  occ. eigenvalues --   -0.28610  -0.27934  -0.27600
 Alpha virt. eigenvalues --   -0.01157   0.00778   0.01247   0.01291   0.01696
 Alpha virt. eigenvalues --    0.02852   0.02894   0.03340   0.03507   0.03996
 Alpha virt. eigenvalues --    0.05135   0.05683   0.05831   0.06453   0.06788
 Alpha virt. eigenvalues --    0.07749   0.08396   0.08886   0.09101   0.09462
 Alpha virt. eigenvalues --    0.09874   0.10269   0.10539   0.11492   0.12043
 Alpha virt. eigenvalues --    0.12362   0.12397   0.12932   0.12972   0.13873
 Alpha virt. eigenvalues --    0.14387   0.14971   0.15456   0.16014   0.16303
 Alpha virt. eigenvalues --    0.16687   0.17023   0.17243   0.17958   0.17990
 Alpha virt. eigenvalues --    0.18324   0.18658   0.18747   0.19362   0.19522
 Alpha virt. eigenvalues --    0.19545   0.20414   0.20441   0.20534   0.20679
 Alpha virt. eigenvalues --    0.20987   0.21044   0.21583   0.22218   0.22308
 Alpha virt. eigenvalues --    0.22557   0.23241   0.23722   0.24244   0.24825
 Alpha virt. eigenvalues --    0.24922   0.25068   0.25525   0.26629   0.27368
 Alpha virt. eigenvalues --    0.27676   0.28564   0.28818   0.28863   0.28916
 Alpha virt. eigenvalues --    0.29139   0.29893   0.30348   0.32162   0.33302
 Alpha virt. eigenvalues --    0.33897   0.35139   0.35502   0.35765   0.36114
 Alpha virt. eigenvalues --    0.36400   0.37010   0.37270   0.38481   0.38821
 Alpha virt. eigenvalues --    0.38859   0.39686   0.40155   0.45599   0.45826
 Alpha virt. eigenvalues --    0.46413   0.46994   0.57100   0.60558   0.61883
 Alpha virt. eigenvalues --    0.63084   0.63428   0.63497   0.63969   0.65285
 Alpha virt. eigenvalues --    0.65765   0.66984   0.70706   0.71059   0.71331
 Alpha virt. eigenvalues --    0.72115   0.73063   0.73539   0.74886   0.75400
 Alpha virt. eigenvalues --    0.75430   0.75862   0.77732   0.79905   0.80334
 Alpha virt. eigenvalues --    0.80420   0.81121   0.81792   0.81906   0.82797
 Alpha virt. eigenvalues --    0.83494   0.83951   0.86344   0.86487   0.87367
 Alpha virt. eigenvalues --    0.88667   0.89874   0.92080   0.92357   0.95335
 Alpha virt. eigenvalues --    0.95724   0.95878   0.95992   0.97467   0.98676
 Alpha virt. eigenvalues --    1.00081   1.00753   1.02280   1.02527   1.03339
 Alpha virt. eigenvalues --    1.04413   1.06550   1.06997   1.08979   1.09652
 Alpha virt. eigenvalues --    1.09973   1.10618   1.10819   1.11796   1.12889
 Alpha virt. eigenvalues --    1.13525   1.14254   1.15144   1.16074   1.16521
 Alpha virt. eigenvalues --    1.18281   1.18307   1.18982   1.20931   1.21726
 Alpha virt. eigenvalues --    1.24200   1.25041   1.26510   1.29761   1.34860
 Alpha virt. eigenvalues --    1.37556   1.42393   1.43576   1.43891   1.46417
 Alpha virt. eigenvalues --    1.48192   1.50561   1.51082   1.52452   1.52557
 Alpha virt. eigenvalues --    1.56626   1.62496   1.65025   1.65364   1.68580
 Alpha virt. eigenvalues --    1.69452   1.76037   1.77256   1.79334   1.79384
 Alpha virt. eigenvalues --    1.80362   1.81358   1.82454   1.83747   1.84636
 Alpha virt. eigenvalues --    1.86594   1.87215   1.90101   1.90532   1.91328
 Alpha virt. eigenvalues --    1.93628   1.95206   1.96908   1.97533   1.97904
 Alpha virt. eigenvalues --    1.98517   2.00546   2.00793   2.01574   2.02762
 Alpha virt. eigenvalues --    2.03889   2.05194   2.06419   2.06988   2.10065
 Alpha virt. eigenvalues --    2.10228   2.11011   2.12338   2.14427   2.15362
 Alpha virt. eigenvalues --    2.16437   2.16718   2.17188   2.17612   2.18413
 Alpha virt. eigenvalues --    2.18799   2.20326   2.28732   2.29078   2.29347
 Alpha virt. eigenvalues --    2.32363   2.33486   2.33919   2.36776   2.37282
 Alpha virt. eigenvalues --    2.37410   2.37658   2.39082   2.41728   2.43321
 Alpha virt. eigenvalues --    2.45446   2.45836   2.48316   2.48646   2.50359
 Alpha virt. eigenvalues --    2.51176   2.51769   2.52016   2.53369   2.53414
 Alpha virt. eigenvalues --    2.55865   2.59895   2.62840   2.64368   2.64930
 Alpha virt. eigenvalues --    2.65469   2.66278   2.66842   2.70573   2.71317
 Alpha virt. eigenvalues --    2.72623   2.73800   2.74271   2.76115   2.76902
 Alpha virt. eigenvalues --    2.77179   2.78172   2.79951   2.80421   2.80956
 Alpha virt. eigenvalues --    2.81763   2.82059   2.83167   2.86610   2.86852
 Alpha virt. eigenvalues --    2.88398   2.88691   2.90312   2.92328   2.94025
 Alpha virt. eigenvalues --    2.96015   2.96785   2.98415   2.98766   3.00070
 Alpha virt. eigenvalues --    3.00819   3.04613   3.22206   3.23476   3.30235
 Alpha virt. eigenvalues --    3.30569   3.30761   3.36511   3.37551   3.37633
 Alpha virt. eigenvalues --    3.42088   3.43070   3.45296   3.45365   3.47747
 Alpha virt. eigenvalues --    3.48947   3.49179   3.50227   3.50309   3.50430
 Alpha virt. eigenvalues --    3.52219   3.53894   3.54164   4.30265   4.43435
 Alpha virt. eigenvalues --    4.48768   4.49839   4.52017   4.54816   4.62584
 Alpha virt. eigenvalues --    4.70118   4.83806   4.85314   4.86001   4.99856
 Alpha virt. eigenvalues --    5.01382   5.06298
          Condensed to atoms (all electrons):
              1          2          3          4          5          6
     1  C    5.850078  -0.162080   0.092698  -0.020492  -0.008334  -0.152425
     2  C   -0.162080   8.610654  -2.375196  -1.540614   1.181889   0.272067
     3  C    0.092698  -2.375196  11.303121   1.160774  -1.668624  -2.508202
     4  C   -0.020492  -1.540614   1.160774   8.681737  -2.292455  -0.585296
     5  C   -0.008334   1.181889  -1.668624  -2.292455  11.211864  -0.945900
     6  C   -0.152425   0.272067  -2.508202  -0.585296  -0.945900  24.246234
     7  C   -0.057707  -0.165033   0.094191   0.607014  -0.850508  -0.153208
     8  C    0.606593  -1.539040   1.158984  -1.508056   1.034408  -0.582788
     9  C   -0.851423   1.181119  -1.669137   1.035791  -1.540776  -0.950836
    10  C   -0.094392   0.617258  -0.906785  -0.104887   0.074769   0.051905
    11  C    0.529333  -0.250571   1.218051   0.518105  -0.279322 -17.984311
    12  C   -0.059431   0.000771   0.068969  -0.059721  -0.793554   1.793655
    13  C   -0.012413   0.000613   0.069048  -0.009806   0.414811   1.793761
    14  Cl  -0.027566   0.003195  -0.295795  -0.025268   0.082261   1.352747
    15  H    0.380920  -0.033699   0.043613  -0.037509   0.049660  -0.043831
    16  H    0.408038  -0.022358  -0.037091  -0.019709  -0.044119   0.005639
    17  H   -0.003763   0.119191   0.087993   0.064856  -0.018414   0.021354
    18  H   -0.038957   0.007340   0.402445  -0.007130  -0.068335   0.055069
    19  H    0.017554   0.007772   0.401880  -0.017182   0.043284   0.054978
    20  H   -0.012483   0.064289  -0.018129   0.111877   0.099258   0.034728
    21  H    0.019793  -0.019830   0.043390   0.020493   0.427842  -0.009893
    22  H   -0.035611   0.008000  -0.070281   0.032684   0.443578  -0.074175
    23  H    0.014148  -0.022082  -0.037248  -0.027472   0.024372   0.005758
    24  H   -0.030307  -0.033493   0.043641   0.008611   0.011921  -0.043940
    25  H   -0.021719   0.064072  -0.017992   0.064943  -0.017031   0.034648
    26  H    0.004498   0.008109  -0.070272  -0.019824   0.033000  -0.074341
    27  H    0.003762  -0.019895   0.043390   0.009821  -0.079834  -0.009762
    28  H   -0.028886   0.003493   0.014030  -0.034972   0.046319  -0.040298
    29  H    0.013041  -0.027209   0.024169  -0.026772  -0.031618   0.001268
    30  H   -0.000389   0.001128  -0.002403  -0.005079  -0.027803   0.071958
    31  H   -0.001681  -0.001683  -0.024258   0.010464  -0.009600   0.119914
    32  H   -0.000320  -0.001807   0.003516   0.004420  -0.022283   0.108556
    33  H   -0.000275   0.001125  -0.002375  -0.000008   0.007267   0.071558
    34  H    0.000170  -0.001797   0.003497  -0.001839  -0.013482   0.109147
    35  H   -0.000204  -0.001686  -0.024220  -0.002047   0.004490   0.120615
              7          8          9         10         11         12
     1  C   -0.057707   0.606593  -0.851423  -0.094392   0.529333  -0.059431
     2  C   -0.165033  -1.539040   1.181119   0.617258  -0.250571   0.000771
     3  C    0.094191   1.158984  -1.669137  -0.906785   1.218051   0.068969
     4  C    0.607014  -1.508056   1.035791  -0.104887   0.518105  -0.059721
     5  C   -0.850508   1.034408  -1.540776   0.074769  -0.279322  -0.793554
     6  C   -0.153208  -0.582788  -0.950836   0.051905 -17.984311   1.793655
     7  C    5.850621  -0.018374  -0.008221  -0.095585   0.528549  -0.012257
     8  C   -0.018374   8.681524  -2.297854  -0.102730   0.520245  -0.010310
     9  C   -0.008221  -2.297854  11.227777   0.073673  -0.287995   0.417633
    10  C   -0.095585  -0.102730   0.073673   5.869238   0.339036  -0.039779
    11  C    0.528549   0.520245  -0.287995   0.339036  27.937610  -2.187313
    12  C   -0.012257  -0.010310   0.417633  -0.039779  -2.187313   6.597940
    13  C   -0.059313  -0.059989  -0.791657  -0.039855  -2.181361  -0.521838
    14  Cl  -0.027562  -0.025301   0.081663   0.001799  -1.511841  -0.029867
    15  H   -0.030199   0.008501   0.011965  -0.031526  -0.006387   0.000031
    16  H    0.014152  -0.027403   0.024375   0.013999  -0.002113   0.000957
    17  H   -0.003618   0.064918  -0.018487  -0.021867  -0.012697  -0.000365
    18  H    0.017521  -0.017146   0.043319   0.005551  -0.101606   0.010715
    19  H   -0.039051  -0.007205  -0.068317   0.005592  -0.101236  -0.004552
    20  H   -0.021769   0.064810  -0.016976  -0.011729  -0.018825   0.005567
    21  H    0.003732   0.009860  -0.080185  -0.041439  -0.056895  -0.023256
    22  H    0.004507  -0.019790   0.033111   0.017677  -0.018677  -0.019442
    23  H    0.407936  -0.019859  -0.044185   0.014117  -0.002063  -0.000742
    24  H    0.380928  -0.037661   0.049793  -0.031529  -0.006416   0.000412
    25  H   -0.012509   0.112036   0.099443  -0.011997  -0.018773  -0.000719
    26  H   -0.035609   0.032294   0.444123   0.017770  -0.018851  -0.001061
    27  H    0.019859   0.020543   0.427343  -0.041489  -0.056951   0.010832
    28  H   -0.028902  -0.034945   0.046286   0.379966  -0.009800   0.000266
    29  H    0.013086  -0.026895  -0.031600   0.408722  -0.004296   0.000175
    30  H   -0.000275  -0.000009   0.007291   0.000160  -0.173026   0.505493
    31  H   -0.000203  -0.002058   0.004568   0.000113  -0.224886   0.475219
    32  H    0.000170  -0.001837  -0.013529  -0.001694  -0.174788   0.421392
    33  H   -0.000387  -0.005099  -0.027797   0.000161  -0.172025  -0.029087
    34  H   -0.000333   0.004416  -0.022384  -0.001701  -0.175623   0.003904
    35  H   -0.001673   0.010471  -0.009724   0.000106  -0.225466   0.003627
             13         14         15         16         17         18
     1  C   -0.012413  -0.027566   0.380920   0.408038  -0.003763  -0.038957
     2  C    0.000613   0.003195  -0.033699  -0.022358   0.119191   0.007340
     3  C    0.069048  -0.295795   0.043613  -0.037091   0.087993   0.402445
     4  C   -0.009806  -0.025268  -0.037509  -0.019709   0.064856  -0.007130
     5  C    0.414811   0.082261   0.049660  -0.044119  -0.018414  -0.068335
     6  C    1.793761   1.352747  -0.043831   0.005639   0.021354   0.055069
     7  C   -0.059313  -0.027562  -0.030199   0.014152  -0.003618   0.017521
     8  C   -0.059989  -0.025301   0.008501  -0.027403   0.064918  -0.017146
     9  C   -0.791657   0.081663   0.011965   0.024375  -0.018487   0.043319
    10  C   -0.039855   0.001799  -0.031526   0.013999  -0.021867   0.005551
    11  C   -2.181361  -1.511841  -0.006387  -0.002113  -0.012697  -0.101606
    12  C   -0.521838  -0.029867   0.000031   0.000957  -0.000365   0.010715
    13  C    6.591785  -0.028616   0.000410  -0.000738  -0.000360  -0.004514
    14  Cl  -0.028616  17.432799  -0.000082   0.000180   0.001949  -0.000394
    15  H    0.000410  -0.000082   0.590077  -0.030177  -0.003704   0.000104
    16  H   -0.000738   0.000180  -0.030177   0.587445  -0.004472   0.003205
    17  H   -0.000360   0.001949  -0.003704  -0.004472   0.626560  -0.005054
    18  H   -0.004514  -0.000394   0.000104   0.003205  -0.005054   0.562869
    19  H    0.010665  -0.000395  -0.000142   0.000071  -0.005069  -0.026739
    20  H   -0.000717   0.000050  -0.003740  -0.004444  -0.000167  -0.000049
    21  H    0.010884  -0.001234  -0.000149   0.000070   0.000018   0.000053
    22  H   -0.001078   0.005757   0.000112   0.003458  -0.000053   0.002679
    23  H    0.000948   0.000183   0.000081  -0.000138  -0.004478   0.000071
    24  H    0.000033  -0.000081   0.003121   0.000082  -0.003708  -0.000141
    25  H    0.005551   0.000051  -0.000051   0.000019  -0.000166   0.000017
    26  H   -0.019385   0.005738  -0.000002  -0.000004  -0.000053   0.000074
    27  H   -0.023140  -0.001244  -0.000002  -0.000003   0.000018  -0.000142
    28  H    0.000267   0.000106   0.003059   0.000077  -0.000050  -0.000002
    29  H    0.000180  -0.000069   0.000077  -0.000139   0.000019  -0.000003
    30  H   -0.029062   0.002314   0.000000   0.000000   0.000000  -0.000019
    31  H    0.003600   0.001339   0.000000  -0.000003   0.000000   0.000085
    32  H    0.003883   0.018944   0.000000   0.000000   0.000000   0.000006
    33  H    0.505061   0.002316   0.000000   0.000000   0.000000  -0.000001
    34  H    0.421645   0.018972   0.000000   0.000000   0.000000  -0.000003
    35  H    0.475153   0.001451   0.000000   0.000000   0.000000   0.000008
             19         20         21         22         23         24
     1  C    0.017554  -0.012483   0.019793  -0.035611   0.014148  -0.030307
     2  C    0.007772   0.064289  -0.019830   0.008000  -0.022082  -0.033493
     3  C    0.401880  -0.018129   0.043390  -0.070281  -0.037248   0.043641
     4  C   -0.017182   0.111877   0.020493   0.032684  -0.027472   0.008611
     5  C    0.043284   0.099258   0.427842   0.443578   0.024372   0.011921
     6  C    0.054978   0.034728  -0.009893  -0.074175   0.005758  -0.043940
     7  C   -0.039051  -0.021769   0.003732   0.004507   0.407936   0.380928
     8  C   -0.007205   0.064810   0.009860  -0.019790  -0.019859  -0.037661
     9  C   -0.068317  -0.016976  -0.080185   0.033111  -0.044185   0.049793
    10  C    0.005592  -0.011729  -0.041439   0.017677   0.014117  -0.031529
    11  C   -0.101236  -0.018825  -0.056895  -0.018677  -0.002063  -0.006416
    12  C   -0.004552   0.005567  -0.023256  -0.019442  -0.000742   0.000412
    13  C    0.010665  -0.000717   0.010884  -0.001078   0.000948   0.000033
    14  Cl  -0.000395   0.000050  -0.001234   0.005757   0.000183  -0.000081
    15  H   -0.000142  -0.003740  -0.000149   0.000112   0.000081   0.003121
    16  H    0.000071  -0.004444   0.000070   0.003458  -0.000138   0.000082
    17  H   -0.005069  -0.000167   0.000018  -0.000053  -0.004478  -0.003708
    18  H   -0.026739  -0.000049   0.000053   0.002679   0.000071  -0.000141
    19  H    0.563054   0.000017  -0.000143   0.000074   0.003212   0.000103
    20  H    0.000017   0.628408  -0.004998  -0.004982   0.000019  -0.000051
    21  H   -0.000143  -0.004998   0.593300  -0.030815  -0.000003  -0.000002
    22  H    0.000074  -0.004982  -0.030815   0.584802  -0.000004  -0.000002
    23  H    0.003212   0.000019  -0.000003  -0.000004   0.587475  -0.030224
    24  H    0.000103  -0.000051  -0.000002  -0.000002  -0.030224   0.590023
    25  H   -0.000049  -0.000168  -0.000054   0.000018  -0.004433  -0.003728
    26  H    0.002686   0.000018   0.000073  -0.000137   0.003462   0.000113
    27  H    0.000053  -0.000054   0.003008   0.000073   0.000069  -0.000149
    28  H   -0.000002  -0.003739   0.000106  -0.000147   0.000077   0.003057
    29  H   -0.000003  -0.004445   0.003530   0.000067  -0.000139   0.000077
    30  H   -0.000001   0.000000   0.000159   0.000132   0.000000   0.000000
    31  H    0.000008   0.000007  -0.000304  -0.001352   0.000000   0.000000
    32  H   -0.000003   0.000002  -0.001575  -0.000524   0.000000   0.000000
    33  H   -0.000019   0.000000  -0.000014   0.000000   0.000000   0.000000
    34  H    0.000005   0.000000  -0.000032   0.000000   0.000000   0.000000
    35  H    0.000084   0.000000   0.000009  -0.000001  -0.000003   0.000000
             25         26         27         28         29         30
     1  C   -0.021719   0.004498   0.003762  -0.028886   0.013041  -0.000389
     2  C    0.064072   0.008109  -0.019895   0.003493  -0.027209   0.001128
     3  C   -0.017992  -0.070272   0.043390   0.014030   0.024169  -0.002403
     4  C    0.064943  -0.019824   0.009821  -0.034972  -0.026772  -0.005079
     5  C   -0.017031   0.033000  -0.079834   0.046319  -0.031618  -0.027803
     6  C    0.034648  -0.074341  -0.009762  -0.040298   0.001268   0.071958
     7  C   -0.012509  -0.035609   0.019859  -0.028902   0.013086  -0.000275
     8  C    0.112036   0.032294   0.020543  -0.034945  -0.026895  -0.000009
     9  C    0.099443   0.444123   0.427343   0.046286  -0.031600   0.007291
    10  C   -0.011997   0.017770  -0.041489   0.379966   0.408722   0.000160
    11  C   -0.018773  -0.018851  -0.056951  -0.009800  -0.004296  -0.173026
    12  C   -0.000719  -0.001061   0.010832   0.000266   0.000175   0.505493
    13  C    0.005551  -0.019385  -0.023140   0.000267   0.000180  -0.029062
    14  Cl   0.000051   0.005738  -0.001244   0.000106  -0.000069   0.002314
    15  H   -0.000051  -0.000002  -0.000002   0.003059   0.000077   0.000000
    16  H    0.000019  -0.000004  -0.000003   0.000077  -0.000139   0.000000
    17  H   -0.000166  -0.000053   0.000018  -0.000050   0.000019   0.000000
    18  H    0.000017   0.000074  -0.000142  -0.000002  -0.000003  -0.000019
    19  H   -0.000049   0.002686   0.000053  -0.000002  -0.000003  -0.000001
    20  H   -0.000168   0.000018  -0.000054  -0.003739  -0.004445   0.000000
    21  H   -0.000054   0.000073   0.003008   0.000106   0.003530   0.000159
    22  H    0.000018  -0.000137   0.000073  -0.000147   0.000067   0.000132
    23  H   -0.004433   0.003462   0.000069   0.000077  -0.000139   0.000000
    24  H   -0.003728   0.000113  -0.000149   0.003057   0.000077   0.000000
    25  H    0.628374  -0.004985  -0.004999  -0.003740  -0.004441   0.000000
    26  H   -0.004985   0.584828  -0.030767  -0.000147   0.000067   0.000000
    27  H   -0.004999  -0.030767   0.593266   0.000106   0.003539  -0.000014
    28  H   -0.003740  -0.000147   0.000106   0.588054  -0.030155   0.000000
    29  H   -0.004441   0.000067   0.003539  -0.030155   0.591374   0.000000
    30  H    0.000000   0.000000  -0.000014   0.000000   0.000000   0.544384
    31  H    0.000000  -0.000001   0.000009   0.000000   0.000000  -0.027324
    32  H    0.000000   0.000000  -0.000032   0.000000  -0.000003  -0.031194
    33  H    0.000000   0.000132   0.000159   0.000000   0.000000   0.002342
    34  H    0.000002  -0.000526  -0.001576   0.000000  -0.000003   0.000136
    35  H    0.000007  -0.001354  -0.000301   0.000000   0.000000   0.000170
             31         32         33         34         35
     1  C   -0.001681  -0.000320  -0.000275   0.000170  -0.000204
     2  C   -0.001683  -0.001807   0.001125  -0.001797  -0.001686
     3  C   -0.024258   0.003516  -0.002375   0.003497  -0.024220
     4  C    0.010464   0.004420  -0.000008  -0.001839  -0.002047
     5  C   -0.009600  -0.022283   0.007267  -0.013482   0.004490
     6  C    0.119914   0.108556   0.071558   0.109147   0.120615
     7  C   -0.000203   0.000170  -0.000387  -0.000333  -0.001673
     8  C   -0.002058  -0.001837  -0.005099   0.004416   0.010471
     9  C    0.004568  -0.013529  -0.027797  -0.022384  -0.009724
    10  C    0.000113  -0.001694   0.000161  -0.001701   0.000106
    11  C   -0.224886  -0.174788  -0.172025  -0.175623  -0.225466
    12  C    0.475219   0.421392  -0.029087   0.003904   0.003627
    13  C    0.003600   0.003883   0.505061   0.421645   0.475153
    14  Cl   0.001339   0.018944   0.002316   0.018972   0.001451
    15  H    0.000000   0.000000   0.000000   0.000000   0.000000
    16  H   -0.000003   0.000000   0.000000   0.000000   0.000000
    17  H    0.000000   0.000000   0.000000   0.000000   0.000000
    18  H    0.000085   0.000006  -0.000001  -0.000003   0.000008
    19  H    0.000008  -0.000003  -0.000019   0.000005   0.000084
    20  H    0.000007   0.000002   0.000000   0.000000   0.000000
    21  H   -0.000304  -0.001575  -0.000014  -0.000032   0.000009
    22  H   -0.001352  -0.000524   0.000000   0.000000  -0.000001
    23  H    0.000000   0.000000   0.000000   0.000000  -0.000003
    24  H    0.000000   0.000000   0.000000   0.000000   0.000000
    25  H    0.000000   0.000000   0.000000   0.000002   0.000007
    26  H   -0.000001   0.000000   0.000132  -0.000526  -0.001354
    27  H    0.000009  -0.000032   0.000159  -0.001576  -0.000301
    28  H    0.000000   0.000000   0.000000   0.000000   0.000000
    29  H    0.000000  -0.000003   0.000000  -0.000003   0.000000
    30  H   -0.027324  -0.031194   0.002342   0.000136   0.000170
    31  H    0.545828  -0.025453   0.000169   0.000095  -0.000152
    32  H   -0.025453   0.561833   0.000135   0.000711   0.000096
    33  H    0.000169   0.000135   0.544308  -0.031278  -0.027336
    34  H    0.000095   0.000711  -0.031278   0.561967  -0.025407
    35  H   -0.000152   0.000096  -0.027336  -0.025407   0.545813
 Mulliken atomic charges:
              1
     1  C   -0.319764
     2  C    0.065990
     3  C   -0.549391
     4  C    0.014549
     5  C   -0.479004
     6  C   -0.166355
     7  C   -0.319972
     8  C    0.014746
     9  C   -0.478189
    10  C   -0.312628
    11  C    0.673182
    12  C   -0.524263
    13  C   -0.524456
    14  Cl  -0.038499
    15  H    0.129468
    16  H    0.131144
    17  H    0.119668
    18  H    0.159108
    19  H    0.159012
    20  H    0.118417
    21  H    0.134500
    22  H    0.140340
    23  H    0.131144
    24  H    0.129519
    25  H    0.118373
    26  H    0.140335
    27  H    0.134508
    28  H    0.130516
    29  H    0.128399
    30  H    0.160929
    31  H    0.157538
    32  H    0.151380
    33  H    0.160967
    34  H    0.151316
    35  H    0.157475
 Sum of Mulliken atomic charges =   0.00000
 Mulliken charges with hydrogens summed into heavy atoms:
              1
     1  C   -0.059153
     2  C    0.185658
     3  C   -0.231272
     4  C    0.132965
     5  C   -0.204165
     6  C   -0.166355
     7  C   -0.059308
     8  C    0.133119
     9  C   -0.203346
    10  C   -0.053713
    11  C    0.673182
    12  C   -0.054416
    13  C   -0.054698
    14  Cl  -0.038499
 Sum of Mulliken charges with hydrogens summed into heavy atoms =   0.00000
 Electronic spatial extent (au):  <R**2>=           2948.1866
 Charge=              0.0000 electrons
 Dipole moment (field-independent basis, Debye):
    X=             -1.3801    Y=             -1.7166    Z=              0.0020  Tot=              2.2026
 Quadrupole moment (field-independent basis, Debye-Ang):
   XX=           -100.8983   YY=            -97.0039   ZZ=            -95.8022
   XY=             -5.0450   XZ=              0.0068   YZ=              0.0001
 Traceless Quadrupole moment (field-independent basis, Debye-Ang):
   XX=             -2.9969   YY=              0.8976   ZZ=              2.0993
   XY=             -5.0450   XZ=              0.0068   YZ=              0.0001
 Octapole moment (field-independent basis, Debye-Ang**2):
  XXX=             -1.9742  YYY=              3.1887  ZZZ=             -0.0002  XYY=              3.1292
  XXY=            -11.0811  XXZ=             -0.0100  XZZ=              5.6658  YZZ=              2.3335
  YYZ=              0.0052  XYZ=              0.0038
 Hexadecapole moment (field-independent basis, Debye-Ang**3):
 XXXX=          -2556.6767 YYYY=           -826.2388 ZZZZ=           -743.8698 XXXY=            -25.8118
 XXXZ=              0.0242 YYYX=             12.4692 YYYZ=             -0.0242 ZZZX=             -0.0080
 ZZZY=             -0.0114 XXYY=           -569.6531 XXZZ=           -552.3578 YYZZ=           -267.3059
 XXYZ=              0.0076 YYXZ=              0.0091 ZZXY=              6.1407
 N-N= 1.133366666602D+03 E-N=-4.534076447471D+03  KE= 9.614743790296D+02
 Calling FoFJK, ICntrl=      2127 FMM=F ISym2X=0 I1Cent= 0 IOpClX= 0 NMat=1 NMatS=1 NMatT=0.
 ***** Axes restored to original set *****
 -------------------------------------------------------------------
 Center     Atomic                   Forces (Hartrees/Bohr)
 Number     Number              X              Y              Z
 -------------------------------------------------------------------
      1        6          -0.009321630   -0.009180537   -0.001063136
      2        6          -0.013169283   -0.000584159   -0.001925810
      3        6          -0.014570133    0.007800616    0.013006618
      4        6           0.000738205   -0.012537467   -0.003788462
      5        6           0.010820713   -0.014712725    0.010167636
      6        6          -0.011283883   -0.005503565   -0.011569655
      7        6          -0.007731317    0.005566773   -0.008769927
      8        6           0.001276201    0.004164423   -0.012592374
      9        6           0.012702332    0.016018258   -0.005596562
     10        6           0.004922377   -0.005974767   -0.010968682
     11        6           0.027202673    0.000610202    0.003329554
     12        6           0.006815632   -0.013029652    0.011671279
     13        6           0.008117315    0.016061440   -0.003835680
     14       17          -0.009420114    0.004845454    0.008396224
     15        1           0.004960973    0.003787553    0.008349802
     16        1           0.003457069    0.005184177   -0.008634648
     17        1           0.012900960   -0.000132364    0.001242487
     18        1           0.005095616    0.008901699   -0.007752514
     19        1           0.003984347   -0.011997448    0.003003104
     20        1          -0.000876935    0.011605668    0.003170197
     21        1          -0.009742002    0.001241558    0.003745158
     22        1           0.005765079    0.006693803   -0.007723332
     23        1           0.002499198   -0.010233957   -0.000606678
     24        1           0.004816280    0.003960026    0.008078938
     25        1          -0.001914576   -0.004174411    0.011530373
     26        1           0.004844986   -0.010750575    0.001207299
     27        1          -0.009696139    0.003258110    0.002837876
     28        1           0.004890845    0.004015691    0.008353756
     29        1          -0.010278521    0.001219784    0.001263843
     30        1          -0.009008912   -0.000139790   -0.011697793
     31        1           0.006602336    0.008606270   -0.006792433
     32        1          -0.010695129    0.003660638    0.003223676
     33        1          -0.009407990   -0.008449105   -0.006926204
     34        1          -0.010836507    0.001507147    0.004274204
     35        1           0.005539936   -0.011308770    0.003391866
 -------------------------------------------------------------------
 Cartesian Forces:  Max     0.027202673 RMS     0.008330980

 GradGradGradGradGradGradGradGradGradGradGradGradGradGradGradGradGradGrad
 Berny optimization.
 Internal  Forces:  Max     0.013473259 RMS     0.003826214
 Search for a local minimum.
 Step number   1 out of a maximum of  210
 All quantities printed in internal units (Hartrees-Bohrs-Radians)
 Mixed Optimization -- RFO/linear search
 Second derivative matrix not updated -- first step.
 ITU=  0
     Eigenvalues ---    0.00230   0.00230   0.00881   0.00890   0.00909
     Eigenvalues ---    0.01087   0.01088   0.01167   0.02055   0.02729
     Eigenvalues ---    0.02980   0.03847   0.03902   0.04070   0.04160
     Eigenvalues ---    0.04162   0.04455   0.04483   0.04613   0.04620
     Eigenvalues ---    0.04680   0.04714   0.04844   0.04919   0.04943
     Eigenvalues ---    0.05084   0.05084   0.05216   0.05217   0.05314
     Eigenvalues ---    0.05316   0.06079   0.06085   0.06205   0.07084
     Eigenvalues ---    0.07087   0.07636   0.07637   0.07654   0.07837
     Eigenvalues ---    0.07880   0.08317   0.08318   0.08321   0.08331
     Eigenvalues ---    0.08621   0.08625   0.09310   0.09569   0.09599
     Eigenvalues ---    0.09653   0.14727   0.14771   0.16000   0.16000
     Eigenvalues ---    0.16000   0.16000   0.16000   0.16000   0.17511
     Eigenvalues ---    0.18952   0.24138   0.24490   0.24515   0.24822
     Eigenvalues ---    0.24849   0.25048   0.25081   0.26146   0.26167
     Eigenvalues ---    0.26370   0.27748   0.27835   0.28505   0.28534
     Eigenvalues ---    0.28562   0.28613   0.31604   0.31689   0.31750
     Eigenvalues ---    0.31944   0.31953   0.31959   0.31980   0.31984
     Eigenvalues ---    0.31988   0.32016   0.32025   0.32034   0.32062
     Eigenvalues ---    0.32083   0.32116   0.32180   0.32198   0.32250
     Eigenvalues ---    0.32284   0.32285   0.322921000.000001000.00000
     Eigenvalues --- 1000.000001000.000001000.000001000.000001000.00000
     Eigenvalues --- 1000.000001000.000001000.000001000.000001000.00000
     Eigenvalues --- 1000.000001000.000001000.000001000.000001000.00000
     Eigenvalues --- 1000.000001000.000001000.000001000.000001000.00000
     Eigenvalues --- 1000.000001000.000001000.000001000.000001000.00000
     Eigenvalues --- 1000.000001000.000001000.000001000.000001000.00000
     Eigenvalues --- 1000.000001000.000001000.000001000.000001000.00000
     Eigenvalues --- 1000.000001000.000001000.000001000.000001000.00000
     Eigenvalues --- 1000.000001000.000001000.000001000.000001000.00000
     Eigenvalues --- 1000.000001000.000001000.000001000.000001000.00000
     Eigenvalues --- 1000.000001000.000001000.000001000.000001000.00000
     Eigenvalues --- 1000.000001000.000001000.000001000.000001000.00000
     Eigenvalues --- 1000.000001000.000001000.000001000.000001000.00000
     Eigenvalues --- 1000.000001000.000001000.000001000.000001000.00000
     Eigenvalues --- 1000.000001000.000001000.000001000.000001000.00000
     Eigenvalues --- 1000.000001000.000001000.000001000.000001000.00000
     Eigenvalues --- 1000.000001000.000001000.000001000.000001000.00000
[...]
    17  H   -0.003155   0.132456   0.063143   0.062129  -0.014737   0.029320
    18  H   -0.039073   0.007174   0.411900  -0.004778  -0.068980   0.043595
    19  H    0.017930   0.007167   0.411864  -0.015398   0.041026   0.043692
    20  H   -0.010597   0.060382  -0.013842   0.126364   0.075863   0.040395
    21  H    0.019659  -0.018072   0.037703   0.020222   0.434103  -0.030019
    22  H   -0.035260   0.007277  -0.063669   0.032626   0.446372  -0.078241
    23  H    0.013362  -0.020263  -0.033435  -0.027372   0.022516   0.001815
    24  H   -0.030708  -0.038086   0.046707   0.012213   0.009152  -0.046728
    25  H   -0.020296   0.060399  -0.013856   0.062680  -0.015415   0.040362
    26  H    0.003882   0.007255  -0.063678  -0.017324   0.028275  -0.078524
    27  H    0.003029  -0.018066   0.037712   0.009203  -0.073322  -0.029832
    28  H   -0.029245   0.006047   0.011249  -0.038125   0.047018  -0.041674
    29  H    0.012327  -0.026954   0.022505  -0.025090  -0.027612  -0.002661
    30  H   -0.000488   0.001122  -0.002265  -0.004704  -0.029901   0.081974
    31  H   -0.001089  -0.001440  -0.021253   0.010957  -0.002761   0.094519
    32  H   -0.000464  -0.001913   0.003022   0.003734  -0.017227   0.108559
    33  H   -0.000299   0.001125  -0.002272  -0.000182   0.005985   0.081921
    34  H    0.000019  -0.001919   0.002991  -0.001155  -0.013059   0.108786
    35  H   -0.000245  -0.001436  -0.021258  -0.001911   0.001594   0.094356
              7          8          9         10         11         12
     1  C   -0.043834   0.564814  -0.821529  -0.083472   0.576333  -0.063877
     2  C   -0.166140  -1.449700   1.135874   0.597393  -0.212773  -0.007124
     3  C    0.070259   1.091683  -1.637057  -0.894854   0.758249   0.134762
     4  C    0.564741  -1.438613   0.994341  -0.094349   0.368912  -0.056949
     5  C   -0.821491   0.993501  -1.353950   0.041901  -0.034192  -0.801689
     6  C   -0.161980  -0.507626  -1.097177   0.031250 -17.545924   1.813652
     7  C    5.863279  -0.021383  -0.047858  -0.083367   0.576450  -0.016706
     8  C   -0.021383   8.504362  -2.086416  -0.094653   0.368950   0.007652
     9  C   -0.047858  -2.086416  10.917126   0.042161  -0.031940   0.358787
    10  C   -0.083367  -0.094653   0.042161   5.859354   0.407044  -0.047756
    11  C    0.576450   0.368950  -0.031940   0.407044  27.585905  -2.317631
    12  C   -0.016706   0.007652   0.358787  -0.047756  -2.317631   6.740934
    13  C   -0.063927  -0.057044  -0.801808  -0.047742  -2.318376  -0.572245
    14  Cl  -0.029307  -0.014302   0.056385  -0.003703  -1.254221  -0.044954
    15  H   -0.030717   0.012224   0.009149  -0.032250  -0.006827   0.000095
    16  H    0.013357  -0.027379   0.022535   0.013289  -0.001015   0.000577
    17  H   -0.003151   0.062126  -0.014750  -0.020461  -0.013295  -0.000535
    18  H    0.017925  -0.015394   0.041072   0.004786  -0.093680   0.010566
    19  H   -0.039044  -0.004795  -0.068909   0.004783  -0.093783  -0.005489
    20  H   -0.020291   0.062703  -0.015429  -0.011867  -0.019358   0.006253
    21  H    0.003026   0.009196  -0.073339  -0.040269  -0.040119  -0.025936
    22  H    0.003884  -0.017332   0.028315   0.016420  -0.016821  -0.018975
    23  H    0.405205  -0.015508  -0.043208   0.013280  -0.000995  -0.000617
    24  H    0.388541  -0.042894   0.052745  -0.032244  -0.006823   0.000463
    25  H   -0.010600   0.126328   0.075938  -0.011853  -0.019371  -0.000925
    26  H   -0.035232   0.032677   0.446459   0.016410  -0.016522  -0.001161
    27  H    0.019653   0.020212   0.433983  -0.040263  -0.040283   0.010895
    28  H   -0.029241  -0.038144   0.047030   0.387682  -0.009352   0.000219
    29  H    0.012324  -0.025062  -0.027643   0.406061  -0.004855   0.000103
    30  H   -0.000300  -0.000179   0.005961   0.000117  -0.197838   0.524057
    31  H   -0.000245  -0.001914   0.001570   0.000154  -0.202320   0.475348
    32  H    0.000019  -0.001150  -0.013046  -0.001940  -0.170383   0.417221
    33  H   -0.000488  -0.004702  -0.029913   0.000117  -0.197788  -0.029786
    34  H   -0.000459   0.003723  -0.017279  -0.001933  -0.170600   0.001342
    35  H   -0.001097   0.010974  -0.002668   0.000153  -0.202229   0.004789
             13         14         15         16         17         18
     1  C   -0.016693  -0.029317   0.388551   0.405174  -0.003155  -0.039073
     2  C   -0.006858  -0.001935  -0.038085  -0.020280   0.132456   0.007174
     3  C    0.134132  -0.217842   0.046713  -0.033435   0.063143   0.411900
     4  C    0.007449  -0.014224  -0.042909  -0.015484   0.062129  -0.004778
     5  C    0.359759   0.056179   0.052768  -0.043220  -0.014737  -0.068980
     6  C    1.813591   1.214815  -0.046745   0.001852   0.029320   0.043595
     7  C   -0.063927  -0.029307  -0.030717   0.013357  -0.003151   0.017925
     8  C   -0.057044  -0.014302   0.012224  -0.027379   0.062126  -0.015394
     9  C   -0.801808   0.056385   0.009149   0.022535  -0.014750   0.041072
    10  C   -0.047742  -0.003703  -0.032250   0.013289  -0.020461   0.004786
    11  C   -2.318376  -1.254221  -0.006827  -0.001015  -0.013295  -0.093680
    12  C   -0.572245  -0.044954   0.000095   0.000577  -0.000535   0.010566
    13  C    6.741653  -0.045241   0.000463  -0.000617  -0.000532  -0.005511
    14  Cl  -0.045241  17.368534  -0.000059   0.000055   0.002067  -0.001971
    15  H    0.000463  -0.000059   0.589418  -0.031306  -0.003703   0.000097
    16  H   -0.000617   0.000055  -0.031306   0.586192  -0.004482   0.002982
    17  H   -0.000532   0.002067  -0.003703  -0.004482   0.626208  -0.004761
    18  H   -0.005511  -0.001971   0.000097   0.002982  -0.004761   0.559455
    19  H    0.010541  -0.001962  -0.000142   0.000066  -0.004759  -0.030015
    20  H   -0.000929   0.000033  -0.003737  -0.004469  -0.000168  -0.000046
    21  H    0.010919  -0.001012  -0.000154   0.000067   0.000019   0.000057
    22  H   -0.001165   0.005396   0.000114   0.003342  -0.000053   0.002589
    23  H    0.000578   0.000053   0.000088  -0.000147  -0.004483   0.000066
    24  H    0.000094  -0.000059   0.003206   0.000088  -0.003703  -0.000142
    25  H    0.006254   0.000033  -0.000053   0.000020  -0.000168   0.000018
    26  H   -0.019102   0.005406  -0.000002  -0.000004  -0.000053   0.000081
    27  H   -0.025856  -0.001009  -0.000002  -0.000004   0.000019  -0.000142
    28  H    0.000220   0.000096   0.003135   0.000081  -0.000050  -0.000002
    29  H    0.000101  -0.000021   0.000082  -0.000148   0.000020  -0.000003
    30  H   -0.029798   0.002637   0.000000   0.000000   0.000000  -0.000024
    31  H    0.004820  -0.001979   0.000000  -0.000003   0.000000   0.000118
    32  H    0.001331   0.017756   0.000000   0.000000   0.000000   0.000005
    33  H    0.524068   0.002612   0.000000   0.000000   0.000000  -0.000001
    34  H    0.417290   0.017771   0.000000   0.000000   0.000000  -0.000005
    35  H    0.475297  -0.001948   0.000000   0.000000   0.000000   0.000010
             19         20         21         22         23         24
     1  C    0.017930  -0.010597   0.019659  -0.035260   0.013362  -0.030708
     2  C    0.007167   0.060382  -0.018072   0.007277  -0.020263  -0.038086
     3  C    0.411864  -0.013842   0.037703  -0.063669  -0.033435   0.046707
     4  C   -0.015398   0.126364   0.020222   0.032626  -0.027372   0.012213
     5  C    0.041026   0.075863   0.434103   0.446372   0.022516   0.009152
     6  C    0.043692   0.040395  -0.030019  -0.078241   0.001815  -0.046728
     7  C   -0.039044  -0.020291   0.003026   0.003884   0.405205   0.388541
     8  C   -0.004795   0.062703   0.009196  -0.017332  -0.015508  -0.042894
     9  C   -0.068909  -0.015429  -0.073339   0.028315  -0.043208   0.052745
    10  C    0.004783  -0.011867  -0.040269   0.016420   0.013280  -0.032244
    11  C   -0.093783  -0.019358  -0.040119  -0.016821  -0.000995  -0.006823
    12  C   -0.005489   0.006253  -0.025936  -0.018975  -0.000617   0.000463
    13  C    0.010541  -0.000929   0.010919  -0.001165   0.000578   0.000094
    14  Cl  -0.001962   0.000033  -0.001012   0.005396   0.000053  -0.000059
    15  H   -0.000142  -0.003737  -0.000154   0.000114   0.000088   0.003206
    16  H    0.000066  -0.004469   0.000067   0.003342  -0.000147   0.000088
    17  H   -0.004759  -0.000168   0.000019  -0.000053  -0.004483  -0.003703
    18  H   -0.030015  -0.000046   0.000057   0.002589   0.000066  -0.000142
    19  H    0.559437   0.000018  -0.000142   0.000081   0.002982   0.000097
    20  H    0.000018   0.628678  -0.004824  -0.004784   0.000020  -0.000053
    21  H   -0.000142  -0.004824   0.594373  -0.034373  -0.000004  -0.000002
    22  H    0.000081  -0.004784  -0.034373   0.585860  -0.000004  -0.000002
    23  H    0.002982   0.000020  -0.000004  -0.000004   0.586188  -0.031306
    24  H    0.000097  -0.000053  -0.000002  -0.000002  -0.031306   0.589420
    25  H   -0.000046  -0.000170  -0.000053   0.000019  -0.004469  -0.003737
    26  H    0.002590   0.000019   0.000081  -0.000138   0.003342   0.000113
    27  H    0.000058  -0.000053   0.002858   0.000081   0.000067  -0.000154
    28  H   -0.000002  -0.003738   0.000104  -0.000150   0.000081   0.003135
    29  H   -0.000003  -0.004434   0.003404   0.000064  -0.000148   0.000082
    30  H   -0.000001   0.000000   0.000168   0.000152   0.000000   0.000000
    31  H    0.000010   0.000007  -0.000364  -0.001071   0.000000   0.000000
    32  H   -0.000005   0.000000  -0.001452  -0.000729   0.000000   0.000000
    33  H   -0.000024   0.000000  -0.000015   0.000000   0.000000   0.000000
    34  H    0.000005   0.000000  -0.000035  -0.000001   0.000000   0.000000
    35  H    0.000118   0.000000   0.000009  -0.000001  -0.000003   0.000000
             25         26         27         28         29         30
     1  C   -0.020296   0.003882   0.003029  -0.029245   0.012327  -0.000488
     2  C    0.060399   0.007255  -0.018066   0.006047  -0.026954   0.001122
     3  C   -0.013856  -0.063678   0.037712   0.011249   0.022505  -0.002265
     4  C    0.062680  -0.017324   0.009203  -0.038125  -0.025090  -0.004704
     5  C   -0.015415   0.028275  -0.073322   0.047018  -0.027612  -0.029901
     6  C    0.040362  -0.078524  -0.029832  -0.041674  -0.002661   0.081974
     7  C   -0.010600  -0.035232   0.019653  -0.029241   0.012324  -0.000300
     8  C    0.126328   0.032677   0.020212  -0.038144  -0.025062  -0.000179
     9  C    0.075938   0.446459   0.433983   0.047030  -0.027643   0.005961
    10  C   -0.011853   0.016410  -0.040263   0.387682   0.406061   0.000117
    11  C   -0.019371  -0.016522  -0.040283  -0.009352  -0.004855  -0.197838
    12  C   -0.000925  -0.001161   0.010895   0.000219   0.000103   0.524057
    13  C    0.006254  -0.019102  -0.025856   0.000220   0.000101  -0.029798
    14  Cl   0.000033   0.005406  -0.001009   0.000096  -0.000021   0.002637
    15  H   -0.000053  -0.000002  -0.000002   0.003135   0.000082   0.000000
    16  H    0.000020  -0.000004  -0.000004   0.000081  -0.000148   0.000000
    17  H   -0.000168  -0.000053   0.000019  -0.000050   0.000020   0.000000
    18  H    0.000018   0.000081  -0.000142  -0.000002  -0.000003  -0.000024
    19  H   -0.000046   0.002590   0.000058  -0.000002  -0.000003  -0.000001
    20  H   -0.000170   0.000019  -0.000053  -0.003738  -0.004434   0.000000
    21  H   -0.000053   0.000081   0.002858   0.000104   0.003404   0.000168
    22  H    0.000019  -0.000138   0.000081  -0.000150   0.000064   0.000152
    23  H   -0.004469   0.003342   0.000067   0.000081  -0.000148   0.000000
    24  H   -0.003737   0.000113  -0.000154   0.003135   0.000082   0.000000
    25  H    0.628680  -0.004783  -0.004825  -0.003738  -0.004435   0.000000
    26  H   -0.004783   0.585860  -0.034372  -0.000150   0.000064   0.000000
    27  H   -0.004825  -0.034372   0.594394   0.000104   0.003404  -0.000015
    28  H   -0.003738  -0.000150   0.000104   0.586864  -0.031255   0.000000
    29  H   -0.004435   0.000064   0.003404  -0.031255   0.590719   0.000000
    30  H    0.000000   0.000000  -0.000015   0.000000   0.000000   0.538860
    31  H    0.000000  -0.000001   0.000009   0.000000   0.000000  -0.025950
    32  H    0.000000  -0.000001  -0.000035   0.000000  -0.000003  -0.029539
    33  H    0.000000   0.000151   0.000168   0.000000   0.000000   0.003250
    34  H    0.000000  -0.000725  -0.001454   0.000000  -0.000003   0.000099
    35  H    0.000007  -0.001070  -0.000368   0.000000   0.000000   0.000153
             31         32         33         34         35
     1  C   -0.001089  -0.000464  -0.000299   0.000019  -0.000245
     2  C   -0.001440  -0.001913   0.001125  -0.001919  -0.001436
     3  C   -0.021253   0.003022  -0.002272   0.002991  -0.021258
     4  C    0.010957   0.003734  -0.000182  -0.001155  -0.001911
     5  C   -0.002761  -0.017227   0.005985  -0.013059   0.001594
     6  C    0.094519   0.108559   0.081921   0.108786   0.094356
     7  C   -0.000245   0.000019  -0.000488  -0.000459  -0.001097
     8  C   -0.001914  -0.001150  -0.004702   0.003723   0.010974
     9  C    0.001570  -0.013046  -0.029913  -0.017279  -0.002668
    10  C    0.000154  -0.001940   0.000117  -0.001933   0.000153
    11  C   -0.202320  -0.170383  -0.197788  -0.170600  -0.202229
    12  C    0.475348   0.417221  -0.029786   0.001342   0.004789
    13  C    0.004820   0.001331   0.524068   0.417290   0.475297
    14  Cl  -0.001979   0.017756   0.002612   0.017771  -0.001948
    15  H    0.000000   0.000000   0.000000   0.000000   0.000000
    16  H   -0.000003   0.000000   0.000000   0.000000   0.000000
    17  H    0.000000   0.000000   0.000000   0.000000   0.000000
    18  H    0.000118   0.000005  -0.000001  -0.000005   0.000010
    19  H    0.000010  -0.000005  -0.000024   0.000005   0.000118
    20  H    0.000007   0.000000   0.000000   0.000000   0.000000
    21  H   -0.000364  -0.001452  -0.000015  -0.000035   0.000009
    22  H   -0.001071  -0.000729   0.000000  -0.000001  -0.000001
    23  H    0.000000   0.000000   0.000000   0.000000  -0.000003
    24  H    0.000000   0.000000   0.000000   0.000000   0.000000
    25  H    0.000000   0.000000   0.000000   0.000000   0.000007
    26  H   -0.000001  -0.000001   0.000151  -0.000725  -0.001070
    27  H    0.000009  -0.000035   0.000168  -0.001454  -0.000368
    28  H    0.000000   0.000000   0.000000   0.000000   0.000000
    29  H    0.000000  -0.000003   0.000000  -0.000003   0.000000
    30  H   -0.025950  -0.029539   0.003250   0.000099   0.000153
    31  H    0.538745  -0.027383   0.000153   0.000085  -0.000161
    32  H   -0.027383   0.560572   0.000099   0.000907   0.000085
    33  H    0.000153   0.000099   0.538856  -0.029538  -0.025949
    34  H    0.000085   0.000907  -0.029538   0.560562  -0.027384
    35  H   -0.000161   0.000085  -0.025949  -0.027384   0.538758
 Mulliken atomic charges:
              1
     1  C   -0.311770
     2  C    0.053988
     3  C   -0.548468
     4  C   -0.006936
     5  C   -0.485401
     6  C   -0.086851
     7  C   -0.311807
     8  C   -0.006933
     9  C   -0.485512
    10  C   -0.299379
    11  C    0.597470
    12  C   -0.495356
    13  C   -0.495113
    14  Cl  -0.084761
    15  H    0.130588
    16  H    0.132314
    17  H    0.119491
    18  H    0.162033
    19  H    0.162054
    20  H    0.118056
    21  H    0.134214
    22  H    0.140178
    23  H    0.132316
    24  H    0.130586
    25  H    0.118054
    26  H    0.140178
    27  H    0.134206
    28  H    0.131802
    29  H    0.129069
    30  H    0.162453
    31  H    0.161435
    32  H    0.151959
    33  H    0.162453
    34  H    0.151965
    35  H    0.161424
 Sum of Mulliken atomic charges =   0.00000
 Mulliken charges with hydrogens summed into heavy atoms:
              1
     1  C   -0.048868
     2  C    0.173479
     3  C   -0.224382
     4  C    0.111120
     5  C   -0.211009
     6  C   -0.086851
     7  C   -0.048904
     8  C    0.111122
     9  C   -0.211127
    10  C   -0.038509
    11  C    0.597470
    12  C   -0.019509
    13  C   -0.019271
    14  Cl  -0.084761
 Sum of Mulliken charges with hydrogens summed into heavy atoms =   0.00000
 Electronic spatial extent (au):  <R**2>=           2956.7429
 Charge=              0.0000 electrons
 Dipole moment (field-independent basis, Debye):
    X=             -1.5905    Y=             -1.9185    Z=              0.0000  Tot=              2.4921
 Quadrupole moment (field-independent basis, Debye-Ang):
   XX=           -101.3276   YY=            -96.6739   ZZ=            -95.1566
   XY=             -5.5294   XZ=             -0.0002   YZ=              0.0001
 Traceless Quadrupole moment (field-independent basis, Debye-Ang):
   XX=             -3.6082   YY=              1.0454   ZZ=              2.5628
   XY=             -5.5294   XZ=             -0.0002   YZ=              0.0001
 Octapole moment (field-independent basis, Debye-Ang**2):
  XXX=             -6.1266  YYY=              2.7430  ZZZ=              0.0009  XYY=              1.9085
  XXY=            -12.5081  XXZ=              0.0003  XZZ=              5.2865  YZZ=              1.6711
  YYZ=             -0.0006  XYZ=              0.0008
 Hexadecapole moment (field-independent basis, Debye-Ang**3):
 XXXX=          -2562.7572 YYYY=           -827.3244 ZZZZ=           -738.7782 XXXY=            -31.2056
 XXXZ=             -0.0011 YYYX=             11.1395 YYYZ=              0.0028 ZZZX=              0.0031
 ZZZY=             -0.0008 XXYY=           -572.3133 XXZZ=           -552.0185 YYZZ=           -266.6136
 XXYZ=              0.0015 YYXZ=             -0.0037 ZZXY=              5.7514
 N-N= 1.131336199169D+03 E-N=-4.530393939987D+03  KE= 9.618312837540D+02
 1\1\GINC-XT24\FOpt\RB3LYP\6-31+G(d,p)\C13H21Cl1\GIANNIS\05-Jul-2018\0\
 \# opt=modredundant b3lyp/6-31+g(d,p)\\Adamantyl-CMe2Cl-ts\\0,1\C,-1.6
 93302537,-1.869328726,-1.0785241393\C,-2.0197626465,-0.3696525113,-0.9
 512182882\C,-1.2979857927,0.2193424284,0.2797391515\C,-0.1710532781,-2
 .0362656978,-1.2407288289\C,0.5503477667,-1.4470001779,-0.0085362944\C
 ,0.2471806677,0.072582777,0.1693799829\C,-1.5629740357,0.3663023853,-2
 .2246052512\C,-0.0411779411,0.1915301275,-2.3827546326\C,0.6802329884,
 0.7813030224,-1.1508126474\C,0.2964803194,-1.3055021926,-2.5133474536\
 C,1.033775735,0.6803484115,1.4442834239\C,1.8318279485,-0.3520665756,2
 .2542530312\C,1.9617752948,1.8602202318,1.1195033114\Cl,-0.1659930539,
 1.4010801185,2.7122807784\H,-2.2166299398,-2.3025191746,-1.9414927768\
 H,-2.0412659474,-2.4101449905,-0.1881514247\H,-3.1007868152,-0.2364348
 879,-0.8142822454\H,-1.6544144054,-0.2829385389,1.1849675179\H,-1.5634
 02744,1.2762790158,0.385526474\H,0.0801791858,-3.1027458184,-1.3122117
 917\H,1.628958275,-1.6090524905,-0.1223253801\H,0.2352193635,-2.000302
 9699,0.8830374735\H,-1.8172399616,1.4327257115,-2.1581758678\H,-2.0843
 213434,-0.0332422498,-3.1048337044\H,0.3035654889,0.728589817,-3.27624
 57583\H,0.4597913982,1.8529042592,-1.0921592907\H,1.7626013907,0.68380
 2329,-1.2976825681\H,-0.1954535407,-1.7305518138,-3.3984528474\H,1.377
 8942006,-1.4400069854,-2.6527451419\H,2.2975052764,0.1397239198,3.1116
 204637\H,1.2056252861,-1.161991873,2.631849345\H,2.6286706701,-0.78440
 41021,1.6400261923\H,2.4200761727,2.2266808292,2.0411647064\H,2.765169
 347,1.5391166201,0.4482305569\H,1.4321198569,2.6931629719,0.6543637237
 \\Version=AM64L-G09RevC.01\State=1-A\HF=-968.2838726\RMSD=4.216e-09\RM
 SF=1.150e-05\Dipole=0.4824042,-0.4117961,-0.7476698\Quadrupole=3.06865
 66,0.3931179,-3.4617745,0.8221834,1.7360209,-2.8545273\PG=C01 [X(C13H2
 1Cl1)]\\@


 HE THAT FOLLOWS NATURE IS NEVER LOST.

                             -- BACON
 Job cpu time:  0 days  3 hours 22 minutes  2.9 seconds.
 File lengths (MBytes):  RWF=    108 Int=      0 D2E=      0 Chk=     11 Scr=      1
 Normal termination of Gaussian 09 at Thu Jul  5 18:51:25 2018.
