 Entering Gaussian System, Link 0=g09
 Input=bicyclooctyl_CMe2Cl_b3lyp.gjf
 Output=bicyclooctyl_CMe2Cl_b3lyp.log
 Initial command:
 /opt/g09/g09/l1.exe /scratch/tmp/Gau-16407.inp -scrdir=/scratch/tmp/
 Entering Link 1 = /opt/g09/g09/l1.exe PID=     16408.
  
 Copyright (c) 1988,1990,1992,1993,1995,1998,2003,2009,2011,
            Gaussian, Inc.  All Rights Reserved.
  
 This is part of the Gaussian(R) 09 program.  It is based on
 the Gaussian(R) 03 system (copyright 2003, Gaussian, Inc.),
 the Gaussian(R) 98 system (copyright 1998, Gaussian, Inc.),
 the Gaussian(R) 94 system (copyright 1995, Gaussian, Inc.),
 the Gaussian 92(TM) system (copyright 1992, Gaussian, Inc.),
 the Gaussian 90(TM) system (copyright 1990, Gaussian, Inc.),
 the Gaussian 88(TM) system (copyright 1988, Gaussian, Inc.),
 the Gaussian 86(TM) system (copyright 1986, Carnegie Mellon
 University), and the Gaussian 82(TM) system (copyright 1983,
 Carnegie Mellon University). Gaussian is a federally registered
 trademark of Gaussian, Inc.
  
 This software contains proprietary and confidential information,
 including trade secrets, belonging to Gaussian, Inc.
  
 This software is provided under written license and may be
 used, copied, transmitted, or stored only in accord with that
 written license.
  
 The following legend is applicable only to US Government
 contracts under FAR:
  
                    RESTRICTED RIGHTS LEGEND
  
 Use, reproduction and disclosure by the US Government is
 subject to restrictions as set forth in subparagraphs (a)
 and (c) of the Commercial Computer Software - Restricted
 Rights clause in FAR 52.227-19.
  
 Gaussian, Inc.
 340 Quinnipiac St., Bldg. 40, Wallingford CT 06492
  
  
 ---------------------------------------------------------------
 Warning -- This program may not be used in any manner that
 competes with the business of Gaussian, Inc. or will provide
 assistance to any competitor of Gaussian, Inc.  The licensee
 of this program is prohibited from giving any competitor of
 Gaussian, Inc. access to this program.  By using this program,
 the user acknowledges that Gaussian, Inc. is engaged in the
 business of creating and licensing software in the field of
 computational chemistry and represents and warrants to the
 licensee that it is not a competitor of Gaussian, Inc. and that
 it will not use this program in any manner prohibited above.
 ---------------------------------------------------------------
  

 Cite this work as:
 Gaussian 09, Revision C.01,
 M. J. Frisch, G. W. Trucks, H. B. Schlegel, G. E. Scuseria, 
 M. A. Robb, J. R. Cheeseman, G. Scalmani, V. Barone, B. Mennucci, 
 G. A. Petersson, H. Nakatsuji, M. Caricato, X. Li, H. P. Hratchian, 
 A. F. Izmaylov, J. Bloino, G. Zheng, J. L. Sonnenberg, M. Hada, 
 M. Ehara, K. Toyota, R. Fukuda, J. Hasegawa, M. Ishida, T. Nakajima, 
 Y. Honda, O. Kitao, H. Nakai, T. Vreven, J. A. Montgomery, Jr., 
 J. E. Peralta, F. Ogliaro, M. Bearpark, J. J. Heyd, E. Brothers, 
 K. N. Kudin, V. N. Staroverov, T. Keith, R. Kobayashi, J. Normand, 
 K. Raghavachari, A. Rendell, J. C. Burant, S. S. Iyengar, J. Tomasi, 
 M. Cossi, N. Rega, J. M. Millam, M. Klene, J. E. Knox, J. B. Cross, 
 V. Bakken, C. Adamo, J. Jaramillo, R. Gomperts, R. E. Stratmann, 
 O. Yazyev, A. J. Austin, R. Cammi, C. Pomelli, J. W. Ochterski, 
 R. L. Martin, K. Morokuma, V. G. Zakrzewski, G. A. Voth, 
 P. Salvador, J. J. Dannenberg, S. Dapprich, A. D. Daniels, 
 O. Farkas, J. B. Foresman, J. V. Ortiz, J. Cioslowski, 
 and D. J. Fox, Gaussian, Inc., Wallingford CT, 2010.
 
 ******************************************
 Gaussian 09:  AM64L-G09RevC.01 23-Sep-2011
                 5-Jul-2018 
 ******************************************
 %mem=2000MB
 %nprocshared=4
 Will use up to    4 processors via shared memory.
 %rwf=/pub/tmp/
 %NoSave
 -------------------
 # b3lyp/6-31+g(d,p)
 -------------------
 1/38=1/1;
 2/12=2,17=6,18=5,40=1/2;
 3/5=1,6=6,7=111,11=2,16=1,25=1,30=1,74=-5/1,2,3;
 4//1;
 5/5=2,38=5/2;
 6/7=2,8=2,9=2,10=2,28=1/1;
 99/5=1,9=1/99;
 -------------------
 bicyclooctyl-CMe2Cl
 -------------------
 Charge =  0 Multiplicity = 1
 Symbolic Z-Matrix:
 C
 C                    1    B1
 C                    1    B2       2    A1
 C                    2    B3       1    A2       3    D1       0
 C                    3    B4       1    A3       2    D2       0
 C                    4    B5       2    A4       1    D3       0
 C                    3    B6       1    A5       2    D4       0
 C                    4    B7       2    A6       1    D5       0
 C                    4    B8       2    A7       1    D6       0
 C                    9    B9       4    A8       2    D7       0
 Cl                   9    B10      4    A9       2    D8       0
 C                    9    B11      4    A10      2    D9       0
 H                    1    B12      3    A11      7    D10      0
 H                    1    B13      3    A12      7    D11      0
 H                    2    B14      1    A13      3    D12      0
 H                    2    B15      1    A14      3    D13      0
 H                    3    B16      1    A15      2    D14      0
 H                    5    B17      3    A16      1    D15      0
 H                    5    B18      3    A17      1    D16      0
 H                    6    B19      4    A18      2    D17      0
 H                    6    B20      4    A19      2    D18      0
 H                    7    B21      3    A20      1    D19      0
 H                    7    B22      3    A21      1    D20      0
 H                    8    B23      4    A22      2    D21      0
 H                    8    B24      4    A23      2    D22      0
 H                    10   B25      9    A24      4    D23      0
 H                    10   B26      9    A25      4    D24      0
 H                    10   B27      9    A26      4    D25      0
 H                    12   B28      9    A27      4    D26      0
 H                    12   B29      9    A28      4    D27      0
 H                    12   B30      9    A29      4    D28      0
       Variables:
  B1                    1.55269                  
  B2                    1.53013                  
  B3                    1.55195                  
  B4                    1.52901                  
  B5                    1.5484                   
  B6                    1.52901                  
  B7                    1.5484                   
  B8                    1.56992                  
  B9                    1.53203                  
  B10                   1.85357                  
  B11                   1.53203                  
  B12                   1.0866                   
  B13                   1.0866                   
  B14                   1.08393                  
  B15                   1.08393                  
  B16                   1.08717                  
  B17                   1.0865                   
  B18                   1.0868                   
  B19                   1.08222                  
  B20                   1.08362                  
  B21                   1.0868                   
  B22                   1.0865                   
  B23                   1.08362                  
  B24                   1.08222                  
  B25                   1.08296                  
  B26                   1.08433                  
  B27                   1.08041                  
  B28                   1.08296                  
  B29                   1.08041                  
  B30                   1.08433                  
  A1                  110.39519                  
  A2                  110.81506                  
  A3                  109.07012                  
  A4                  107.20142                  
  A5                  109.07012                  
  A6                  107.20142                  
  A7                  110.15858                  
  A8                  114.19814                  
  A9                  109.00884                  
  A10                 114.19814                  
  A11                 109.73987                  
  A12                 109.73987                  
  A13                 109.4377                   
  A14                 109.4377                   
  A15                 109.86915                  
  A16                 109.65534                  
  A17                 109.85102                  
  A18                 109.72084                  
  A19                 109.68498                  
  A20                 109.85102                  
  A21                 109.65534                  
  A22                 109.68498                  
  A23                 109.72084                  
  A24                 109.49863                  
  A25                 110.32653                  
  A26                 112.45218                  
  A27                 109.49863                  
  A28                 112.45218                  
  A29                 110.32653                  
  D1                    0.                       
  D2                   59.28932                  
  D3                  -58.04779                  
  D4                  -59.28932                  
  D5                   58.04779                  
  D6                  180.                       
  D7                   62.98278                  
  D8                  180.                       
  D9                  -62.98278                  
  D10                  62.35882                  
  D11                 179.06254                  
  D12                -121.66126                  
  D13                 121.66126                  
  D14                 180.                       
  D15                 179.83018                  
  D16                  63.11584                  
  D17                -178.93727                  
  D18                 -62.02948                  
  D19                 -63.11584                  
  D20                -179.83018                  
  D21                  62.02948                  
  D22                 178.93727                  
  D23                 177.58982                  
  D24                 -63.8507                   
  D25                  57.83848                  
  D26                -177.58982                  
  D27                 -57.83848                  
  D28                  63.8507                   
 
                          Input orientation:                          
 ---------------------------------------------------------------------
 Center     Atomic      Atomic             Coordinates (Angstroms)
 Number     Number       Type             X           Y           Z
 ---------------------------------------------------------------------
      1          6           0        0.000000    0.000000    0.000000
      2          6           0        0.000000    0.000000    1.552685
      3          6           0        1.434208    0.000000   -0.533240
      4          6           0        1.450660    0.000000    2.104176
      5          6           0        2.159651   -1.242435   -0.015584
      6          6           0        2.156849   -1.255040    1.535205
      7          6           0        2.159651    1.242435   -0.015584
      8          6           0        2.156849    1.255040    1.535205
      9          6           0        1.432673    0.000000    3.673989
     10          6           0        0.790733   -1.244912    4.294641
     11         17           0        3.178136    0.000000    4.297763
     12          6           0        0.790733    1.244912    4.294641
     13          1           0       -0.531009    0.870653   -0.375100
     14          1           0       -0.531009   -0.870653   -0.375100
     15          1           0       -0.536525   -0.870023    1.913399
     16          1           0       -0.536525    0.870023    1.913399
     17          1           0        1.424226    0.000000   -1.620365
     18          1           0        3.179046   -1.253526   -0.391330
     19          1           0        1.678970   -2.137789   -0.400837
     20          1           0        3.170564   -1.305448    1.910773
     21          1           0        1.650945   -2.147855    1.883312
     22          1           0        1.678970    2.137789   -0.400837
     23          1           0        3.179046    1.253526   -0.391330
     24          1           0        1.650945    2.147855    1.883312
     25          1           0        3.170564    1.305448    1.910773
     26          1           0        0.856753   -1.185699    5.373963
     27          1           0       -0.258916   -1.300004    4.028246
     28          1           0        1.277429   -2.158275    3.984515
     29          1           0        0.856753    1.185699    5.373963
     30          1           0        1.277429    2.158275    3.984515
     31          1           0       -0.258916    1.300004    4.028246
 ---------------------------------------------------------------------
                    Distance matrix (angstroms):
                    1          2          3          4          5
     1  C    0.000000
     2  C    1.552685   0.000000
     3  C    1.530129   2.531410   0.000000
     4  C    2.555772   1.551952   2.637467   0.000000
     5  C    2.491582   2.944012   1.529013   2.557283   0.000000
     6  C    2.929843   2.495481   2.525035   1.548404   1.550843
     7  C    2.491582   2.944012   1.529013   2.557283   2.484870
     8  C    2.929843   2.495481   2.525035   1.548404   2.939785
     9  C    3.943443   2.559781   4.207229   1.569916   3.960440
    10  C    4.540816   3.113421   5.027157   2.604505   4.522387
    11  Cl   5.345215   4.199524   5.136135   2.792132   4.602816
    12  C    4.540816   3.113421   5.027157   2.604505   5.161286
    13  H    1.086603   2.180909   2.155254   3.291178   3.440064
    14  H    1.086603   2.180909   2.155254   3.291178   2.739913
    15  H    2.169307   1.083934   3.259872   2.177668   3.336020
    16  H    2.169307   1.083934   3.259872   2.177668   3.931007
    17  H    2.157314   3.478026   1.087171   3.724634   2.158661
    18  H    3.439593   3.931521   2.153120   3.284234   1.086496
    19  H    2.747681   3.347436   2.155825   3.301114   1.086800
    20  H    3.925267   3.447448   3.269912   2.167872   2.176411
    21  H    3.299358   2.729142   3.240367   2.168450   2.164341
    22  H    2.747681   3.347436   2.155825   3.301114   3.435897
    23  H    3.439593   3.931521   2.153120   3.284234   2.722163
    24  H    3.299358   2.729142   3.240367   2.168450   3.919012
    25  H    3.925267   3.447448   3.269912   2.167872   3.350299
    26  H    5.569505   4.091708   6.052634   3.528472   5.545086
    27  H    4.240733   2.808104   5.036252   2.883523   4.712254
    28  H    4.708114   3.493390   5.009275   2.867723   4.197364
    29  H    5.569505   4.091708   6.052634   3.528472   6.053147
    30  H    4.708114   3.493390   5.009275   2.867723   5.323902
    31  H    4.240733   2.808104   5.036252   2.883523   5.354066
                    6          7          8          9         10
     6  C    0.000000
     7  C    2.939785   0.000000
     8  C    2.510080   1.550843   0.000000
     9  C    2.583399   3.960440   2.583399   0.000000
    10  C    3.079101   5.161286   3.966172   1.532025   0.000000
    11  Cl   3.201543   4.602816   3.201543   1.853574   2.692491
    12  C    3.966172   4.522387   3.079101   1.532025   2.489824
    13  H    3.923317   2.739913   3.319879   4.583579   5.294252
    14  H    3.319879   3.440064   3.923317   4.583579   4.867603
    15  H    2.746913   3.931007   3.451548   2.781071   2.751813
    16  H    3.451548   3.336020   2.746913   2.781071   3.450345
    17  H    3.474116   2.158661   3.474116   5.294360   6.077698
    18  H    2.180924   2.722163   3.324053   4.598692   5.259510
    19  H    2.180796   3.435897   3.935469   4.608146   4.861451
    20  H    1.082225   3.350299   2.779347   2.798819   3.368989
    21  H    1.083621   3.919012   3.457862   2.804897   2.714734
    22  H    3.935469   1.086800   2.180796   4.608146   5.854839
    23  H    3.324053   1.086496   2.180924   4.598692   5.822762
    24  H    3.457862   2.164341   1.083621   2.804897   4.250334
    25  H    2.779347   2.176411   1.082225   2.798819   4.225016
    26  H    4.053531   6.053147   4.731122   2.151157   1.082959
    27  H    3.471771   5.354066   4.310385   2.162633   1.084328
    28  H    2.754692   5.323902   4.292227   2.186019   1.080409
    29  H    4.731122   5.545086   4.053531   2.151157   2.660294
    30  H    4.292227   4.197364   2.754692   2.186019   3.451773
    31  H    4.310385   4.712254   3.471771   2.162633   2.765742
                   11         12         13         14         15
    11  Cl   0.000000
    12  C    2.692491   0.000000
    13  H    6.029216   4.867603   0.000000
    14  H    6.029216   5.294252   1.741306   0.000000
    15  H    4.498982   3.450345   2.875276   2.288505   0.000000
    16  H    4.498982   2.751813   2.288505   2.875276   1.740046
    17  H    6.172555   6.077698   2.476220   2.476220   4.133881
    18  H    4.853754   5.822762   4.275150   3.729794   4.389114
    19  H    5.375359   5.854839   3.733014   2.547607   3.445480
    20  H    2.720657   4.225016   4.864388   4.372173   3.732574
    21  H    3.574237   4.250334   4.355770   3.390072   2.533532
    22  H    5.375359   4.861451   2.547607   3.733014   4.394432
    23  H    4.853754   5.259510   3.729794   4.275150   4.860731
    24  H    3.574237   2.714734   3.390072   4.355770   3.727401
    25  H    2.720657   3.368989   4.372173   4.864388   4.298277
    26  H    2.820090   2.660294   6.261485   5.922572   3.743846
    27  H    3.684559   2.765742   4.916832   4.432587   2.175897
    28  H    2.892916   3.451773   5.608127   4.892306   3.039662
    29  H    2.820090   1.082959   5.922572   6.261485   4.259427
    30  H    2.892916   1.080409   4.892306   5.608127   4.092742
    31  H    3.684559   1.084328   4.432587   4.916832   3.042805
                   16         17         18         19         20
    16  H    0.000000
    17  H    4.133881   0.000000
    18  H    4.860731   2.482186   0.000000
    19  H    4.394432   2.474325   1.741333   0.000000
    20  H    4.298277   4.150039   2.302704   2.874227   0.000000
    21  H    3.727401   4.115876   2.882519   2.284343   1.737713
    22  H    3.445480   2.474325   3.708279   4.275578   4.407298
    23  H    4.389114   2.482186   2.507052   3.708279   3.442107
    24  H    2.533532   4.115876   4.367892   4.856425   3.772969
    25  H    3.732574   4.150039   3.442107   4.407298   2.610896
    26  H    4.259427   7.116778   6.215806   5.910231   4.166743
    27  H    3.042805   6.035709   5.599500   4.906532   4.030516
    28  H    4.092742   6.007859   4.856206   4.403744   2.934566
    29  H    3.743846   7.116778   6.676936   6.713414   4.853166
    30  H    3.039662   6.007859   5.865539   6.152130   4.458894
    31  H    2.175897   6.035709   6.154084   5.932166   4.799313
                   21         22         23         24         25
    21  H    0.000000
    22  H    4.856425   0.000000
    23  H    4.367892   1.741333   0.000000
    24  H    4.295710   2.284343   2.882519   0.000000
    25  H    3.772969   2.874227   2.302704   1.737713   0.000000
    26  H    3.706903   6.713414   6.676936   4.891622   4.853166
    27  H    2.994522   5.932166   6.154084   4.487320   4.799313
    28  H    2.134168   6.152130   5.865539   4.805967   4.458894
    29  H    4.891622   5.910231   6.215806   3.706903   4.166743
    30  H    4.805967   4.403744   4.856206   2.134168   2.934566
    31  H    4.487320   4.906532   5.599500   2.994522   4.030516
                   26         27         28         29         30
    26  H    0.000000
    27  H    1.751781   0.000000
    28  H    1.747409   1.760369   0.000000
    29  H    2.371398   3.038814   3.645504   0.000000
    30  H    3.645504   3.784437   4.316550   1.747409   0.000000
    31  H    3.038814   2.600008   3.784437   1.751781   1.760369
                   31
    31  H    0.000000
 Stoichiometry    C11H19Cl
 Framework group  CS[SG(C5HCl),X(C6H18)]
 Deg. of freedom    47
 Full point group                 CS      NOp   2
 Largest Abelian subgroup         CS      NOp   2
 Largest concise Abelian subgroup CS      NOp   2
                         Standard orientation:                         
 ---------------------------------------------------------------------
 Center     Atomic      Atomic             Coordinates (Angstroms)
 Number     Number       Type             X           Y           Z
 ---------------------------------------------------------------------
      1          6           0       -2.385188   -1.202379    0.000000
      2          6           0       -1.696299    0.189118    0.000000
      3          6           0       -1.336455   -2.316585    0.000000
      4          6           0       -0.151553    0.039734    0.000000
      5          6           0       -0.456650   -2.174530    1.242435
      6          6           0        0.228886   -0.783489    1.255040
      7          6           0       -0.456650   -2.174530   -1.242435
      8          6           0        0.228886   -0.783489   -1.255040
      9          6           0        0.528815    1.454561    0.000000
     10          6           0        0.228886    2.295595    1.244912
     11         17           0        2.369831    1.239160    0.000000
     12          6           0        0.228886    2.295595   -1.244912
     13          1           0       -3.027494   -1.302943   -0.870653
     14          1           0       -3.027494   -1.302943    0.870653
     15          1           0       -2.017086    0.750428    0.870023
     16          1           0       -2.017086    0.750428   -0.870023
     17          1           0       -1.827731   -3.286424    0.000000
     18          1           0        0.290209   -2.963550    1.253526
     19          1           0       -1.058358   -2.306522    2.137789
     20          1           0        1.303995   -0.896671    1.305448
     21          1           0       -0.070052   -0.247063    2.147855
     22          1           0       -1.058358   -2.306522   -2.137789
     23          1           0        0.290209   -2.963550   -1.253526
     24          1           0       -0.070052   -0.247063   -2.147855
     25          1           0        1.303995   -0.896671   -1.305448
     26          1           0        0.766921    3.233578    1.185699
     27          1           0       -0.829990    2.522559    1.300004
     28          1           0        0.527461    1.801728    2.158275
     29          1           0        0.766921    3.233578   -1.185699
     30          1           0        0.527461    1.801728   -2.158275
     31          1           0       -0.829990    2.522559   -1.300004
 ---------------------------------------------------------------------
 Rotational constants (GHZ):      1.4180311      0.6109041      0.5795795
 Standard basis: 6-31+G(d,p) (6D, 7F)
 There are   193 symmetry adapted basis functions of A'  symmetry.
 There are   134 symmetry adapted basis functions of A"  symmetry.
 Integral buffers will be    131072 words long.
 Raffenetti 2 integral format.
 Two-electron integral symmetry is turned on.
   327 basis functions,   541 primitive gaussians,   327 cartesian basis functions
    51 alpha electrons       51 beta electrons
       nuclear repulsion energy       903.6996850498 Hartrees.
 NAtoms=   31 NActive=   31 NUniq=   19 SFac= 2.66D+00 NAtFMM=   60 NAOKFM=F Big=F
 One-electron integrals computed using PRISM.
 NBasis=   327 RedAO= T  NBF=   193   134
 NBsUse=   327 1.00D-06 NBFU=   193   134
 Harris functional with IExCor=  402 diagonalized for initial guess.
 ExpMin= 4.38D-02 ExpMax= 2.52D+04 ExpMxC= 3.78D+03 IAcc=2 IRadAn=         4 AccDes= 0.00D+00
 HarFok:  IExCor=  402 AccDes= 0.00D+00 IRadAn=         4 IDoV= 1
 ScaDFX=  1.000000  1.000000  1.000000  1.000000
 FoFCou: FMM=F IPFlag=           0 FMFlag=      100000 FMFlg1=           0
         NFxFlg=           0 DoJE=T BraDBF=F KetDBF=T FulRan=T
         Omega=  0.000000  0.000000  1.000000  0.000000  0.000000 ICntrl=     500 IOpCl=  0
         NMat0=    1 NMatS0=    1 NMatT0=    0 NMatD0=    1 NMtDS0=    0 NMtDT0=    0
         I1Cent=           4 NGrid=           0.
 Petite list used in FoFCou.
 Initial guess orbital symmetries:
       Occupied  (A') (A") (A') (A") (A') (A') (A") (A') (A') (A')
                 (A') (A') (A') (A') (A') (A") (A') (A') (A") (A')
                 (A') (A") (A') (A") (A') (A') (A') (A') (A") (A')
                 (A') (A') (A') (A") (A") (A") (A') (A") (A') (A")
                 (A') (A") (A') (A") (A") (A') (A') (A") (A') (A')
                 (A")
       Virtual   (A') (A') (A') (A") (A') (A') (A") (A') (A") (A')
                 (A') (A') (A') (A") (A") (A") (A') (A') (A") (A')
                 (A') (A") (A') (A") (A') (A") (A') (A") (A') (A')
                 (A") (A') (A') (A") (A') (A') (A") (A') (A') (A")
                 (A') (A") (A") (A') (A") (A') (A') (A") (A') (A')
                 (A") (A") (A') (A") (A') (A") (A') (A') (A') (A")
                 (A') (A") (A') (A') (A") (A") (A') (A') (A') (A")
                 (A') (A") (A') (A') (A") (A') (A") (A') (A') (A')
                 (A') (A") (A') (A") (A') (A') (A') (A") (A") (A')
                 (A') (A") (A') (A') (A') (A") (A') (A") (A") (A')
                 (A') (A") (A') (A') (A") (A") (A') (A") (A') (A')
                 (A") (A') (A") (A") (A") (A') (A") (A') (A") (A')
                 (A') (A") (A') (A') (A") (A') (A") (A') (A') (A")
                 (A') (A') (A") (A') (A') (A") (A') (A") (A') (A')
                 (A') (A") (A') (A") (A") (A') (A") (A") (A') (A')
                 (A') (A") (A") (A') (A") (A') (A") (A") (A') (A")
                 (A') (A') (A") (A') (A') (A") (A') (A') (A") (A")
                 (A') (A') (A') (A") (A') (A') (A") (A') (A") (A')
                 (A") (A') (A') (A") (A') (A") (A') (A') (A") (A')
                 (A') (A") (A") (A') (A") (A') (A") (A") (A') (A")
                 (A") (A') (A') (A") (A') (A") (A") (A') (A") (A')
                 (A') (A") (A') (A") (A') (A') (A") (A") (A') (A')
                 (A') (A") (A') (A") (A") (A') (A") (A') (A") (A')
                 (A') (A') (A") (A') (A') (A") (A") (A') (A") (A')
                 (A") (A') (A') (A") (A') (A') (A") (A') (A') (A")
                 (A') (A") (A') (A") (A") (A') (A') (A") (A") (A')
                 (A') (A") (A') (A") (A') (A') (A") (A') (A') (A")
                 (A') (A') (A') (A") (A') (A')
 The electronic state of the initial guess is 1-A'.
 Requested convergence on RMS density matrix=1.00D-08 within 128 cycles.
 Requested convergence on MAX density matrix=1.00D-06.
 Requested convergence on             energy=1.00D-06.
 No special actions if energy rises.
 SCF Done:  E(RB3LYP) =  -890.856646671     A.U. after   14 cycles
             Convg  =    0.2814D-08             -V/T =  2.0060

 **********************************************************************

            Population analysis using the SCF density.

 **********************************************************************

 Orbital symmetries:
       Occupied  (A') (A') (A') (A') (A") (A') (A') (A') (A") (A')
                 (A") (A') (A') (A') (A') (A") (A') (A') (A') (A')
                 (A") (A') (A") (A') (A') (A") (A') (A') (A') (A")
                 (A') (A') (A') (A") (A") (A") (A') (A") (A') (A")
                 (A') (A") (A') (A") (A') (A") (A') (A") (A') (A')
                 (A")
       Virtual   (A') (A') (A') (A") (A') (A') (A") (A') (A") (A')
                 (A') (A") (A') (A') (A') (A") (A") (A') (A") (A')
                 (A') (A") (A') (A") (A') (A') (A") (A") (A') (A")
                 (A') (A') (A") (A') (A") (A') (A") (A') (A") (A')
                 (A') (A') (A') (A") (A') (A") (A') (A') (A") (A")
                 (A') (A') (A") (A') (A') (A") (A") (A') (A') (A")
                 (A') (A') (A") (A') (A') (A") (A') (A') (A") (A')
                 (A") (A") (A') (A") (A') (A') (A") (A') (A') (A')
                 (A') (A") (A') (A") (A') (A") (A') (A') (A') (A")
                 (A') (A") (A') (A') (A") (A') (A') (A") (A') (A')
                 (A") (A') (A") (A') (A") (A") (A') (A") (A') (A')
                 (A") (A') (A") (A') (A") (A") (A") (A') (A") (A')
                 (A') (A") (A') (A") (A') (A') (A") (A') (A') (A')
                 (A") (A') (A') (A") (A') (A") (A') (A') (A") (A')
                 (A') (A') (A") (A") (A") (A') (A") (A') (A') (A")
                 (A') (A") (A") (A') (A") (A') (A") (A") (A') (A')
                 (A") (A') (A') (A") (A') (A") (A') (A') (A") (A')
                 (A") (A') (A') (A') (A") (A') (A") (A') (A") (A')
                 (A") (A') (A') (A") (A') (A") (A') (A') (A") (A')
                 (A") (A') (A") (A') (A") (A') (A") (A") (A') (A")
                 (A") (A') (A') (A") (A') (A") (A") (A') (A") (A')
                 (A") (A') (A') (A") (A') (A') (A") (A") (A') (A')
                 (A') (A") (A') (A") (A") (A') (A') (A') (A") (A")
                 (A') (A') (A") (A') (A") (A') (A") (A') (A") (A')
                 (A") (A') (A') (A") (A') (A') (A") (A') (A') (A")
                 (A') (A") (A') (A") (A') (A") (A") (A') (A") (A')
                 (A') (A") (A") (A') (A') (A') (A') (A') (A") (A")
                 (A') (A') (A') (A') (A") (A')
 The electronic state is 1-A'.
 Alpha  occ. eigenvalues -- -101.52303 -10.26009 -10.20713 -10.18527 -10.18459
 Alpha  occ. eigenvalues --  -10.18458 -10.18416 -10.18140 -10.17759 -10.17758
 Alpha  occ. eigenvalues --  -10.17644 -10.17644  -9.43857  -7.20202  -7.19311
 Alpha  occ. eigenvalues --   -7.19302  -0.88052  -0.84538  -0.76977  -0.74644
 Alpha  occ. eigenvalues --   -0.74380  -0.73978  -0.70258  -0.61813  -0.61398
 Alpha  occ. eigenvalues --   -0.61334  -0.55521  -0.50541  -0.48331  -0.48279
 Alpha  occ. eigenvalues --   -0.48062  -0.45648  -0.43493  -0.43313  -0.41232
 Alpha  occ. eigenvalues --   -0.40581  -0.39551  -0.38080  -0.37602  -0.37536
 Alpha  occ. eigenvalues --   -0.36556  -0.36432  -0.35627  -0.34939  -0.34716
 Alpha  occ. eigenvalues --   -0.32289  -0.30230  -0.29137  -0.29091  -0.28222
 Alpha  occ. eigenvalues --   -0.28192
 Alpha virt. eigenvalues --   -0.00618   0.00937   0.01288   0.01635   0.02239
 Alpha virt. eigenvalues --    0.03165   0.03456   0.03681   0.03929   0.04564
 Alpha virt. eigenvalues --    0.05445   0.06332   0.06522   0.06813   0.07645
 Alpha virt. eigenvalues --    0.07860   0.08863   0.09871   0.10615   0.10866
 Alpha virt. eigenvalues --    0.11634   0.11768   0.11845   0.12550   0.13207
 Alpha virt. eigenvalues --    0.13598   0.13874   0.14890   0.14954   0.15543
 Alpha virt. eigenvalues --    0.15594   0.16092   0.16712   0.17138   0.17287
 Alpha virt. eigenvalues --    0.17545   0.17800   0.18247   0.18513   0.18860
 Alpha virt. eigenvalues --    0.19089   0.20159   0.21077   0.21145   0.21360
 Alpha virt. eigenvalues --    0.21978   0.22601   0.23158   0.23943   0.24166
 Alpha virt. eigenvalues --    0.24225   0.25589   0.25629   0.25919   0.26448
 Alpha virt. eigenvalues --    0.26641   0.27618   0.27868   0.28821   0.29207
 Alpha virt. eigenvalues --    0.29691   0.30508   0.31523   0.31870   0.32334
 Alpha virt. eigenvalues --    0.32851   0.33350   0.34786   0.36233   0.36887
 Alpha virt. eigenvalues --    0.37173   0.38058   0.38493   0.40334   0.40499
 Alpha virt. eigenvalues --    0.42731   0.43014   0.45224   0.46451   0.53626
 Alpha virt. eigenvalues --    0.59850   0.61655   0.63205   0.63922   0.64919
 Alpha virt. eigenvalues --    0.66943   0.67035   0.67894   0.68249   0.68281
 Alpha virt. eigenvalues --    0.69762   0.70038   0.71115   0.72357   0.72964
 Alpha virt. eigenvalues --    0.74590   0.74780   0.75067   0.76931   0.78678
 Alpha virt. eigenvalues --    0.78863   0.80863   0.81023   0.82411   0.85850
 Alpha virt. eigenvalues --    0.85964   0.86056   0.87474   0.88062   0.89262
 Alpha virt. eigenvalues --    0.91619   0.92115   0.93299   0.94401   0.95123
 Alpha virt. eigenvalues --    0.95981   0.96732   0.98260   0.99240   0.99450
 Alpha virt. eigenvalues --    1.00682   1.02470   1.04869   1.05455   1.05462
 Alpha virt. eigenvalues --    1.06309   1.08191   1.09055   1.10693   1.12572
 Alpha virt. eigenvalues --    1.12797   1.12937   1.14648   1.15676   1.16615
 Alpha virt. eigenvalues --    1.17892   1.19084   1.19736   1.20132   1.23267
 Alpha virt. eigenvalues --    1.25809   1.27735   1.28175   1.34633   1.36636
 Alpha virt. eigenvalues --    1.37599   1.42824   1.47081   1.50155   1.50159
 Alpha virt. eigenvalues --    1.52066   1.54160   1.56732   1.61070   1.65480
 Alpha virt. eigenvalues --    1.70031   1.72847   1.74384   1.76218   1.77657
 Alpha virt. eigenvalues --    1.78014   1.79363   1.81504   1.84149   1.84404
 Alpha virt. eigenvalues --    1.87052   1.88322   1.89359   1.89423   1.92161
 Alpha virt. eigenvalues --    1.92372   1.93826   1.95890   1.96120   1.96774
 Alpha virt. eigenvalues --    1.97908   2.00155   2.01509   2.03279   2.04161
 Alpha virt. eigenvalues --    2.04895   2.05078   2.07754   2.08310   2.09447
 Alpha virt. eigenvalues --    2.13763   2.13965   2.14811   2.15291   2.17738
 Alpha virt. eigenvalues --    2.18486   2.19064   2.25578   2.25929   2.27468
 Alpha virt. eigenvalues --    2.28052   2.31435   2.34324   2.34548   2.37377
 Alpha virt. eigenvalues --    2.38944   2.40307   2.43577   2.43661   2.44904
 Alpha virt. eigenvalues --    2.45420   2.45923   2.47551   2.49168   2.50287
 Alpha virt. eigenvalues --    2.53100   2.54070   2.58479   2.59910   2.63054
 Alpha virt. eigenvalues --    2.64405   2.64561   2.65667   2.66956   2.68809
 Alpha virt. eigenvalues --    2.70640   2.72101   2.73359   2.76104   2.77968
 Alpha virt. eigenvalues --    2.78518   2.80604   2.80897   2.80928   2.81632
 Alpha virt. eigenvalues --    2.82818   2.85383   2.86449   2.86882   2.88433
 Alpha virt. eigenvalues --    2.88467   2.90659   2.93354   2.93787   2.99164
 Alpha virt. eigenvalues --    2.99854   3.00704   3.08027   3.08969   3.12515
 Alpha virt. eigenvalues --    3.31740   3.31900   3.32662   3.34483   3.34931
 Alpha virt. eigenvalues --    3.43720   3.44553   3.44667   3.46840   3.48268
 Alpha virt. eigenvalues --    3.48543   3.50442   3.50822   3.51332   3.54305
 Alpha virt. eigenvalues --    3.54515   3.60021   3.61940   3.62130   4.30969
 Alpha virt. eigenvalues --    4.43001   4.49605   4.51124   4.51176   4.56846
 Alpha virt. eigenvalues --    4.67694   4.71366   4.74945   4.90582   4.90803
 Alpha virt. eigenvalues --    5.11766
          Condensed to atoms (all electrons):
              1          2          3          4          5          6
     1  C    5.956073  -1.014740   0.465719  -0.222453  -0.355100   0.567050
     2  C   -1.014740   9.696699  -0.188816  -0.134414   0.515932  -1.758833
     3  C    0.465719  -0.188816   5.500350  -0.510413   0.356515   0.015635
     4  C   -0.222453  -0.134414  -0.510413  14.776302   0.265327  -2.277343
     5  C   -0.355100   0.515932   0.356515   0.265327   6.026454  -1.134616
     6  C    0.567050  -1.758833   0.015635  -2.277343  -1.134616  10.275524
     7  C   -0.355100   0.515932   0.356515   0.265327  -0.305918   0.405888
     8  C    0.567050  -1.758833   0.015635  -2.277343   0.405888  -1.012589
     9  C    0.117424  -0.342703  -0.122601  -5.417534  -0.156039   1.022354
    10  C   -0.050802   0.119895  -0.029504   0.680245  -0.016615   0.048430
    11  Cl   0.013387  -0.173013  -0.029134   0.537692   0.013815  -0.106243
    12  C   -0.050802   0.119895  -0.029504   0.680245   0.030368  -0.569746
    13  H    0.445231  -0.075217  -0.048125  -0.013167   0.018632  -0.007174
    14  H    0.445231  -0.075217  -0.048125  -0.013167  -0.026556   0.036082
    15  H   -0.015700   0.462452   0.022215  -0.093166  -0.002145  -0.022506
    16  H   -0.015700   0.462452   0.022215  -0.093166   0.001168   0.012397
    17  H   -0.040999   0.014466   0.300814   0.050163  -0.040524   0.014046
    18  H    0.016589   0.000486  -0.044872  -0.005915   0.452383  -0.088170
    19  H   -0.028279   0.030866  -0.041181  -0.011574   0.437246  -0.069347
    20  H    0.000944  -0.001855   0.021545  -0.101634  -0.030111   0.492547
    21  H   -0.001601  -0.006450   0.018540  -0.069059  -0.014596   0.419970
    22  H   -0.028279   0.030866  -0.041181  -0.011574   0.019586  -0.006609
    23  H    0.016589   0.000486  -0.044872  -0.005915  -0.029796   0.032717
    24  H   -0.001601  -0.006450   0.018540  -0.069059  -0.000963   0.018256
    25  H    0.000944  -0.001855   0.021545  -0.101634  -0.001771  -0.020241
    26  H   -0.001326   0.010503   0.000191  -0.025370  -0.000236   0.006302
    27  H   -0.003457  -0.044920  -0.001839   0.081923   0.004303   0.001689
    28  H    0.001585  -0.008839   0.000175   0.086489  -0.003461  -0.030745
    29  H   -0.001326   0.010503   0.000191  -0.025370  -0.000204  -0.012372
    30  H    0.001585  -0.008839   0.000175   0.086489  -0.001309   0.002278
    31  H   -0.003457  -0.044920  -0.001839   0.081923   0.000089  -0.000685
              7          8          9         10         11         12
     1  C   -0.355100   0.567050   0.117424  -0.050802   0.013387  -0.050802
     2  C    0.515932  -1.758833  -0.342703   0.119895  -0.173013   0.119895
     3  C    0.356515   0.015635  -0.122601  -0.029504  -0.029134  -0.029504
     4  C    0.265327  -2.277343  -5.417534   0.680245   0.537692   0.680245
     5  C   -0.305918   0.405888  -0.156039  -0.016615   0.013815   0.030368
     6  C    0.405888  -1.012589   1.022354   0.048430  -0.106243  -0.569746
     7  C    6.026454  -1.134616  -0.156039   0.030368   0.013815  -0.016615
     8  C   -1.134616  10.275524   1.022354  -0.569746  -0.106243   0.048430
     9  C   -0.156039   1.022354  14.053218  -1.439067  -0.460587  -1.439067
    10  C    0.030368  -0.569746  -1.439067   6.644195  -0.036630  -0.303651
    11  Cl   0.013815  -0.106243  -0.460587  -0.036630  17.388018  -0.036630
    12  C   -0.016615   0.048430  -1.439067  -0.303651  -0.036630   6.644195
    13  H   -0.026556   0.036082  -0.005302  -0.002065   0.000163   0.000935
    14  H    0.018632  -0.007174  -0.005302   0.000935   0.000163  -0.002065
    15  H    0.001168   0.012397  -0.013844  -0.029129  -0.000363  -0.001438
    16  H   -0.002145  -0.022506  -0.013844  -0.001438  -0.000363  -0.029129
    17  H   -0.040524   0.014046   0.015285   0.000230  -0.000124   0.000230
    18  H   -0.029796   0.032717  -0.010379  -0.000963   0.000183   0.000274
    19  H    0.019586  -0.006609  -0.006441  -0.000957  -0.000458   0.000326
    20  H   -0.001771  -0.020241  -0.012815  -0.011274  -0.005479   0.001732
    21  H   -0.000963   0.018256  -0.031360  -0.016841  -0.000209  -0.000380
    22  H    0.437246  -0.069347  -0.006441   0.000326  -0.000458  -0.000957
    23  H    0.452383  -0.088170  -0.010379   0.000274   0.000183  -0.000963
    24  H   -0.014596   0.419970  -0.031360  -0.000380  -0.000209  -0.016841
    25  H   -0.030111   0.492547  -0.012815   0.001732  -0.005479  -0.011274
    26  H   -0.000204  -0.012372  -0.082156   0.469167  -0.000218  -0.012041
    27  H    0.000089  -0.000685  -0.140231   0.447769   0.022074  -0.019774
    28  H   -0.001309   0.002278  -0.220426   0.538030  -0.010166   0.002720
    29  H   -0.000236   0.006302  -0.082156  -0.012041  -0.000218   0.469167
    30  H   -0.003461  -0.030745  -0.220426   0.002720  -0.010166   0.538030
    31  H    0.004303   0.001689  -0.140231  -0.019774   0.022074   0.447769
             13         14         15         16         17         18
     1  C    0.445231   0.445231  -0.015700  -0.015700  -0.040999   0.016589
     2  C   -0.075217  -0.075217   0.462452   0.462452   0.014466   0.000486
     3  C   -0.048125  -0.048125   0.022215   0.022215   0.300814  -0.044872
     4  C   -0.013167  -0.013167  -0.093166  -0.093166   0.050163  -0.005915
     5  C    0.018632  -0.026556  -0.002145   0.001168  -0.040524   0.452383
     6  C   -0.007174   0.036082  -0.022506   0.012397   0.014046  -0.088170
     7  C   -0.026556   0.018632   0.001168  -0.002145  -0.040524  -0.029796
     8  C    0.036082  -0.007174   0.012397  -0.022506   0.014046   0.032717
     9  C   -0.005302  -0.005302  -0.013844  -0.013844   0.015285  -0.010379
    10  C   -0.002065   0.000935  -0.029129  -0.001438   0.000230  -0.000963
    11  Cl   0.000163   0.000163  -0.000363  -0.000363  -0.000124   0.000183
    12  C    0.000935  -0.002065  -0.001438  -0.029129   0.000230   0.000274
    13  H    0.580549  -0.033387   0.004057  -0.011814  -0.003664  -0.000189
    14  H   -0.033387   0.580549  -0.011814   0.004057  -0.003664   0.000087
    15  H    0.004057  -0.011814   0.583467  -0.036936  -0.000152  -0.000003
    16  H   -0.011814   0.004057  -0.036936   0.583467  -0.000152   0.000015
    17  H   -0.003664  -0.003664  -0.000152  -0.000152   0.618019  -0.003502
    18  H   -0.000189   0.000087  -0.000003   0.000015  -0.003502   0.579087
    19  H    0.000080   0.003315  -0.000033   0.000004  -0.003771  -0.033062
    20  H    0.000014   0.000001   0.000110  -0.000168  -0.000137  -0.010920
    21  H   -0.000001  -0.000054   0.002834   0.000117  -0.000159   0.004170
    22  H    0.003315   0.000080   0.000004  -0.000033  -0.003771   0.000109
    23  H    0.000087  -0.000189   0.000015  -0.000003  -0.003502   0.003557
    24  H   -0.000054  -0.000001   0.000117   0.002834  -0.000159   0.000004
    25  H    0.000001   0.000014  -0.000168   0.000110  -0.000137  -0.000059
    26  H    0.000000   0.000000   0.000071  -0.000013   0.000000   0.000000
    27  H   -0.000001   0.000004  -0.000354  -0.000217   0.000000   0.000000
    28  H    0.000000   0.000002  -0.000104   0.000051   0.000000   0.000000
    29  H    0.000000   0.000000  -0.000013   0.000071   0.000000   0.000000
    30  H    0.000002   0.000000   0.000051  -0.000104   0.000000   0.000000
    31  H    0.000004  -0.000001  -0.000217  -0.000354   0.000000   0.000000
             19         20         21         22         23         24
     1  C   -0.028279   0.000944  -0.001601  -0.028279   0.016589  -0.001601
     2  C    0.030866  -0.001855  -0.006450   0.030866   0.000486  -0.006450
     3  C   -0.041181   0.021545   0.018540  -0.041181  -0.044872   0.018540
     4  C   -0.011574  -0.101634  -0.069059  -0.011574  -0.005915  -0.069059
     5  C    0.437246  -0.030111  -0.014596   0.019586  -0.029796  -0.000963
     6  C   -0.069347   0.492547   0.419970  -0.006609   0.032717   0.018256
     7  C    0.019586  -0.001771  -0.000963   0.437246   0.452383  -0.014596
     8  C   -0.006609  -0.020241   0.018256  -0.069347  -0.088170   0.419970
     9  C   -0.006441  -0.012815  -0.031360  -0.006441  -0.010379  -0.031360
    10  C   -0.000957  -0.011274  -0.016841   0.000326   0.000274  -0.000380
    11  Cl  -0.000458  -0.005479  -0.000209  -0.000458   0.000183  -0.000209
    12  C    0.000326   0.001732  -0.000380  -0.000957  -0.000963  -0.016841
    13  H    0.000080   0.000014  -0.000001   0.003315   0.000087  -0.000054
    14  H    0.003315   0.000001  -0.000054   0.000080  -0.000189  -0.000001
    15  H   -0.000033   0.000110   0.002834   0.000004   0.000015   0.000117
    16  H    0.000004  -0.000168   0.000117  -0.000033  -0.000003   0.002834
    17  H   -0.003771  -0.000137  -0.000159  -0.003771  -0.003502  -0.000159
    18  H   -0.033062  -0.010920   0.004170   0.000109   0.003557   0.000004
    19  H    0.583336   0.003664  -0.012057  -0.000194   0.000109   0.000015
    20  H    0.003664   0.541641  -0.033665  -0.000002  -0.000059   0.000072
    21  H   -0.012057  -0.033665   0.591421   0.000015   0.000004  -0.000176
    22  H   -0.000194  -0.000002   0.000015   0.583336  -0.033062  -0.012057
    23  H    0.000109  -0.000059   0.000004  -0.033062   0.579087   0.004170
    24  H    0.000015   0.000072  -0.000176  -0.012057   0.004170   0.591421
    25  H   -0.000002   0.002256   0.000072   0.003664  -0.010920  -0.033665
    26  H    0.000000  -0.000017   0.000078   0.000000   0.000000  -0.000002
    27  H    0.000001   0.000049  -0.000309   0.000000   0.000000  -0.000009
    28  H    0.000011   0.000111   0.000025   0.000000   0.000000   0.000001
    29  H    0.000000  -0.000003  -0.000002   0.000000   0.000000   0.000078
    30  H    0.000000  -0.000010   0.000001   0.000011   0.000000   0.000025
    31  H    0.000000  -0.000002  -0.000009   0.000001   0.000000  -0.000309
             25         26         27         28         29         30
     1  C    0.000944  -0.001326  -0.003457   0.001585  -0.001326   0.001585
     2  C   -0.001855   0.010503  -0.044920  -0.008839   0.010503  -0.008839
     3  C    0.021545   0.000191  -0.001839   0.000175   0.000191   0.000175
     4  C   -0.101634  -0.025370   0.081923   0.086489  -0.025370   0.086489
     5  C   -0.001771  -0.000236   0.004303  -0.003461  -0.000204  -0.001309
     6  C   -0.020241   0.006302   0.001689  -0.030745  -0.012372   0.002278
     7  C   -0.030111  -0.000204   0.000089  -0.001309  -0.000236  -0.003461
     8  C    0.492547  -0.012372  -0.000685   0.002278   0.006302  -0.030745
     9  C   -0.012815  -0.082156  -0.140231  -0.220426  -0.082156  -0.220426
    10  C    0.001732   0.469167   0.447769   0.538030  -0.012041   0.002720
    11  Cl  -0.005479  -0.000218   0.022074  -0.010166  -0.000218  -0.010166
    12  C   -0.011274  -0.012041  -0.019774   0.002720   0.469167   0.538030
    13  H    0.000001   0.000000  -0.000001   0.000000   0.000000   0.000002
    14  H    0.000014   0.000000   0.000004   0.000002   0.000000   0.000000
    15  H   -0.000168   0.000071  -0.000354  -0.000104  -0.000013   0.000051
    16  H    0.000110  -0.000013  -0.000217   0.000051   0.000071  -0.000104
    17  H   -0.000137   0.000000   0.000000   0.000000   0.000000   0.000000
    18  H   -0.000059   0.000000   0.000000   0.000000   0.000000   0.000000
    19  H   -0.000002   0.000000   0.000001   0.000011   0.000000   0.000000
    20  H    0.002256  -0.000017   0.000049   0.000111  -0.000003  -0.000010
    21  H    0.000072   0.000078  -0.000309   0.000025  -0.000002   0.000001
    22  H    0.003664   0.000000   0.000000   0.000000   0.000000   0.000011
    23  H   -0.010920   0.000000   0.000000   0.000000   0.000000   0.000000
    24  H   -0.033665  -0.000002  -0.000009   0.000001   0.000078   0.000025
    25  H    0.541641  -0.000003  -0.000002  -0.000010  -0.000017   0.000111
    26  H   -0.000003   0.535285  -0.028494  -0.025691   0.003257   0.000125
    27  H   -0.000002  -0.028494   0.557925  -0.028246   0.000073   0.000089
    28  H   -0.000010  -0.025691  -0.028246   0.535103   0.000125  -0.000172
    29  H   -0.000017   0.003257   0.000073   0.000125   0.535285  -0.025691
    30  H    0.000111   0.000125   0.000089  -0.000172  -0.025691   0.535103
    31  H    0.000049   0.000073   0.000939   0.000089  -0.028494  -0.028246
             31
     1  C   -0.003457
     2  C   -0.044920
     3  C   -0.001839
     4  C    0.081923
     5  C    0.000089
     6  C   -0.000685
     7  C    0.004303
     8  C    0.001689
     9  C   -0.140231
    10  C   -0.019774
    11  Cl   0.022074
    12  C    0.447769
    13  H    0.000004
    14  H   -0.000001
    15  H   -0.000217
    16  H   -0.000354
    17  H    0.000000
    18  H    0.000000
    19  H    0.000000
    20  H   -0.000002
    21  H   -0.000009
    22  H    0.000001
    23  H    0.000000
    24  H   -0.000309
    25  H    0.000049
    26  H    0.000073
    27  H    0.000939
    28  H    0.000089
    29  H   -0.028494
    30  H   -0.028246
    31  H    0.557925
 Mulliken atomic charges:
              1
     1  C   -0.424674
     2  C   -0.345518
     3  C    0.045494
     4  C   -0.112853
     5  C   -0.427744
     6  C   -0.253945
     7  C   -0.427744
     8  C   -0.253945
     9  C    0.348911
    10  C   -0.443437
    11  Cl  -0.029181
    12  C   -0.443437
    13  H    0.137567
    14  H    0.137567
    15  H    0.139127
    16  H    0.139127
    17  H    0.117644
    18  H    0.138172
    19  H    0.135407
    20  H    0.165477
    21  H    0.132389
    22  H    0.135407
    23  H    0.138172
    24  H    0.132389
    25  H    0.165477
    26  H    0.163088
    27  H    0.151614
    28  H    0.162374
    29  H    0.163088
    30  H    0.162374
    31  H    0.151614
 Sum of Mulliken atomic charges =   0.00000
 Mulliken charges with hydrogens summed into heavy atoms:
              1
     1  C   -0.149541
     2  C   -0.067264
     3  C    0.163139
     4  C   -0.112853
     5  C   -0.154165
     6  C    0.043921
     7  C   -0.154165
     8  C    0.043921
     9  C    0.348911
    10  C    0.033639
    11  Cl  -0.029181
    12  C    0.033639
 Sum of Mulliken charges with hydrogens summed into heavy atoms =   0.00000
 Electronic spatial extent (au):  <R**2>=           2311.1286
 Charge=              0.0000 electrons
 Dipole moment (field-independent basis, Debye):
    X=             -2.3932    Y=             -0.0814    Z=              0.0000  Tot=              2.3945
 Quadrupole moment (field-independent basis, Debye-Ang):
   XX=            -89.7510   YY=            -82.4777   ZZ=            -83.1472
   XY=             -3.1053   XZ=              0.0000   YZ=              0.0000
 Traceless Quadrupole moment (field-independent basis, Debye-Ang):
   XX=             -4.6257   YY=              2.6476   ZZ=              1.9781
   XY=             -3.1053   XZ=              0.0000   YZ=              0.0000
 Octapole moment (field-independent basis, Debye-Ang**2):
  XXX=             -2.4449  YYY=              9.8771  ZZZ=              0.0000  XYY=              0.7894
  XXY=             -7.2910  XXZ=              0.0000  XZZ=              0.4301  YZZ=              3.4351
  YYZ=              0.0000  XYZ=              0.0000
 Hexadecapole moment (field-independent basis, Debye-Ang**3):
 XXXX=          -1089.8072 YYYY=          -1530.8032 ZZZZ=           -586.6784 XXXY=           -310.1912
 XXXZ=              0.0000 YYYX=           -288.6932 YYYZ=              0.0000 ZZZX=              0.0000
 ZZZY=              0.0000 XXYY=           -444.5867 XXZZ=           -275.0778 YYZZ=           -361.6054
 XXYZ=              0.0000 YYXZ=              0.0000 ZZXY=            -95.0433
 N-N= 9.036996850498D+02 E-N=-3.896227274395D+03  KE= 8.855339106325D+02
 Symmetry A'   KE= 7.133578461286D+02
 Symmetry A"   KE= 1.721760645039D+02
 1\1\GINC-XT24\SP\RB3LYP\6-31+G(d,p)\C11H19Cl1\GIANNIS\05-Jul-2018\0\\#
  b3lyp/6-31+g(d,p)\\bicyclooctyl-CMe2Cl\\0,1\C\C,1,1.5526854\C,1,1.530
 12938,2,110.39518548\C,2,1.55195225,1,110.8150624,3,0.,0\C,3,1.5290131
 4,1,109.07011995,2,59.28932023,0\C,4,1.54840413,2,107.20142155,1,-58.0
 4779314,0\C,3,1.52901314,1,109.07011995,2,-59.28932023,0\C,4,1.5484041
 3,2,107.20142155,1,58.04779314,0\C,4,1.56991594,2,110.15857953,1,180.,
 0\C,9,1.53202529,4,114.19813932,2,62.98277843,0\Cl,9,1.85357425,4,109.
 00883583,2,180.,0\C,9,1.53202529,4,114.19813932,2,-62.98277843,0\H,1,1
 .08660331,3,109.73987274,7,62.35882271,0\H,1,1.08660331,3,109.73987274
 ,7,179.06253682,0\H,2,1.08393415,1,109.43770205,3,-121.66126404,0\H,2,
 1.08393415,1,109.43770205,3,121.66126404,0\H,3,1.08717055,1,109.869151
 55,2,180.,0\H,5,1.08649617,3,109.65533876,1,179.83018039,0\H,5,1.08679
 952,3,109.85102317,1,63.11584252,0\H,6,1.08222479,4,109.7208388,2,-178
 .93727287,0\H,6,1.08362143,4,109.68498242,2,-62.02947762,0\H,7,1.08679
 952,3,109.85102317,1,-63.11584252,0\H,7,1.08649617,3,109.65533876,1,-1
 79.83018039,0\H,8,1.08362143,4,109.68498242,2,62.02947762,0\H,8,1.0822
 2479,4,109.7208388,2,178.93727287,0\H,10,1.08295889,9,109.49862806,4,1
 77.58982071,0\H,10,1.08432752,9,110.32652715,4,-63.85069931,0\H,10,1.0
 80409,9,112.45217658,4,57.83847789,0\H,12,1.08295889,9,109.49862806,4,
 -177.58982071,0\H,12,1.080409,9,112.45217658,4,-57.83847789,0\H,12,1.0
 8432752,9,110.32652715,4,63.85069931,0\\Version=AM64L-G09RevC.01\State
 =1-A'\HF=-890.8566467\RMSD=2.814e-09\Dipole=-0.8295948,0.,-0.4464217\Q
 uadrupole=-0.5386621,1.4706712,-0.9320091,0.,-3.5499101,0.\PG=CS [SG(C
 5H1Cl1),X(C6H18)]\\@


 YOU KNOW YOU'VE SPOKEN TOO LONG WHEN THE AUDIENCE STOPS LOOKING AT
 THEIR WATCHES AND STARTS SHAKING THEM.
 Job cpu time:  0 days  0 hours  7 minutes 40.4 seconds.
 File lengths (MBytes):  RWF=     76 Int=      0 D2E=      0 Chk=      5 Scr=      1
 Normal termination of Gaussian 09 at Thu Jul  5 18:00:18 2018.
