 Entering Gaussian System, Link 0=g09
 Input=ethanethiol-g.gjf
 Output=ethanethiol-g.out
 Initial command:
 /usr/local/g09/l1.exe /home/scratch/stylianakis/Gau-18842.inp -scrdir=/home/scratch/stylianakis/
 Entering Link 1 = /usr/local/g09/l1.exe PID=     18843.
  
 Copyright (c) 1988,1990,1992,1993,1995,1998,2003,2009, Gaussian, Inc.
                  All Rights Reserved.
  
 This is part of the Gaussian(R) 09 program.  It is based on
 the Gaussian(R) 03 system (copyright 2003, Gaussian, Inc.),
 the Gaussian(R) 98 system (copyright 1998, Gaussian, Inc.),
 the Gaussian(R) 94 system (copyright 1995, Gaussian, Inc.),
 the Gaussian 92(TM) system (copyright 1992, Gaussian, Inc.),
 the Gaussian 90(TM) system (copyright 1990, Gaussian, Inc.),
 the Gaussian 88(TM) system (copyright 1988, Gaussian, Inc.),
 the Gaussian 86(TM) system (copyright 1986, Carnegie Mellon
 University), and the Gaussian 82(TM) system (copyright 1983,
 Carnegie Mellon University). Gaussian is a federally registered
 trademark of Gaussian, Inc.
  
 This software contains proprietary and confidential information,
 including trade secrets, belonging to Gaussian, Inc.
  
 This software is provided under written license and may be
 used, copied, transmitted, or stored only in accord with that
 written license.
  
 The following legend is applicable only to US Government
 contracts under FAR:
  
                    RESTRICTED RIGHTS LEGEND
  
 Use, reproduction and disclosure by the US Government is
 subject to restrictions as set forth in subparagraphs (a)
 and (c) of the Commercial Computer Software - Restricted
 Rights clause in FAR 52.227-19.
  
 Gaussian, Inc.
 340 Quinnipiac St., Bldg. 40, Wallingford CT 06492
  
  
 ---------------------------------------------------------------
 Warning -- This program may not be used in any manner that
 competes with the business of Gaussian, Inc. or will provide
 assistance to any competitor of Gaussian, Inc.  The licensee
 of this program is prohibited from giving any competitor of
 Gaussian, Inc. access to this program.  By using this program,
 the user acknowledges that Gaussian, Inc. is engaged in the
 business of creating and licensing software in the field of
 computational chemistry and represents and warrants to the
 licensee that it is not a competitor of Gaussian, Inc. and that
 it will not use this program in any manner prohibited above.
 ---------------------------------------------------------------
  

 Cite this work as:
 Gaussian 09, Revision A.01,
 M. J. Frisch, G. W. Trucks, H. B. Schlegel, G. E. Scuseria, 
 M. A. Robb, J. R. Cheeseman, G. Scalmani, V. Barone, B. Mennucci, 
 G. A. Petersson, H. Nakatsuji, M. Caricato, X. Li, H. P. Hratchian, 
 A. F. Izmaylov, J. Bloino, G. Zheng, J. L. Sonnenberg, M. Hada, 
 M. Ehara, K. Toyota, R. Fukuda, J. Hasegawa, M. Ishida, T. Nakajima, 
 Y. Honda, O. Kitao, H. Nakai, T. Vreven, J. A. Montgomery, Jr., 
 J. E. Peralta, F. Ogliaro, M. Bearpark, J. J. Heyd, E. Brothers, 
 K. N. Kudin, V. N. Staroverov, R. Kobayashi, J. Normand, 
 K. Raghavachari, A. Rendell, J. C. Burant, S. S. Iyengar, J. Tomasi, 
 M. Cossi, N. Rega, J. M. Millam, M. Klene, J. E. Knox, J. B. Cross, 
 V. Bakken, C. Adamo, J. Jaramillo, R. Gomperts, R. E. Stratmann, 
 O. Yazyev, A. J. Austin, R. Cammi, C. Pomelli, J. W. Ochterski, 
 R. L. Martin, K. Morokuma, V. G. Zakrzewski, G. A. Voth, 
 P. Salvador, J. J. Dannenberg, S. Dapprich, A. D. Daniels, 
 O. Farkas, J. B. Foresman, J. V. Ortiz, J. Cioslowski, 
 and D. J. Fox, Gaussian, Inc., Wallingford CT, 2009.
 
 ******************************************
 Gaussian 09:  EM64L-G09RevA.01  8-May-2009
                19-Feb-2018 
 ******************************************
 %mem=8000Mb
 %nproc=4
 Will use up to    4 processors via shared memory.
 -------------------
 # b3lyp/6-31+g(d,p)
 -------------------
 1/38=1/1;
 2/12=2,17=6,18=5,40=1/2;
 3/5=1,6=6,7=111,11=2,16=1,25=1,30=1,74=-5/1,2,3;
 4//1;
 5/5=2,38=5/2;
 6/7=2,8=2,9=2,10=2,28=1/1;
 99/5=1,9=1/99;
 -----------------
 ethanethiol-g.hin
 -----------------
 Symbolic Z-matrix:
 Charge =  0 Multiplicity = 1
 C                    -0.38646  -1.34545  -0.1544 
 S                    -0.31211   0.54167  -0.36905 
 Xx                    0.84295   0.87412  -0.23018 
 Xx                   -0.55584   0.77896  -1.53017 
 H                    -1.0605    1.37819   0.37173 
 H                    -1.4262   -1.70458  -0.33466 
 H                     0.28651  -1.83381  -0.89679 
 C                     0.05988  -1.68211   1.2729 
 H                     0.03301  -2.78356   1.44208 
 H                     1.10326  -1.34097   1.46725 
 H                    -0.60791  -1.21269   2.03215 
 
                          Input orientation:                          
 ---------------------------------------------------------------------
 Center     Atomic      Atomic             Coordinates (Angstroms)
 Number     Number       Type             X           Y           Z
 ---------------------------------------------------------------------
      1          6           0       -0.386460   -1.345450   -0.154400
      2         16           0       -0.312110    0.541670   -0.369050
      3          1           0       -1.060500    1.378190    0.371730
      4          1           0       -1.426200   -1.704580   -0.334660
      5          1           0        0.286510   -1.833810   -0.896790
      6          6           0        0.059880   -1.682110    1.272900
      7          1           0        0.033010   -2.783560    1.442080
      8          1           0        1.103260   -1.340970    1.467250
      9          1           0       -0.607910   -1.212690    2.032150
 ---------------------------------------------------------------------
                    Distance matrix (angstroms):
                    1          2          3          4          5
     1  C    0.000000
     2  S    1.900743   0.000000
     3  H    2.854708   1.344845   0.000000
     4  H    1.114687   2.507592   3.183739   0.000000
     5  H    1.114687   2.505945   3.706821   1.807226   0.000000
     6  C    1.532888   2.789189   3.381242   2.189335   2.186762
     7  H    2.189261   3.802164   4.434138   2.539743   2.537046
     8  H    2.202052   2.986570   3.643604   3.126861   2.549246
     9  H    2.201742   2.988484   3.110384   2.552125   3.124815
                    6          7          8          9
     6  C    0.000000
     7  H    1.114691   0.000000
     8  H    1.114805   1.796423   0.000000
     9  H    1.114791   1.796272   1.806563   0.000000
 Stoichiometry    C2H6S
 Framework group  C1[X(C2H6S)]
 Deg. of freedom    21
 Full point group                 C1      NOp   1
 Largest Abelian subgroup         C1      NOp   1
 Largest concise Abelian subgroup C1      NOp   1
                         Standard orientation:                         
 ---------------------------------------------------------------------
 Center     Atomic      Atomic             Coordinates (Angstroms)
 Number     Number       Type             X           Y           Z
 ---------------------------------------------------------------------
      1          6           0       -0.569885    0.700279    0.079715
      2         16           0        1.157267   -0.077677   -0.076983
      3          1           0        1.617023   -0.987016    0.800704
      4          1           0       -0.660447    1.222489    1.060339
      5          1           0       -0.718053    1.450221   -0.731556
      6          6           0       -1.610515   -0.419670   -0.032307
      7          1           0       -2.642002   -0.005746    0.052778
      8          1           0       -1.542816   -0.945444   -1.013005
      9          1           0       -1.487573   -1.175324    0.778021
 ---------------------------------------------------------------------
 Rotational constants (GHZ):     26.1866133      5.2185708      4.6894749
 Standard basis: 6-31+G(d,p) (6D, 7F)
 There are    91 symmetry adapted basis functions of A   symmetry.
 Integral buffers will be    131072 words long.
 Raffenetti 2 integral format.
 Two-electron integral symmetry is turned on.
    91 basis functions,   162 primitive gaussians,    91 cartesian basis functions
    17 alpha electrons       17 beta electrons
       nuclear repulsion energy       104.9322151211 Hartrees.
 NAtoms=    9 NActive=    9 NUniq=    9 SFac= 7.50D-01 NAtFMM=   80 NAOKFM=F Big=F
 One-electron integrals computed using PRISM.
 NBasis=    91 RedAO= T  NBF=    91
 NBsUse=    91 1.00D-06 NBFU=    91
 Harris functional with IExCor=  402 diagonalized for initial guess.
 ExpMin= 4.05D-02 ExpMax= 2.19D+04 ExpMxC= 3.30D+03 IAcc=2 IRadAn=         0 AccDes= 0.00D+00
 HarFok:  IExCor=  402 AccDes= 0.00D+00 IRadAn=         0 IDoV= 1
 ScaDFX=  1.000000  1.000000  1.000000  1.000000
 FoFCou: FMM=F IPFlag=           0 FMFlag=      100000 FMFlg1=           0
         NFxFlg=           0 DoJE=T BraDBF=F KetDBF=T FulRan=T
         Omega=  0.000000  0.000000  1.000000  0.000000  0.000000 ICntrl=     500 IOpCl=  0
         NMat0=    1 NMatS0=    1 NMatT0=    0 NMatD0=    1 NMtDS0=    0 NMtDT0=    0
         I1Cent=           4 NGrid=           0.
 Petite list used in FoFCou.
 Initial guess orbital symmetries:
       Occupied  (A) (A) (A) (A) (A) (A) (A) (A) (A) (A) (A) (A)
                 (A) (A) (A) (A) (A)
       Virtual   (A) (A) (A) (A) (A) (A) (A) (A) (A) (A) (A) (A)
                 (A) (A) (A) (A) (A) (A) (A) (A) (A) (A) (A) (A)
                 (A) (A) (A) (A) (A) (A) (A) (A) (A) (A) (A) (A)
                 (A) (A) (A) (A) (A) (A) (A) (A) (A) (A) (A) (A)
                 (A) (A) (A) (A) (A) (A) (A) (A) (A) (A) (A) (A)
                 (A) (A) (A) (A) (A) (A) (A) (A) (A) (A) (A) (A)
                 (A) (A)
 The electronic state of the initial guess is 1-A.
 Requested convergence on RMS density matrix=1.00D-08 within 128 cycles.
 Requested convergence on MAX density matrix=1.00D-06.
 Requested convergence on             energy=1.00D-06.
 No special actions if energy rises.
 Keep R1 ints in memory in canonical form, NReq=9794056.
 SCF Done:  E(RB3LYP) =  -478.003852035     A.U. after   11 cycles
             Convg  =    0.6340D-08             -V/T =  2.0049

 **********************************************************************

            Population analysis using the SCF density.

 **********************************************************************

 Orbital symmetries:
       Occupied  (A) (A) (A) (A) (A) (A) (A) (A) (A) (A) (A) (A)
                 (A) (A) (A) (A) (A)
       Virtual   (A) (A) (A) (A) (A) (A) (A) (A) (A) (A) (A) (A)
                 (A) (A) (A) (A) (A) (A) (A) (A) (A) (A) (A) (A)
                 (A) (A) (A) (A) (A) (A) (A) (A) (A) (A) (A) (A)
                 (A) (A) (A) (A) (A) (A) (A) (A) (A) (A) (A) (A)
                 (A) (A) (A) (A) (A) (A) (A) (A) (A) (A) (A) (A)
                 (A) (A) (A) (A) (A) (A) (A) (A) (A) (A) (A) (A)
                 (A) (A)
 The electronic state is 1-A.
 Alpha  occ. eigenvalues --  -88.87368 -10.24549 -10.19982  -7.93555  -5.90095
 Alpha  occ. eigenvalues --   -5.89625  -5.89034  -0.79662  -0.70279  -0.61680
 Alpha  occ. eigenvalues --   -0.46826  -0.45309  -0.40835  -0.38152  -0.36877
 Alpha  occ. eigenvalues --   -0.29201  -0.23879
 Alpha virt. eigenvalues --   -0.02220   0.00260   0.02691   0.03814   0.04781
 Alpha virt. eigenvalues --    0.06813   0.07610   0.07822   0.08073   0.08572
 Alpha virt. eigenvalues --    0.11008   0.11503   0.12420   0.14419   0.17707
 Alpha virt. eigenvalues --    0.20248   0.22870   0.23756   0.29842   0.33440
 Alpha virt. eigenvalues --    0.45300   0.48357   0.51971   0.52594   0.57911
 Alpha virt. eigenvalues --    0.61554   0.64217   0.65024   0.68683   0.69949
 Alpha virt. eigenvalues --    0.77034   0.78552   0.86212   0.89749   0.90990
 Alpha virt. eigenvalues --    0.91673   0.95353   0.98958   1.04907   1.07030
 Alpha virt. eigenvalues --    1.17271   1.17925   1.35098   1.39345   1.48037
 Alpha virt. eigenvalues --    1.66006   1.77303   1.87105   2.00833   2.03036
 Alpha virt. eigenvalues --    2.04446   2.06190   2.07214   2.09736   2.11884
 Alpha virt. eigenvalues --    2.20731   2.30405   2.34534   2.42967   2.53765
 Alpha virt. eigenvalues --    2.57760   2.70136   2.73439   2.76197   2.81363
 Alpha virt. eigenvalues --    2.82278   3.17392   3.22775   3.34169   3.41593
 Alpha virt. eigenvalues --    3.46281   3.99109   4.31144   4.53518
          Condensed to atoms (all electrons):
              1          2          3          4          5          6
     1  C    5.484089   0.140812  -0.003972   0.340444   0.382986   0.079757
     2  S    0.140812  15.798773   0.256683  -0.038558  -0.026844   0.002629
     3  H   -0.003972   0.256683   0.672085  -0.001601   0.001221  -0.004423
     4  H    0.340444  -0.038558  -0.001601   0.559328  -0.028973  -0.007620
     5  H    0.382986  -0.026844   0.001221  -0.028973   0.519053  -0.033704
     6  C    0.079757   0.002629  -0.004423  -0.007620  -0.033704   5.265083
     7  H   -0.058226   0.014642   0.000006  -0.002527  -0.002014   0.391559
     8  H   -0.048625  -0.003362  -0.000253   0.004129  -0.004337   0.407136
     9  H   -0.041371  -0.010430   0.001148  -0.004782   0.003957   0.404180
              7          8          9
     1  C   -0.058226  -0.048625  -0.041371
     2  S    0.014642  -0.003362  -0.010430
     3  H    0.000006  -0.000253   0.001148
     4  H   -0.002527   0.004129  -0.004782
     5  H   -0.002014  -0.004337   0.003957
     6  C    0.391559   0.407136   0.404180
     7  H    0.568159  -0.028554  -0.028143
     8  H   -0.028554   0.531393  -0.025850
     9  H   -0.028143  -0.025850   0.547798
 Mulliken atomic charges:
              1
     1  C   -0.275894
     2  S   -0.134344
     3  H    0.079105
     4  H    0.180159
     5  H    0.188657
     6  C   -0.504596
     7  H    0.145097
     8  H    0.168324
     9  H    0.153493
 Sum of Mulliken atomic charges =   0.00000
 Mulliken charges with hydrogens summed into heavy atoms:
              1
     1  C    0.092921
     2  S   -0.055239
     6  C   -0.037682
 Sum of Mulliken charges with hydrogens summed into heavy atoms =   0.00000
 Electronic spatial extent (au):  <R**2>=            309.6004
 Charge=              0.0000 electrons
 Dipole moment (field-independent basis, Debye):
    X=             -1.7889    Y=             -0.0562    Z=              1.0387  Tot=              2.0694
 Quadrupole moment (field-independent basis, Debye-Ang):
   XX=            -29.3310   YY=            -27.2866   ZZ=            -27.9226
   XY=             -2.7468   XZ=              1.8048   YZ=             -1.6904
 Traceless Quadrupole moment (field-independent basis, Debye-Ang):
   XX=             -1.1509   YY=              0.8935   ZZ=              0.2575
   XY=             -2.7468   XZ=              1.8048   YZ=             -1.6904
 Octapole moment (field-independent basis, Debye-Ang**2):
  XXX=             -1.3993  YYY=              0.9470  ZZZ=              1.3729  XYY=             -0.4431
  XXY=             -4.2923  XXZ=              2.3808  XZZ=             -1.1164  YZZ=              0.5428
  YYZ=              0.7588  XYZ=             -1.8840
 Hexadecapole moment (field-independent basis, Debye-Ang**3):
 XXXX=           -309.2245 YYYY=            -88.7687 ZZZZ=            -54.3666 XXXY=            -14.6144
 XXXZ=              4.8522 YYYX=             -4.8765 YYYZ=             -3.8766 ZZZX=              2.4898
 ZZZY=             -1.6844 XXYY=            -65.2894 XXZZ=            -61.9165 YYZZ=            -21.5483
 XXYZ=             -3.4365 YYXZ=              2.0262 ZZXY=             -1.1493
 N-N= 1.049322151211D+02 E-N=-1.339898610257D+03  KE= 4.756509084315D+02
 1\1\GINC-ROCK\SP\RB3LYP\6-31+G(d,p)\C2H6S1\STYLIANAKIS\19-Feb-2018\0\\
 # b3lyp/6-31+g(d,p)\\ethanethiol-g.hin\\0,1\C,0,-0.38646,-1.34545,-0.1
 544\S,0,-0.31211,0.54167,-0.36905\X,0,0.84295,0.87412,-0.23018\X,0,-0.
 55584,0.77896,-1.53017\H,0,-1.0605,1.37819,0.37173\H,0,-1.4262,-1.7045
 8,-0.33466\H,0,0.28651,-1.83381,-0.89679\C,0,0.05988,-1.68211,1.2729\H
 ,0,0.03301,-2.78356,1.44208\H,0,1.10326,-1.34097,1.46725\H,0,-0.60791,
 -1.21269,2.03215\\Version=EM64L-G09RevA.01\State=1-A\HF=-478.003852\RM
 SD=6.340e-09\Dipole=-0.3045758,-0.6057036,0.4508115\Quadrupole=-0.0183
 008,1.2282928,-1.209992,-1.3963988,-0.7818245,2.0268397\PG=C01 [X(C2H6
 S1)]\\@


 YOU CANNOT THROW TO THE GROUND THE LETTERS OF
 THE GREEK ALPHABET AND PICK UP THE ILIAD.
        - RUFUS CHOATE, 1799-1859
 Job cpu time:  0 days  0 hours  0 minutes 31.9 seconds.
 File lengths (MBytes):  RWF=     10 Int=      0 D2E=      0 Chk=      1 Scr=      1
 Normal termination of Gaussian 09 at Mon Feb 19 01:31:54 2018.
