 Entering Gaussian System, Link 0=g09
 Input=ethanethiol-ecl.gjf
 Output=ethanethiol-ecl.out
 Initial command:
 /usr/local/g09/l1.exe /home/scratch/stylianakis/Gau-18810.inp -scrdir=/home/scratch/stylianakis/
 Entering Link 1 = /usr/local/g09/l1.exe PID=     18811.
  
 Copyright (c) 1988,1990,1992,1993,1995,1998,2003,2009, Gaussian, Inc.
                  All Rights Reserved.
  
 This is part of the Gaussian(R) 09 program.  It is based on
 the Gaussian(R) 03 system (copyright 2003, Gaussian, Inc.),
 the Gaussian(R) 98 system (copyright 1998, Gaussian, Inc.),
 the Gaussian(R) 94 system (copyright 1995, Gaussian, Inc.),
 the Gaussian 92(TM) system (copyright 1992, Gaussian, Inc.),
 the Gaussian 90(TM) system (copyright 1990, Gaussian, Inc.),
 the Gaussian 88(TM) system (copyright 1988, Gaussian, Inc.),
 the Gaussian 86(TM) system (copyright 1986, Carnegie Mellon
 University), and the Gaussian 82(TM) system (copyright 1983,
 Carnegie Mellon University). Gaussian is a federally registered
 trademark of Gaussian, Inc.
  
 This software contains proprietary and confidential information,
 including trade secrets, belonging to Gaussian, Inc.
  
 This software is provided under written license and may be
 used, copied, transmitted, or stored only in accord with that
 written license.
  
 The following legend is applicable only to US Government
 contracts under FAR:
  
                    RESTRICTED RIGHTS LEGEND
  
 Use, reproduction and disclosure by the US Government is
 subject to restrictions as set forth in subparagraphs (a)
 and (c) of the Commercial Computer Software - Restricted
 Rights clause in FAR 52.227-19.
  
 Gaussian, Inc.
 340 Quinnipiac St., Bldg. 40, Wallingford CT 06492
  
  
 ---------------------------------------------------------------
 Warning -- This program may not be used in any manner that
 competes with the business of Gaussian, Inc. or will provide
 assistance to any competitor of Gaussian, Inc.  The licensee
 of this program is prohibited from giving any competitor of
 Gaussian, Inc. access to this program.  By using this program,
 the user acknowledges that Gaussian, Inc. is engaged in the
 business of creating and licensing software in the field of
 computational chemistry and represents and warrants to the
 licensee that it is not a competitor of Gaussian, Inc. and that
 it will not use this program in any manner prohibited above.
 ---------------------------------------------------------------
  

 Cite this work as:
 Gaussian 09, Revision A.01,
 M. J. Frisch, G. W. Trucks, H. B. Schlegel, G. E. Scuseria, 
 M. A. Robb, J. R. Cheeseman, G. Scalmani, V. Barone, B. Mennucci, 
 G. A. Petersson, H. Nakatsuji, M. Caricato, X. Li, H. P. Hratchian, 
 A. F. Izmaylov, J. Bloino, G. Zheng, J. L. Sonnenberg, M. Hada, 
 M. Ehara, K. Toyota, R. Fukuda, J. Hasegawa, M. Ishida, T. Nakajima, 
 Y. Honda, O. Kitao, H. Nakai, T. Vreven, J. A. Montgomery, Jr., 
 J. E. Peralta, F. Ogliaro, M. Bearpark, J. J. Heyd, E. Brothers, 
 K. N. Kudin, V. N. Staroverov, R. Kobayashi, J. Normand, 
 K. Raghavachari, A. Rendell, J. C. Burant, S. S. Iyengar, J. Tomasi, 
 M. Cossi, N. Rega, J. M. Millam, M. Klene, J. E. Knox, J. B. Cross, 
 V. Bakken, C. Adamo, J. Jaramillo, R. Gomperts, R. E. Stratmann, 
 O. Yazyev, A. J. Austin, R. Cammi, C. Pomelli, J. W. Ochterski, 
 R. L. Martin, K. Morokuma, V. G. Zakrzewski, G. A. Voth, 
 P. Salvador, J. J. Dannenberg, S. Dapprich, A. D. Daniels, 
 O. Farkas, J. B. Foresman, J. V. Ortiz, J. Cioslowski, 
 and D. J. Fox, Gaussian, Inc., Wallingford CT, 2009.
 
 ******************************************
 Gaussian 09:  EM64L-G09RevA.01  8-May-2009
                19-Feb-2018 
 ******************************************
 %mem=8000Mb
 %nproc=4
 Will use up to    4 processors via shared memory.
 -------------------
 # b3lyp/6-31+g(d,p)
 -------------------
 1/38=1/1;
 2/12=2,17=6,18=5,40=1/2;
 3/5=1,6=6,7=111,11=2,16=1,25=1,30=1,74=-5/1,2,3;
 4//1;
 5/5=2,38=5/2;
 6/7=2,8=2,9=2,10=2,28=1/1;
 99/5=1,9=1/99;
 -------------------
 ethanethiol-ecl.hin
 -------------------
 Symbolic Z-matrix:
 Charge =  0 Multiplicity = 1
 C                    -0.43603  -1.27895  -0.31377 
 S                    -0.36731   0.60677  -0.55914 
 Xx                    0.78717   0.94436  -0.42814 
 Xx                   -0.61339   0.82432  -1.72363 
 H                    -1.11628   1.45421   0.16855 
 H                    -1.47575  -1.63372  -0.50266 
 H                     0.22737  -1.76569  -1.06579 
 C                     0.01236  -1.63137   1.11351 
 H                     0.28847  -0.74401   1.72764 
 H                    -0.79423  -2.16765   1.66518 
 H                     0.9002   -2.30525   1.10025 
 
                          Input orientation:                          
 ---------------------------------------------------------------------
 Center     Atomic      Atomic             Coordinates (Angstroms)
 Number     Number       Type             X           Y           Z
 ---------------------------------------------------------------------
      1          6           0       -0.436030   -1.278950   -0.313770
      2         16           0       -0.367310    0.606770   -0.559140
      3          1           0       -1.116280    1.454210    0.168550
      4          1           0       -1.475750   -1.633720   -0.502660
      5          1           0        0.227370   -1.765690   -1.065790
      6          6           0        0.012360   -1.631370    1.113510
      7          1           0        0.288470   -0.744010    1.727640
      8          1           0       -0.794230   -2.167650    1.665180
      9          1           0        0.900200   -2.305250    1.100250
 ---------------------------------------------------------------------
                    Distance matrix (angstroms):
                    1          2          3          4          5
     1  C    0.000000
     2  S    1.902858   0.000000
     3  H    2.857540   1.344858   0.000000
     4  H    1.114701   2.500325   3.180417   0.000000
     5  H    1.114697   2.497780   3.700912   1.798652   0.000000
     6  C    1.537004   2.819783   3.418711   2.196926   2.193996
     7  H    2.231236   2.735693   3.039121   2.979647   2.975032
     8  H    2.198713   3.581517   3.932110   2.334327   2.943371
     9  H    2.199603   3.583297   4.366669   2.943707   2.331428
                    6          7          8          9
     6  C    0.000000
     7  H    1.113912   0.000000
     8  H    1.114685   1.789662   0.000000
     9  H    1.114697   1.790336   1.791416   0.000000
 Stoichiometry    C2H6S
 Framework group  C1[X(C2H6S)]
 Deg. of freedom    21
 Full point group                 C1      NOp   1
 Largest Abelian subgroup         C1      NOp   1
 Largest concise Abelian subgroup C1      NOp   1
                         Standard orientation:                         
 ---------------------------------------------------------------------
 Center     Atomic      Atomic             Coordinates (Angstroms)
 Number     Number       Type             X           Y           Z
 ---------------------------------------------------------------------
      1          6           0       -0.564741    0.691233    0.079109
      2         16           0        1.167601   -0.080390   -0.077287
      3          1           0        1.632488   -0.987425    0.800101
      4          1           0       -0.640747    1.222053    1.056357
      5          1           0       -0.696627    1.449809   -0.726942
      6          6           0       -1.632636   -0.408651   -0.031505
      7          1           0       -1.210489   -1.428847   -0.179128
      8          1           0       -2.261637   -0.449296    0.887859
      9          1           0       -2.320332   -0.215553   -0.887273
 ---------------------------------------------------------------------
 Rotational constants (GHZ):     26.5671452      5.1185212      4.6165306
 Standard basis: 6-31+G(d,p) (6D, 7F)
 There are    91 symmetry adapted basis functions of A   symmetry.
 Integral buffers will be    131072 words long.
 Raffenetti 2 integral format.
 Two-electron integral symmetry is turned on.
    91 basis functions,   162 primitive gaussians,    91 cartesian basis functions
    17 alpha electrons       17 beta electrons
       nuclear repulsion energy       104.5766577057 Hartrees.
 NAtoms=    9 NActive=    9 NUniq=    9 SFac= 7.50D-01 NAtFMM=   80 NAOKFM=F Big=F
 One-electron integrals computed using PRISM.
 NBasis=    91 RedAO= T  NBF=    91
 NBsUse=    91 1.00D-06 NBFU=    91
 Harris functional with IExCor=  402 diagonalized for initial guess.
 ExpMin= 4.05D-02 ExpMax= 2.19D+04 ExpMxC= 3.30D+03 IAcc=2 IRadAn=         0 AccDes= 0.00D+00
 HarFok:  IExCor=  402 AccDes= 0.00D+00 IRadAn=         0 IDoV= 1
 ScaDFX=  1.000000  1.000000  1.000000  1.000000
 FoFCou: FMM=F IPFlag=           0 FMFlag=      100000 FMFlg1=           0
         NFxFlg=           0 DoJE=T BraDBF=F KetDBF=T FulRan=T
         Omega=  0.000000  0.000000  1.000000  0.000000  0.000000 ICntrl=     500 IOpCl=  0
         NMat0=    1 NMatS0=    1 NMatT0=    0 NMatD0=    1 NMtDS0=    0 NMtDT0=    0
         I1Cent=           4 NGrid=           0.
 Petite list used in FoFCou.
 Initial guess orbital symmetries:
       Occupied  (A) (A) (A) (A) (A) (A) (A) (A) (A) (A) (A) (A)
                 (A) (A) (A) (A) (A)
       Virtual   (A) (A) (A) (A) (A) (A) (A) (A) (A) (A) (A) (A)
                 (A) (A) (A) (A) (A) (A) (A) (A) (A) (A) (A) (A)
                 (A) (A) (A) (A) (A) (A) (A) (A) (A) (A) (A) (A)
                 (A) (A) (A) (A) (A) (A) (A) (A) (A) (A) (A) (A)
                 (A) (A) (A) (A) (A) (A) (A) (A) (A) (A) (A) (A)
                 (A) (A) (A) (A) (A) (A) (A) (A) (A) (A) (A) (A)
                 (A) (A)
 The electronic state of the initial guess is 1-A.
 Requested convergence on RMS density matrix=1.00D-08 within 128 cycles.
 Requested convergence on MAX density matrix=1.00D-06.
 Requested convergence on             energy=1.00D-06.
 No special actions if energy rises.
 Keep R1 ints in memory in canonical form, NReq=9794056.
 SCF Done:  E(RB3LYP) =  -477.998138289     A.U. after   11 cycles
             Convg  =    0.5889D-08             -V/T =  2.0049

 **********************************************************************

            Population analysis using the SCF density.

 **********************************************************************

 Orbital symmetries:
       Occupied  (A) (A) (A) (A) (A) (A) (A) (A) (A) (A) (A) (A)
                 (A) (A) (A) (A) (A)
       Virtual   (A) (A) (A) (A) (A) (A) (A) (A) (A) (A) (A) (A)
                 (A) (A) (A) (A) (A) (A) (A) (A) (A) (A) (A) (A)
                 (A) (A) (A) (A) (A) (A) (A) (A) (A) (A) (A) (A)
                 (A) (A) (A) (A) (A) (A) (A) (A) (A) (A) (A) (A)
                 (A) (A) (A) (A) (A) (A) (A) (A) (A) (A) (A) (A)
                 (A) (A) (A) (A) (A) (A) (A) (A) (A) (A) (A) (A)
                 (A) (A)
 The electronic state is 1-A.
 Alpha  occ. eigenvalues --  -88.87378 -10.24512 -10.19854  -7.93553  -5.90094
 Alpha  occ. eigenvalues --   -5.89628  -5.89028  -0.79497  -0.70317  -0.61760
 Alpha  occ. eigenvalues --   -0.46713  -0.45186  -0.40971  -0.38158  -0.36583
 Alpha  occ. eigenvalues --   -0.29090  -0.23789
 Alpha virt. eigenvalues --   -0.02412   0.00315   0.02646   0.03877   0.04680
 Alpha virt. eigenvalues --    0.06866   0.07295   0.07813   0.08116   0.08186
 Alpha virt. eigenvalues --    0.09934   0.11677   0.12348   0.14680   0.16700
 Alpha virt. eigenvalues --    0.22484   0.23464   0.25769   0.30218   0.31540
 Alpha virt. eigenvalues --    0.45455   0.48005   0.52164   0.52735   0.58178
 Alpha virt. eigenvalues --    0.62452   0.63697   0.66243   0.68203   0.72015
 Alpha virt. eigenvalues --    0.77816   0.78383   0.83424   0.87561   0.90556
 Alpha virt. eigenvalues --    0.92076   0.94897   0.98117   1.02656   1.08297
 Alpha virt. eigenvalues --    1.15481   1.16608   1.34534   1.37872   1.52458
 Alpha virt. eigenvalues --    1.66988   1.77100   1.86348   1.98220   1.99236
 Alpha virt. eigenvalues --    2.03477   2.08731   2.09503   2.12993   2.14258
 Alpha virt. eigenvalues --    2.18087   2.33191   2.33950   2.45302   2.56313
 Alpha virt. eigenvalues --    2.57153   2.66413   2.72472   2.74924   2.84007
 Alpha virt. eigenvalues --    2.86650   3.15062   3.25316   3.33315   3.40344
 Alpha virt. eigenvalues --    3.45221   3.98744   4.30347   4.55323
          Condensed to atoms (all electrons):
              1          2          3          4          5          6
     1  C    5.559811   0.108193  -0.006482   0.345111   0.393913   0.022948
     2  S    0.108193  15.831533   0.257984  -0.036204  -0.029658   0.019675
     3  H   -0.006482   0.257984   0.669656  -0.001586   0.001212  -0.001746
     4  H    0.345111  -0.036204  -0.001586   0.551644  -0.028483  -0.010949
     5  H    0.393913  -0.029658   0.001212  -0.028483   0.510445  -0.035630
     6  C    0.022948   0.019675  -0.001746  -0.010949  -0.035630   5.285218
     7  H   -0.057740  -0.013805  -0.000220   0.002653   0.001828   0.426616
     8  H   -0.055473   0.006093   0.000068  -0.008631   0.003035   0.410196
     9  H   -0.045766   0.011648   0.000006   0.002845  -0.007993   0.393957
              7          8          9
     1  C   -0.057740  -0.055473  -0.045766
     2  S   -0.013805   0.006093   0.011648
     3  H   -0.000220   0.000068   0.000006
     4  H    0.002653  -0.008631   0.002845
     5  H    0.001828   0.003035  -0.007993
     6  C    0.426616   0.410196   0.393957
     7  H    0.521110  -0.027766  -0.024966
     8  H   -0.027766   0.548230  -0.026766
     9  H   -0.024966  -0.026766   0.546121
 Mulliken atomic charges:
              1
     1  C   -0.264515
     2  S   -0.155459
     3  H    0.081108
     4  H    0.183600
     5  H    0.191330
     6  C   -0.510285
     7  H    0.172290
     8  H    0.151015
     9  H    0.150913
 Sum of Mulliken atomic charges =   0.00000
 Mulliken charges with hydrogens summed into heavy atoms:
              1
     1  C    0.110416
     2  S   -0.074350
     6  C   -0.036066
 Sum of Mulliken charges with hydrogens summed into heavy atoms =   0.00000
 Electronic spatial extent (au):  <R**2>=            313.2295
 Charge=              0.0000 electrons
 Dipole moment (field-independent basis, Debye):
    X=             -1.8257    Y=             -0.0820    Z=              1.0497  Tot=              2.1076
 Quadrupole moment (field-independent basis, Debye-Ang):
   XX=            -29.3899   YY=            -27.1501   ZZ=            -28.0211
   XY=             -2.7425   XZ=              1.8308   YZ=             -1.6704
 Traceless Quadrupole moment (field-independent basis, Debye-Ang):
   XX=             -1.2028   YY=              1.0369   ZZ=              0.1659
   XY=             -2.7425   XZ=              1.8308   YZ=             -1.6704
 Octapole moment (field-independent basis, Debye-Ang**2):
  XXX=             -1.1924  YYY=              0.2656  ZZZ=              1.8203  XYY=             -0.2926
  XXY=             -4.6571  XXZ=              2.3137  XZZ=             -1.7638  YZZ=              1.4030
  YYZ=              0.4691  XYZ=             -1.7466
 Hexadecapole moment (field-independent basis, Debye-Ang**3):
 XXXX=           -318.5685 YYYY=            -86.2624 ZZZZ=            -54.6285 XXXY=            -13.1901
 XXXZ=              5.6530 YYYX=             -4.6706 YYYZ=             -3.1476 ZZZX=              1.9196
 ZZZY=             -2.1732 XXYY=            -66.8677 XXZZ=            -60.1080 YYZZ=            -22.6628
 XXYZ=             -4.0725 YYXZ=              2.3087 ZZXY=             -2.1266
 N-N= 1.045766577057D+02 E-N=-1.339198079862D+03  KE= 4.756575144524D+02
 1\1\GINC-ROCK\SP\RB3LYP\6-31+G(d,p)\C2H6S1\STYLIANAKIS\19-Feb-2018\0\\
 # b3lyp/6-31+g(d,p)\\ethanethiol-ecl.hin\\0,1\C,0,-0.43603,-1.27895,-0
 .31377\S,0,-0.36731,0.60677,-0.55914\X,0,0.78717,0.94436,-0.42814\X,0,
 -0.61339,0.82432,-1.72363\H,0,-1.11628,1.45421,0.16855\H,0,-1.47575,-1
 .63372,-0.50266\H,0,0.22737,-1.76569,-1.06579\C,0,0.01236,-1.63137,1.1
 1351\H,0,0.28847,-0.74401,1.72764\H,0,-0.79423,-2.16765,1.66518\H,0,0.
 9002,-2.30525,1.10025\\Version=EM64L-G09RevA.01\State=1-A\HF=-477.9981
 383\RMSD=5.889e-09\Dipole=-0.303116,-0.6080076,0.4753887\Quadrupole=-0
 .0684398,1.2686493,-1.2002096,-1.3993202,-0.7209891,2.0620125\PG=C01 [
 X(C2H6S1)]\\@


 SUCCESS IS NEVER CERTAIN,
 FAILURE IS NEVER FINAL.
 Job cpu time:  0 days  0 hours  0 minutes 32.4 seconds.
 File lengths (MBytes):  RWF=     10 Int=      0 D2E=      0 Chk=      1 Scr=      1
 Normal termination of Gaussian 09 at Mon Feb 19 01:31:46 2018.
