 Entering Gaussian System, Link 0=g09
 Input=N_Me_spiro_piperidine_2_2_adamantane_b.gjf
 Output=N_Me_spiro_piperidine_2_2_adamantane_b.out
 Initial command:
 /usr/local/g09/l1.exe /home/scratch/stylianakis/Gau-25449.inp -scrdir=/home/scratch/stylianakis/
 Entering Link 1 = /usr/local/g09/l1.exe PID=     25450.
  
 Copyright (c) 1988,1990,1992,1993,1995,1998,2003,2009, Gaussian, Inc.
                  All Rights Reserved.
  
 This is part of the Gaussian(R) 09 program.  It is based on
 the Gaussian(R) 03 system (copyright 2003, Gaussian, Inc.),
 the Gaussian(R) 98 system (copyright 1998, Gaussian, Inc.),
 the Gaussian(R) 94 system (copyright 1995, Gaussian, Inc.),
 the Gaussian 92(TM) system (copyright 1992, Gaussian, Inc.),
 the Gaussian 90(TM) system (copyright 1990, Gaussian, Inc.),
 the Gaussian 88(TM) system (copyright 1988, Gaussian, Inc.),
 the Gaussian 86(TM) system (copyright 1986, Carnegie Mellon
 University), and the Gaussian 82(TM) system (copyright 1983,
 Carnegie Mellon University). Gaussian is a federally registered
 trademark of Gaussian, Inc.
  
 This software contains proprietary and confidential information,
 including trade secrets, belonging to Gaussian, Inc.
  
 This software is provided under written license and may be
 used, copied, transmitted, or stored only in accord with that
 written license.
  
 The following legend is applicable only to US Government
 contracts under FAR:
  
                    RESTRICTED RIGHTS LEGEND
  
 Use, reproduction and disclosure by the US Government is
 subject to restrictions as set forth in subparagraphs (a)
 and (c) of the Commercial Computer Software - Restricted
 Rights clause in FAR 52.227-19.
  
 Gaussian, Inc.
 340 Quinnipiac St., Bldg. 40, Wallingford CT 06492
  
  
 ---------------------------------------------------------------
 Warning -- This program may not be used in any manner that
 competes with the business of Gaussian, Inc. or will provide
 assistance to any competitor of Gaussian, Inc.  The licensee
 of this program is prohibited from giving any competitor of
 Gaussian, Inc. access to this program.  By using this program,
 the user acknowledges that Gaussian, Inc. is engaged in the
 business of creating and licensing software in the field of
 computational chemistry and represents and warrants to the
 licensee that it is not a competitor of Gaussian, Inc. and that
 it will not use this program in any manner prohibited above.
 ---------------------------------------------------------------
  

 Cite this work as:
 Gaussian 09, Revision A.01,
 M. J. Frisch, G. W. Trucks, H. B. Schlegel, G. E. Scuseria, 
 M. A. Robb, J. R. Cheeseman, G. Scalmani, V. Barone, B. Mennucci, 
 G. A. Petersson, H. Nakatsuji, M. Caricato, X. Li, H. P. Hratchian, 
 A. F. Izmaylov, J. Bloino, G. Zheng, J. L. Sonnenberg, M. Hada, 
 M. Ehara, K. Toyota, R. Fukuda, J. Hasegawa, M. Ishida, T. Nakajima, 
 Y. Honda, O. Kitao, H. Nakai, T. Vreven, J. A. Montgomery, Jr., 
 J. E. Peralta, F. Ogliaro, M. Bearpark, J. J. Heyd, E. Brothers, 
 K. N. Kudin, V. N. Staroverov, R. Kobayashi, J. Normand, 
 K. Raghavachari, A. Rendell, J. C. Burant, S. S. Iyengar, J. Tomasi, 
 M. Cossi, N. Rega, J. M. Millam, M. Klene, J. E. Knox, J. B. Cross, 
 V. Bakken, C. Adamo, J. Jaramillo, R. Gomperts, R. E. Stratmann, 
 O. Yazyev, A. J. Austin, R. Cammi, C. Pomelli, J. W. Ochterski, 
 R. L. Martin, K. Morokuma, V. G. Zakrzewski, G. A. Voth, 
 P. Salvador, J. J. Dannenberg, S. Dapprich, A. D. Daniels, 
 O. Farkas, J. B. Foresman, J. V. Ortiz, J. Cioslowski, 
 and D. J. Fox, Gaussian, Inc., Wallingford CT, 2009.
 
 ******************************************
 Gaussian 09:  EM64L-G09RevA.01  8-May-2009
                19-Feb-2018 
 ******************************************
 %mem=8000Mb
 %nproc=4
 Will use up to    4 processors via shared memory.
 -------------------
 # b3lyp/6-31+g(d,p)
 -------------------
 1/38=1/1;
 2/12=2,17=6,18=5,40=1/2;
 3/5=1,6=6,7=111,11=2,16=1,25=1,30=1,74=-5/1,2,3;
 4//1;
 5/5=2,38=5/2;
 6/7=2,8=2,9=2,10=2,28=1/1;
 99/5=1,9=1/99;
 --------------------------------------------
 N-Me-spiro[piperidine-2,2'-adamantane]-b.hin
 --------------------------------------------
 Symbolic Z-matrix:
 Charge =  0 Multiplicity = 1
 C                    -2.66241  -0.88708  -0.82937 
 C                    -2.59316   0.65142  -0.79731 
 C                    -1.11517   1.12432  -0.86506 
 C                    -0.27091   0.59418   0.34732 
 C                    -0.36957  -0.96157   0.20508 
 C                    -1.81695  -1.48597   0.30488 
 C                     0.20362  -1.43565  -1.14749 
 C                    -0.65345  -0.89791  -2.3053 
 C                    -0.66675   0.63671  -2.26357 
 C                    -2.10001  -1.39875  -2.16599 
 C                    -0.93827   0.97694   1.70652 
 C                    -0.67019   2.43526   2.10367 
 C                     0.83527   2.71985   2.11566 
 C                     1.60205   1.45435   1.71895 
 N                     1.18811   0.91216   0.42463 
 Xx                    1.47573   0.38847   0.36556 
 C                     1.72171   1.78074  -0.6166 
 H                    -3.72459  -1.22127  -0.72517 
 H                    -3.1382    1.05639   0.08305 
 H                    -3.17337   1.06224  -1.65748 
 H                    -1.11866   2.23976  -0.84994 
 H                     0.22799  -1.43637   1.02231 
 H                    -2.27567  -1.26648   1.29516 
 H                    -1.82321  -2.59952   0.23301 
 H                     0.21882  -2.55084  -1.18401 
 H                     1.2631   -1.11307  -1.2704 
 H                    -0.23485  -1.24827  -3.28155 
 H                    -1.35327   1.02718  -3.05177 
 H                     0.31132   1.0382   -2.58995 
 H                    -2.72379  -1.03059  -3.01485 
 H                    -2.13245  -2.51329  -2.20762 
 H                    -0.59566   0.3013    2.52439 
 H                    -2.03827   0.83942   1.73158 
 H                    -1.11448   2.64536   3.10663 
 H                    -1.18127   3.11693   1.38311 
 H                     1.1589    3.04172   3.13472 
 H                     1.08333   3.56325   1.42874 
 H                     1.50164   0.66698   2.50241 
 H                     2.69979   1.65731   1.73441 
 H                     2.73398   2.16901  -0.36109 
 H                     1.93426   1.20005  -1.53789 
 H                     1.07881   2.6668   -0.81531 
 
                          Input orientation:                          
 ---------------------------------------------------------------------
 Center     Atomic      Atomic             Coordinates (Angstroms)
 Number     Number       Type             X           Y           Z
 ---------------------------------------------------------------------
      1          6           0       -2.662410   -0.887080   -0.829370
      2          6           0       -2.593160    0.651420   -0.797310
      3          6           0       -1.115170    1.124320   -0.865060
      4          6           0       -0.270910    0.594180    0.347320
      5          6           0       -0.369570   -0.961570    0.205080
      6          6           0       -1.816950   -1.485970    0.304880
      7          6           0        0.203620   -1.435650   -1.147490
      8          6           0       -0.653450   -0.897910   -2.305300
      9          6           0       -0.666750    0.636710   -2.263570
     10          6           0       -2.100010   -1.398750   -2.165990
     11          6           0       -0.938270    0.976940    1.706520
     12          6           0       -0.670190    2.435260    2.103670
     13          6           0        0.835270    2.719850    2.115660
     14          6           0        1.602050    1.454350    1.718950
     15          7           0        1.188110    0.912160    0.424630
     16          6           0        1.721710    1.780740   -0.616600
     17          1           0       -3.724590   -1.221270   -0.725170
     18          1           0       -3.138200    1.056390    0.083050
     19          1           0       -3.173370    1.062240   -1.657480
     20          1           0       -1.118660    2.239760   -0.849940
     21          1           0        0.227990   -1.436370    1.022310
     22          1           0       -2.275670   -1.266480    1.295160
     23          1           0       -1.823210   -2.599520    0.233010
     24          1           0        0.218820   -2.550840   -1.184010
     25          1           0        1.263100   -1.113070   -1.270400
     26          1           0       -0.234850   -1.248270   -3.281550
     27          1           0       -1.353270    1.027180   -3.051770
     28          1           0        0.311320    1.038200   -2.589950
     29          1           0       -2.723790   -1.030590   -3.014850
     30          1           0       -2.132450   -2.513290   -2.207620
     31          1           0       -0.595660    0.301300    2.524390
     32          1           0       -2.038270    0.839420    1.731580
     33          1           0       -1.114480    2.645360    3.106630
     34          1           0       -1.181270    3.116930    1.383110
     35          1           0        1.158900    3.041720    3.134720
     36          1           0        1.083330    3.563250    1.428740
     37          1           0        1.501640    0.666980    2.502410
     38          1           0        2.699790    1.657310    1.734410
     39          1           0        2.733980    2.169010   -0.361090
     40          1           0        1.934260    1.200050   -1.537890
     41          1           0        1.078810    2.666800   -0.815310
 ---------------------------------------------------------------------
                    Distance matrix (angstroms):
                    1          2          3          4          5
     1  C    0.000000
     2  C    1.540391   0.000000
     3  C    2.537904   1.553280   0.000000
     4  C    3.049263   2.589652   1.569614   0.000000
     5  C    2.516496   2.924188   2.460093   1.565351   0.000000
     6  C    1.536227   2.527006   2.945313   2.592116   1.542681
     7  C    2.935346   3.507202   2.893513   2.565121   1.543614
     8  C    2.492871   2.904640   2.525251   3.067419   2.527182
     9  C    2.891630   2.420990   1.547473   2.641069   2.955850
    10  C    1.537743   2.513897   3.004698   3.692439   2.967747
    11  C    3.588588   3.018905   2.581867   1.561826   2.517054
    12  C    4.858972   3.910957   3.275657   2.575610   3.903008
    13  C    5.823823   4.951558   3.903156   2.978109   4.319121
    14  C    5.491980   4.957424   3.764215   2.475730   3.466375
    15  N    4.431285   3.982352   2.648285   1.495268   2.446515
    16  C    5.136443   4.463869   2.922415   2.511494   3.545261
    17  H    1.118377   2.189134   3.511472   4.046480   3.491270
    18  H    2.199082   1.111802   2.235213   2.916304   3.428172
    19  H    2.178691   1.115934   2.206348   3.558452   3.927624
    20  H    3.487222   2.167889   1.115548   2.204551   3.452929
    21  H    3.476327   3.953324   3.453024   2.197190   1.118203
    22  H    2.192519   2.856146   3.424797   2.894740   2.216859
    23  H    2.182970   3.496140   3.946399   3.552805   2.190144
    24  H    3.345946   4.279163   3.922762   3.532132   2.191245
    25  H    3.956666   4.267081   3.290347   2.808008   2.205812
    26  H    3.469394   3.916873   3.499081   4.069966   3.500991
    27  H    3.212056   2.600214   2.201778   3.593439   3.940795
    28  H    3.955934   3.434991   2.239986   3.027160   3.503553
    29  H    2.191047   2.786343   3.442803   4.467738   3.989369
    30  H    2.196586   3.495228   4.008682   4.432767   3.367002
    31  H    4.114779   3.891822   3.526418   2.220557   2.650501
    32  H    3.151003   2.595868   2.770527   2.258291   2.891077
    33  H    5.510564   4.626342   4.252985   3.540161   4.688691
    34  H    4.808424   3.581397   3.004851   2.875045   4.322126
    35  H    6.764014   5.937369   4.984582   3.975476   5.190890
    36  H    6.239797   5.191400   4.005409   3.437850   4.907368
    37  H    5.554743   5.258876   4.289138   2.791352   3.381025
    38  H    6.465298   5.952877   4.647068   3.446639   4.314899
    39  H    6.219325   5.556239   4.020114   3.465732   4.444446
    40  H    5.097792   4.620280   3.123693   2.963759   3.608071
    41  H    5.160134   4.188728   2.682400   2.732985   4.037830
                    6          7          8          9         10
     6  C    0.000000
     7  C    2.488898   0.000000
     8  C    2.917634   1.537614   0.000000
     9  C    3.525006   2.509553   1.535245   0.000000
    10  C    2.488560   2.519011   1.537135   2.491356   0.000000
    11  C    2.966917   3.907669   4.437441   3.993882   4.689336
    12  C    4.463939   5.130061   5.527144   4.723090   5.913883
    13  C    5.291703   5.321213   5.903335   5.076730   6.626557
    14  C    4.725954   4.303973   5.178320   4.655798   6.077679
    15  N    3.846525   2.992155   3.757687   3.277621   4.781564
    16  C    4.903329   3.596054   3.958315   3.118663   5.207236
    17  H    2.184069   3.956659   3.468901   3.894759   2.178697
    18  H    2.873761   4.346522   3.962005   3.433777   3.487654
    19  H    3.490574   4.231265   3.257584   2.613726   2.732610
    20  H    3.962611   3.917346   3.489909   2.184569   3.991715
    21  H    2.167705   2.169937   3.484231   3.986882   3.947943
    22  H    1.113218   3.484542   3.966201   4.344573   3.468128
    23  H    1.115884   2.714482   3.272130   4.247764   2.696974
    24  H    2.737718   1.115891   2.179524   3.479965   2.769218
    25  H    3.479550   1.114299   2.188716   2.787909   3.492020
    26  H    3.927088   2.186682   1.118500   2.185399   2.178518
    27  H    4.218770   3.480764   2.180123   1.115812   2.688376
    28  H    4.391014   2.865698   2.181818   1.106499   3.454415
    29  H    3.471360   3.495831   2.192572   2.752403   1.115888
    30  H    2.732688   2.782518   2.192358   3.474753   1.115789
    31  H    3.100340   4.139873   4.976681   4.800220   5.210845
    32  H    2.737132   4.300123   4.607867   4.228875   4.494916
    33  H    5.040948   6.040660   6.485083   5.751016   6.717635
    34  H    4.770048   5.389605   5.477399   4.440101   5.816490
    35  H    6.112582   6.268710   6.956947   6.185354   7.644331
    36  H    5.930372   5.692087   6.071360   5.025989   6.904866
    37  H    4.525193   4.407684   5.496123   5.236162   6.247646
    38  H    5.685482   4.909441   5.838889   5.325323   6.898602
    39  H    5.874807   4.473781   4.965947   4.187163   6.273279
    40  H    4.968106   3.177175   3.418567   2.758481   4.839794
    41  H    5.185147   4.207897   4.234141   3.043962   5.334597
                   11         12         13         14         15
    11  C    0.000000
    12  C    1.535022   0.000000
    13  C    2.520035   1.532170   0.000000
    14  C    2.584821   2.504649   1.531934   0.000000
    15  N    2.483733   2.931260   2.500364   1.463072   0.000000
    16  C    3.621943   3.680958   3.022077   2.361280   1.457162
    17  H    4.302188   5.540930   6.662962   6.442496   5.477973
    18  H    2.735262   3.474948   4.763094   5.030359   4.342170
    19  H    4.039733   4.722006   5.749213   5.861627   4.835309
    20  H    2.857051   2.993853   3.583729   3.823392   2.950972
    21  H    2.766292   4.118930   4.340319   3.275608   2.606654
    22  H    2.644010   4.115110   5.122694   4.755967   4.183547
    23  H    3.968049   5.493436   6.237594   5.511287   4.629974
    24  H    4.705237   6.038242   6.248840   5.136346   3.939494
    25  H    4.251614   5.264276   5.132223   3.955091   2.642027
    26  H    5.507014   6.538999   6.783879   5.973555   4.519739
    27  H    4.776617   5.387750   5.861499   5.628158   4.307807
    28  H    4.474917   4.994518   5.024464   4.517276   3.142028
    29  H    5.432273   6.513727   7.283875   6.877258   5.559430
    30  H    5.378500   6.724104   7.408365   6.716145   5.448722
    31  H    1.114801   2.176315   2.839719   2.609250   2.822052
    32  H    1.108846   2.134666   3.455541   3.691914   3.481801
    33  H    2.185174   1.116899   2.188400   3.274705   3.936880
    34  H    2.177889   1.115833   2.181911   3.259422   3.375449
    35  H    3.271268   2.185504   1.116611   2.172678   3.446805
    36  H    3.294393   2.191512   1.115669   2.191062   2.836811
    37  H    2.585087   2.828896   2.192692   1.115277   2.115558
    38  H    3.701238   3.478265   2.179628   1.116452   2.134467
    39  H    4.379665   4.211212   3.169040   2.473575   2.141668
    40  H    4.339056   4.644337   4.106823   3.283601   2.119223
    41  H    3.644704   3.410727   2.941549   2.857672   2.151316
                   16         17         18         19         20
    16  C    0.000000
    17  H    6.219810   0.000000
    18  H    4.963156   2.486927   0.000000
    19  H    5.055836   2.527343   1.740895   0.000000
    20  H    2.886667   4.334186   2.519797   2.502101   0.000000
    21  H    3.907304   4.326990   4.292703   4.999358   4.339668
    22  H    5.377678   2.486593   2.758422   3.866120   4.270111
    23  H    5.698682   2.536322   3.888106   4.336516   5.008773
    24  H    4.619872   4.186738   5.087940   4.978501   4.985008
    25  H    3.001985   5.018569   5.090169   4.956215   4.134131
    26  H    4.483859   4.325979   5.006139   4.075655   4.342833
    27  H    3.994172   4.011453   3.607482   2.293041   2.524569
    28  H    2.536666   4.987101   4.363995   3.607373   2.552690
    29  H    5.780800   2.506111   3.758218   2.534662   4.237743
    30  H    5.985364   2.530194   4.359050   3.764384   5.046043
    31  H    4.174298   4.761099   3.604832   4.971082   3.926482
    32  H    4.531830   3.622946   1.993633   3.581037   3.077480
    33  H    4.759620   6.037068   3.970177   5.426052   3.977308
    34  H    3.769819   5.452825   3.124989   4.175572   2.399971
    35  H    3.997403   7.544555   5.631988   6.756633   4.659177
    36  H    2.787165   7.116674   5.090829   5.822311   3.434060
    37  H    3.319204   6.426215   5.247195   6.270298   4.536283
    38  H    2.549338   7.457105   6.096739   6.808306   4.647437
    39  H    1.113880   7.303402   5.993136   6.148362   3.884175
    40  H    1.109574   6.208533   5.327094   5.110888   3.297665
    41  H    1.112613   6.180442   4.602569   4.622218   2.238847
                   21         22         23         24         25
    21  H    0.000000
    22  H    2.524207   0.000000
    23  H    2.486631   1.763485   0.000000
    24  H    2.471836   3.744108   2.486001   0.000000
    25  H    2.536236   4.373617   3.741000   1.779091   0.000000
    26  H    4.332760   5.011143   4.086673   2.510414   2.511346
    27  H    5.016731   5.000750   4.915646   4.331538   3.820908
    28  H    4.379368   5.205588   5.075266   3.855701   2.697232
    29  H    5.017601   4.339659   3.717685   3.784454   4.352608
    30  H    4.142932   3.720822   2.461654   2.564695   3.790614
    31  H    2.440111   2.606027   3.895133   4.748717   4.455992
    32  H    3.289106   2.163709   3.757429   5.008890   4.870641
    33  H    4.775682   4.464558   6.022355   6.869336   6.239958
    34  H    4.780035   4.518820   5.866227   6.377615   5.559583
    35  H    5.038071   5.808687   7.009742   7.128247   6.056255
    36  H    5.088516   5.884472   6.917910   6.704919   5.402374
    37  H    2.870011   4.411779   5.184094   5.058625   4.178466
    38  H    4.023399   5.787633   6.390018   5.690423   4.332201
    39  H    4.603536   6.296217   6.622674   5.411119   3.709768
    40  H    4.051752   5.642114   5.629512   4.139703   2.423331
    41  H    4.575669   5.583665   6.103673   5.300876   3.811625
                   26         27         28         29         30
    26  H    0.000000
    27  H    2.545847   0.000000
    28  H    2.450420   1.727501   0.000000
    29  H    2.512635   2.472672   3.697611   0.000000
    30  H    2.520811   3.722182   4.327964   1.788771   0.000000
    31  H    6.019991   5.674014   5.246152   6.081616   5.716254
    32  H    5.722084   4.835795   4.922978   5.147375   5.173667
    33  H    7.532791   6.371924   6.088259   7.319495   7.475907
    34  H    6.458307   4.905589   4.725902   6.238857   6.745181
    35  H    7.843155   6.974384   6.124078   8.335239   8.380437
    36  H    6.861134   5.695932   4.808508   7.439289   7.777448
    37  H    6.335438   6.255331   5.242785   7.153751   6.745748
    38  H    6.497258   6.303323   4.978772   7.693861   7.502270
    39  H    5.387099   5.024853   3.480780   6.860549   7.001125
    40  H    3.706705   3.623475   1.940866   5.371647   5.547573
    41  H    4.809970   3.688512   2.527989   5.741815   6.251724
                   31         32         33         34         35
    31  H    0.000000
    32  H    1.731833   0.000000
    33  H    2.470384   2.450626   0.000000
    34  H    3.094064   2.458238   1.788116   0.000000
    35  H    3.310723   4.128053   2.307845   2.924071   0.000000
    36  H    3.828808   4.153956   2.913453   2.308614   1.785517
    37  H    2.129054   3.626965   3.335139   3.801722   2.481265
    38  H    3.650044   4.808135   4.172276   4.161313   2.500360
    39  H    4.785482   5.377866   5.202176   4.389757   3.932326
    40  H    4.869329   5.157566   5.740671   4.681153   5.081950
    41  H    4.421882   4.420651   4.493617   3.184906   3.968591
                   36         37         38         39         40
    36  H    0.000000
    37  H    3.117071   0.000000
    38  H    2.517734   1.733823   0.000000
    39  H    2.805716   3.460403   2.157342   0.000000
    40  H    3.887118   4.098213   3.391618   1.721422   0.000000
    41  H    2.416486   3.896836   3.185548   1.787092   1.845338
                   41
    41  H    0.000000
 Stoichiometry    C15H25N
 Framework group  C1[X(C15H25N)]
 Deg. of freedom   117
 Full point group                 C1      NOp   1
 Largest Abelian subgroup         C1      NOp   1
 Largest concise Abelian subgroup C1      NOp   1
                         Standard orientation:                         
 ---------------------------------------------------------------------
 Center     Atomic      Atomic             Coordinates (Angstroms)
 Number     Number       Type             X           Y           Z
 ---------------------------------------------------------------------
      1          6           0        2.306038   -1.253601   -0.078278
      2          6           0        1.322727   -1.243631   -1.263945
      3          6           0        0.347553   -0.040661   -1.143204
      4          6           0       -0.507700   -0.105313    0.171349
      5          6           0        0.569411   -0.070903    1.306678
      6          6           0        1.540504   -1.268408    1.253538
      7          6           0        1.416647    1.217323    1.233124
      8          6           0        2.239570    1.238351   -0.065572
      9          6           0        1.293443    1.177165   -1.273081
     10          6           0        3.171353    0.016952   -0.117998
     11          6           0       -1.257300   -1.470597    0.287098
     12          6           0       -2.518702   -1.525232   -0.585927
     13          6           0       -3.443579   -0.346198   -0.266513
     14          6           0       -2.811373    0.523727    0.824526
     15          7           0       -1.470541    0.996496    0.479217
     16          6           0       -1.608903    2.041038   -0.527315
     17          1           0        2.968767   -2.152167   -0.142597
     18          1           0        0.798229   -2.219736   -1.354623
     19          1           0        1.899270   -1.183469   -2.217510
     20          1           0       -0.333698   -0.070947   -2.026055
     21          1           0        0.049730   -0.090035    2.296598
     22          1           0        1.016599   -2.240389    1.395065
     23          1           0        2.260890   -1.211168    2.103813
     24          1           0        2.105315    1.269954    2.109583
     25          1           0        0.773952    2.125382    1.296637
     26          1           0        2.853604    2.172159   -0.110387
     27          1           0        1.889968    1.109550   -2.213624
     28          1           0        0.770506    2.143929   -1.400529
     29          1           0        3.788168    0.036428   -1.047711
     30          1           0        3.886413    0.035006    0.738359
     31          1           0       -1.529850   -1.688531    1.345873
     32          1           0       -0.645165   -2.353920    0.014019
     33          1           0       -3.052003   -2.493397   -0.425578
     34          1           0       -2.227143   -1.500178   -1.662704
     35          1           0       -4.434721   -0.718506    0.088232
     36          1           0       -3.646636    0.256224   -1.183341
     37          1           0       -2.775569   -0.021828    1.796602
     38          1           0       -3.487213    1.379414    1.064328
     39          1           0       -2.504250    2.679299   -0.349252
     40          1           0       -0.788077    2.782002   -0.435831
     41          1           0       -1.701434    1.639387   -1.560767
 ---------------------------------------------------------------------
 Rotational constants (GHZ):      1.0357810      0.4717838      0.4242715
 Standard basis: 6-31+G(d,p) (6D, 7F)
 There are   429 symmetry adapted basis functions of A   symmetry.
 Integral buffers will be    131072 words long.
 Raffenetti 2 integral format.
 Two-electron integral symmetry is turned on.
   429 basis functions,   687 primitive gaussians,   429 cartesian basis functions
    61 alpha electrons       61 beta electrons
       nuclear repulsion energy      1286.2084773204 Hartrees.
 NAtoms=   41 NActive=   41 NUniq=   41 SFac= 7.50D-01 NAtFMM=   80 NAOKFM=F Big=F
 One-electron integrals computed using PRISM.
 NBasis=   429 RedAO= T  NBF=   429
 NBsUse=   429 1.00D-06 NBFU=   429
 Harris functional with IExCor=  402 diagonalized for initial guess.
 ExpMin= 4.38D-02 ExpMax= 4.17D+03 ExpMxC= 6.27D+02 IAcc=2 IRadAn=         0 AccDes= 0.00D+00
 HarFok:  IExCor=  402 AccDes= 0.00D+00 IRadAn=         0 IDoV= 1
 ScaDFX=  1.000000  1.000000  1.000000  1.000000
 FoFCou: FMM=F IPFlag=           0 FMFlag=      100000 FMFlg1=           0
         NFxFlg=           0 DoJE=T BraDBF=F KetDBF=T FulRan=T
         Omega=  0.000000  0.000000  1.000000  0.000000  0.000000 ICntrl=     500 IOpCl=  0
         NMat0=    1 NMatS0=    1 NMatT0=    0 NMatD0=    1 NMtDS0=    0 NMtDT0=    0
         I1Cent=           4 NGrid=           0.
 Petite list used in FoFCou.
 Initial guess orbital symmetries:
       Occupied  (A) (A) (A) (A) (A) (A) (A) (A) (A) (A) (A) (A)
                 (A) (A) (A) (A) (A) (A) (A) (A) (A) (A) (A) (A)
                 (A) (A) (A) (A) (A) (A) (A) (A) (A) (A) (A) (A)
                 (A) (A) (A) (A) (A) (A) (A) (A) (A) (A) (A) (A)
                 (A) (A) (A) (A) (A) (A) (A) (A) (A) (A) (A) (A)
                 (A)
       Virtual   (A) (A) (A) (A) (A) (A) (A) (A) (A) (A) (A) (A)
                 (A) (A) (A) (A) (A) (A) (A) (A) (A) (A) (A) (A)
                 (A) (A) (A) (A) (A) (A) (A) (A) (A) (A) (A) (A)
                 (A) (A) (A) (A) (A) (A) (A) (A) (A) (A) (A) (A)
                 (A) (A) (A) (A) (A) (A) (A) (A) (A) (A) (A) (A)
                 (A) (A) (A) (A) (A) (A) (A) (A) (A) (A) (A) (A)
                 (A) (A) (A) (A) (A) (A) (A) (A) (A) (A) (A) (A)
                 (A) (A) (A) (A) (A) (A) (A) (A) (A) (A) (A) (A)
                 (A) (A) (A) (A) (A) (A) (A) (A) (A) (A) (A) (A)
                 (A) (A) (A) (A) (A) (A) (A) (A) (A) (A) (A) (A)
                 (A) (A) (A) (A) (A) (A) (A) (A) (A) (A) (A) (A)
                 (A) (A) (A) (A) (A) (A) (A) (A) (A) (A) (A) (A)
                 (A) (A) (A) (A) (A) (A) (A) (A) (A) (A) (A) (A)
                 (A) (A) (A) (A) (A) (A) (A) (A) (A) (A) (A) (A)
                 (A) (A) (A) (A) (A) (A) (A) (A) (A) (A) (A) (A)
                 (A) (A) (A) (A) (A) (A) (A) (A) (A) (A) (A) (A)
                 (A) (A) (A) (A) (A) (A) (A) (A) (A) (A) (A) (A)
                 (A) (A) (A) (A) (A) (A) (A) (A) (A) (A) (A) (A)
                 (A) (A) (A) (A) (A) (A) (A) (A) (A) (A) (A) (A)
                 (A) (A) (A) (A) (A) (A) (A) (A) (A) (A) (A) (A)
                 (A) (A) (A) (A) (A) (A) (A) (A) (A) (A) (A) (A)
                 (A) (A) (A) (A) (A) (A) (A) (A) (A) (A) (A) (A)
                 (A) (A) (A) (A) (A) (A) (A) (A) (A) (A) (A) (A)
                 (A) (A) (A) (A) (A) (A) (A) (A) (A) (A) (A) (A)
                 (A) (A) (A) (A) (A) (A) (A) (A) (A) (A) (A) (A)
                 (A) (A) (A) (A) (A) (A) (A) (A) (A) (A) (A) (A)
                 (A) (A) (A) (A) (A) (A) (A) (A) (A) (A) (A) (A)
                 (A) (A) (A) (A) (A) (A) (A) (A) (A) (A) (A) (A)
                 (A) (A) (A) (A) (A) (A) (A) (A) (A) (A) (A) (A)
                 (A) (A) (A) (A) (A) (A) (A) (A) (A) (A) (A) (A)
                 (A) (A) (A) (A) (A) (A) (A) (A)
 The electronic state of the initial guess is 1-A.
 Requested convergence on RMS density matrix=1.00D-08 within 128 cycles.
 Requested convergence on MAX density matrix=1.00D-06.
 Requested convergence on             energy=1.00D-06.
 No special actions if energy rises.
 SCF Done:  E(RB3LYP) =  -641.420373343     A.U. after   14 cycles
             Convg  =    0.3284D-08             -V/T =  2.0104

 **********************************************************************

            Population analysis using the SCF density.

 **********************************************************************

 Orbital symmetries:
       Occupied  (A) (A) (A) (A) (A) (A) (A) (A) (A) (A) (A) (A)
                 (A) (A) (A) (A) (A) (A) (A) (A) (A) (A) (A) (A)
                 (A) (A) (A) (A) (A) (A) (A) (A) (A) (A) (A) (A)
                 (A) (A) (A) (A) (A) (A) (A) (A) (A) (A) (A) (A)
                 (A) (A) (A) (A) (A) (A) (A) (A) (A) (A) (A) (A)
                 (A)
       Virtual   (A) (A) (A) (A) (A) (A) (A) (A) (A) (A) (A) (A)
                 (A) (A) (A) (A) (A) (A) (A) (A) (A) (A) (A) (A)
                 (A) (A) (A) (A) (A) (A) (A) (A) (A) (A) (A) (A)
                 (A) (A) (A) (A) (A) (A) (A) (A) (A) (A) (A) (A)
                 (A) (A) (A) (A) (A) (A) (A) (A) (A) (A) (A) (A)
                 (A) (A) (A) (A) (A) (A) (A) (A) (A) (A) (A) (A)
                 (A) (A) (A) (A) (A) (A) (A) (A) (A) (A) (A) (A)
                 (A) (A) (A) (A) (A) (A) (A) (A) (A) (A) (A) (A)
                 (A) (A) (A) (A) (A) (A) (A) (A) (A) (A) (A) (A)
                 (A) (A) (A) (A) (A) (A) (A) (A) (A) (A) (A) (A)
                 (A) (A) (A) (A) (A) (A) (A) (A) (A) (A) (A) (A)
                 (A) (A) (A) (A) (A) (A) (A) (A) (A) (A) (A) (A)
                 (A) (A) (A) (A) (A) (A) (A) (A) (A) (A) (A) (A)
                 (A) (A) (A) (A) (A) (A) (A) (A) (A) (A) (A) (A)
                 (A) (A) (A) (A) (A) (A) (A) (A) (A) (A) (A) (A)
                 (A) (A) (A) (A) (A) (A) (A) (A) (A) (A) (A) (A)
                 (A) (A) (A) (A) (A) (A) (A) (A) (A) (A) (A) (A)
                 (A) (A) (A) (A) (A) (A) (A) (A) (A) (A) (A) (A)
                 (A) (A) (A) (A) (A) (A) (A) (A) (A) (A) (A) (A)
                 (A) (A) (A) (A) (A) (A) (A) (A) (A) (A) (A) (A)
                 (A) (A) (A) (A) (A) (A) (A) (A) (A) (A) (A) (A)
                 (A) (A) (A) (A) (A) (A) (A) (A) (A) (A) (A) (A)
                 (A) (A) (A) (A) (A) (A) (A) (A) (A) (A) (A) (A)
                 (A) (A) (A) (A) (A) (A) (A) (A) (A) (A) (A) (A)
                 (A) (A) (A) (A) (A) (A) (A) (A) (A) (A) (A) (A)
                 (A) (A) (A) (A) (A) (A) (A) (A) (A) (A) (A) (A)
                 (A) (A) (A) (A) (A) (A) (A) (A) (A) (A) (A) (A)
                 (A) (A) (A) (A) (A) (A) (A) (A) (A) (A) (A) (A)
                 (A) (A) (A) (A) (A) (A) (A) (A) (A) (A) (A) (A)
                 (A) (A) (A) (A) (A) (A) (A) (A) (A) (A) (A) (A)
                 (A) (A) (A) (A) (A) (A) (A) (A)
 The electronic state is 1-A.
 Alpha  occ. eigenvalues --  -14.32375 -10.22333 -10.20636 -10.20191 -10.19387
 Alpha  occ. eigenvalues --  -10.18448 -10.18434 -10.18297 -10.18181 -10.18169
 Alpha  occ. eigenvalues --  -10.18139 -10.17716 -10.17680 -10.17592 -10.17535
 Alpha  occ. eigenvalues --  -10.17179  -0.92522  -0.86107  -0.79182  -0.76983
 Alpha  occ. eigenvalues --   -0.76435  -0.75930  -0.70626  -0.68767  -0.65746
 Alpha  occ. eigenvalues --   -0.63636  -0.61605  -0.58407  -0.57671  -0.56789
 Alpha  occ. eigenvalues --   -0.53613  -0.50712  -0.48643  -0.48362  -0.45202
 Alpha  occ. eigenvalues --   -0.44777  -0.44030  -0.43124  -0.42825  -0.42122
 Alpha  occ. eigenvalues --   -0.41379  -0.40070  -0.39788  -0.38769  -0.38333
 Alpha  occ. eigenvalues --   -0.37777  -0.37356  -0.36915  -0.35559  -0.34412
 Alpha  occ. eigenvalues --   -0.34023  -0.32701  -0.32338  -0.32246  -0.31544
 Alpha  occ. eigenvalues --   -0.31128  -0.29907  -0.27954  -0.27719  -0.27069
 Alpha  occ. eigenvalues --   -0.20126
 Alpha virt. eigenvalues --   -0.00721   0.00657   0.00810   0.01211   0.02599
 Alpha virt. eigenvalues --    0.02789   0.02949   0.03039   0.03572   0.04832
 Alpha virt. eigenvalues --    0.05126   0.05448   0.05877   0.06017   0.06816
 Alpha virt. eigenvalues --    0.07345   0.08425   0.08455   0.08937   0.09350
 Alpha virt. eigenvalues --    0.09471   0.10085   0.10665   0.10906   0.11911
 Alpha virt. eigenvalues --    0.12106   0.12873   0.13021   0.13321   0.13461
 Alpha virt. eigenvalues --    0.13785   0.14332   0.14860   0.14906   0.15608
 Alpha virt. eigenvalues --    0.16135   0.16442   0.16619   0.16735   0.17069
 Alpha virt. eigenvalues --    0.17382   0.17598   0.18316   0.18430   0.18647
 Alpha virt. eigenvalues --    0.18846   0.19051   0.19462   0.19773   0.20079
 Alpha virt. eigenvalues --    0.20288   0.20374   0.20784   0.20863   0.21484
 Alpha virt. eigenvalues --    0.21699   0.21933   0.22430   0.22921   0.23331
 Alpha virt. eigenvalues --    0.23447   0.23834   0.24205   0.24529   0.25055
 Alpha virt. eigenvalues --    0.25672   0.25761   0.26225   0.26334   0.27012
 Alpha virt. eigenvalues --    0.27329   0.27539   0.28280   0.28376   0.29072
 Alpha virt. eigenvalues --    0.29418   0.29620   0.29869   0.30796   0.31052
 Alpha virt. eigenvalues --    0.32283   0.32448   0.33250   0.33720   0.34117
 Alpha virt. eigenvalues --    0.34600   0.35009   0.35567   0.35948   0.36130
 Alpha virt. eigenvalues --    0.36659   0.37259   0.38683   0.39045   0.39809
 Alpha virt. eigenvalues --    0.40134   0.40796   0.41292   0.41717   0.43101
 Alpha virt. eigenvalues --    0.43315   0.44467   0.46702   0.47550   0.49405
 Alpha virt. eigenvalues --    0.49894   0.51271   0.54741   0.63241   0.64517
 Alpha virt. eigenvalues --    0.65776   0.66085   0.66684   0.66945   0.68365
 Alpha virt. eigenvalues --    0.68910   0.70463   0.71378   0.72263   0.72990
 Alpha virt. eigenvalues --    0.74067   0.74580   0.75622   0.76791   0.77839
 Alpha virt. eigenvalues --    0.79179   0.79674   0.79875   0.80690   0.81437
 Alpha virt. eigenvalues --    0.81623   0.83358   0.84184   0.84936   0.85833
 Alpha virt. eigenvalues --    0.86638   0.87105   0.88750   0.89073   0.90814
 Alpha virt. eigenvalues --    0.93274   0.94341   0.94868   0.95525   0.96385
 Alpha virt. eigenvalues --    0.96971   0.97370   0.98205   0.98249   0.98905
 Alpha virt. eigenvalues --    0.99070   1.01484   1.01500   1.02570   1.05292
 Alpha virt. eigenvalues --    1.06479   1.07052   1.08255   1.09539   1.10511
 Alpha virt. eigenvalues --    1.11257   1.11869   1.12098   1.12705   1.13344
 Alpha virt. eigenvalues --    1.13879   1.14215   1.14920   1.15730   1.16337
 Alpha virt. eigenvalues --    1.17243   1.17637   1.18568   1.20120   1.20201
 Alpha virt. eigenvalues --    1.21871   1.22969   1.23294   1.24653   1.26395
 Alpha virt. eigenvalues --    1.27659   1.29532   1.31846   1.34974   1.36623
 Alpha virt. eigenvalues --    1.39759   1.41280   1.46577   1.48400   1.49418
 Alpha virt. eigenvalues --    1.50826   1.51862   1.54398   1.54753   1.57196
 Alpha virt. eigenvalues --    1.57923   1.59340   1.61501   1.63454   1.66061
 Alpha virt. eigenvalues --    1.68514   1.68769   1.69447   1.70316   1.73276
 Alpha virt. eigenvalues --    1.75652   1.76412   1.77668   1.78678   1.80953
 Alpha virt. eigenvalues --    1.81763   1.82562   1.83906   1.84995   1.85531
 Alpha virt. eigenvalues --    1.86838   1.87410   1.88098   1.89552   1.91721
 Alpha virt. eigenvalues --    1.93199   1.95338   1.96072   1.97024   1.97708
 Alpha virt. eigenvalues --    1.98922   1.99361   2.00361   2.00949   2.02160
 Alpha virt. eigenvalues --    2.03611   2.03831   2.05619   2.06379   2.06629
 Alpha virt. eigenvalues --    2.08202   2.08650   2.10930   2.12018   2.13208
 Alpha virt. eigenvalues --    2.13976   2.16209   2.16605   2.16883   2.17985
 Alpha virt. eigenvalues --    2.18253   2.18748   2.19454   2.20397   2.22024
 Alpha virt. eigenvalues --    2.22863   2.23861   2.24963   2.25482   2.28956
 Alpha virt. eigenvalues --    2.30320   2.31349   2.32973   2.34374   2.35595
 Alpha virt. eigenvalues --    2.35673   2.37114   2.37522   2.38617   2.39667
 Alpha virt. eigenvalues --    2.41140   2.41865   2.43319   2.46672   2.47598
 Alpha virt. eigenvalues --    2.49559   2.50523   2.51000   2.53125   2.53329
 Alpha virt. eigenvalues --    2.53751   2.55328   2.55829   2.56646   2.56991
 Alpha virt. eigenvalues --    2.58923   2.59756   2.60915   2.61899   2.62839
 Alpha virt. eigenvalues --    2.64247   2.64877   2.65455   2.66049   2.68044
 Alpha virt. eigenvalues --    2.69122   2.70313   2.71026   2.72610   2.73140
 Alpha virt. eigenvalues --    2.73574   2.74496   2.74559   2.75333   2.76698
 Alpha virt. eigenvalues --    2.77941   2.79052   2.79871   2.81265   2.82526
 Alpha virt. eigenvalues --    2.83620   2.84313   2.85705   2.86274   2.86627
 Alpha virt. eigenvalues --    2.87820   2.88235   2.90384   2.90838   2.92057
 Alpha virt. eigenvalues --    2.92172   2.92952   2.93105   2.95209   2.95548
 Alpha virt. eigenvalues --    2.97050   2.98952   3.02972   3.03745   3.05494
 Alpha virt. eigenvalues --    3.13425   3.22457   3.24791   3.26138   3.30146
 Alpha virt. eigenvalues --    3.32872   3.33757   3.34563   3.35324   3.36658
 Alpha virt. eigenvalues --    3.36856   3.38352   3.42997   3.45648   3.46162
 Alpha virt. eigenvalues --    3.47179   3.47565   3.49193   3.50968   3.51824
 Alpha virt. eigenvalues --    3.52448   3.53082   3.54832   3.55664   3.56991
 Alpha virt. eigenvalues --    3.58272   3.61110   4.42514   4.45689   4.50476
 Alpha virt. eigenvalues --    4.52758   4.55789   4.58963   4.68169   4.69125
 Alpha virt. eigenvalues --    4.73953   4.84482   4.86474   4.89504   4.99231
 Alpha virt. eigenvalues --    4.99769   5.05513   5.09143
          Condensed to atoms (all electrons):
              1          2          3          4          5          6
     1  C    7.221736  -0.549089  -0.390774  -0.366394   0.016778  -0.424325
     2  C   -0.549089   7.430596  -2.104024   1.376190  -0.044688   0.272383
     3  C   -0.390774  -2.104024  16.324938  -7.670762  -1.670760   0.103996
     4  C   -0.366394   1.376190  -7.670762  37.884938 -14.755121   2.101477
     5  C    0.016778  -0.044688  -1.670760 -14.755121  21.220108  -2.412836
     6  C   -0.424325   0.272383   0.103996   2.101477  -2.412836   6.659614
     7  C    0.325401  -0.300445   0.823534  -1.190695  -1.029192  -0.125843
     8  C   -0.867100   0.460924  -0.605606   1.066427  -1.128791   0.501492
     9  C    0.493972  -0.307690  -1.505658   0.923847   0.287871  -0.194625
    10  C    0.107322  -0.140622   0.521418  -0.841669   0.584916  -0.190665
    11  C    0.162946  -0.497614   0.478741  -4.590720   1.603930  -0.300629
    12  C    0.012875   0.320456  -0.446184   0.392656   0.343208  -0.159045
    13  C   -0.009005  -0.057043   0.160237   0.607979  -0.531944   0.080135
    14  C    0.013851  -0.002089  -0.026452  -1.428829   0.849295  -0.057486
    15  N    0.039656  -0.056082   0.999250  -4.340682   1.762545  -0.168818
    16  C   -0.017326  -0.110072   0.595957  -1.017375   0.022068   0.029321
    17  H    0.179482   0.004680   0.054343  -0.037841   0.057518   0.008945
    18  H   -0.016603   0.420762  -0.014222  -0.005969  -0.049687  -0.014621
    19  H   -0.067927   0.448303  -0.050679  -0.020964  -0.000224   0.020546
    20  H    0.035656   0.047967   0.017751   0.156497   0.048506  -0.009514
    21  H    0.031815  -0.013910   0.049483   0.061333   0.107706  -0.003379
    22  H    0.007093  -0.026815  -0.046964  -0.021408  -0.003778   0.417255
    23  H   -0.077564   0.025383   0.005947  -0.031854  -0.066286   0.453301
    24  H    0.001662   0.006410  -0.002777   0.030698  -0.077441   0.000465
    25  H   -0.024606   0.019520  -0.033006   0.064926  -0.127667   0.004268
    26  H    0.048086  -0.018984   0.052421  -0.039967   0.070009  -0.020574
    27  H    0.013876  -0.032041  -0.039923  -0.014907  -0.008155   0.002941
    28  H   -0.028024   0.012608  -0.012292  -0.053932  -0.023711   0.016070
    29  H   -0.073287   0.007127  -0.021024   0.034185  -0.056767   0.022783
    30  H   -0.061244   0.027205  -0.054108   0.034694  -0.010393   0.001854
    31  H   -0.007823   0.024956  -0.008993  -0.036256  -0.026703   0.007546
    32  H    0.050082  -0.050827  -0.021147  -0.004950   0.067062  -0.054664
    33  H    0.000131  -0.003669   0.035901  -0.037597  -0.015364   0.002284
    34  H   -0.003419   0.008922  -0.020808   0.088918  -0.009105   0.001751
    35  H    0.000034  -0.000234  -0.000076  -0.038534   0.006634  -0.000575
    36  H   -0.000023  -0.002712  -0.007252   0.034628  -0.001255   0.000142
    37  H   -0.000725   0.002465  -0.031949   0.088385   0.008534  -0.005756
    38  H    0.000137   0.000767  -0.013052  -0.027991   0.034751  -0.003305
    39  H    0.000875  -0.003457  -0.031863  -0.018361   0.030636  -0.000753
    40  H    0.000730   0.008800   0.071859  -0.141223   0.061882  -0.008453
    41  H   -0.003523  -0.010950   0.005608   0.100076  -0.072938   0.006747
              7          8          9         10         11         12
     1  C    0.325401  -0.867100   0.493972   0.107322   0.162946   0.012875
     2  C   -0.300445   0.460924  -0.307690  -0.140622  -0.497614   0.320456
     3  C    0.823534  -0.605606  -1.505658   0.521418   0.478741  -0.446184
     4  C   -1.190695   1.066427   0.923847  -0.841669  -4.590720   0.392656
     5  C   -1.029192  -1.128791   0.287871   0.584916   1.603930   0.343208
     6  C   -0.125843   0.501492  -0.194625  -0.190665  -0.300629  -0.159045
     7  C    7.379360  -0.435020   0.106695   0.039122  -0.433294  -0.037451
     8  C   -0.435020   7.351328  -0.444658  -0.053888   0.080125   0.000473
     9  C    0.106695  -0.444658   7.035940  -0.230412  -0.051941  -0.197280
    10  C    0.039122  -0.053888  -0.230412   5.706014   0.057052   0.004947
    11  C   -0.433294   0.080125  -0.051941   0.057052  12.010400  -2.254205
    12  C   -0.037451   0.000473  -0.197280   0.004947  -2.254205   7.727438
    13  C   -0.028263   0.016179   0.050816  -0.008235   0.271999  -0.401568
    14  C    0.006190  -0.012796  -0.025454   0.010310  -0.606122   0.217462
    15  N    0.286335  -0.130172  -0.086741   0.067151  -0.275701   0.167096
    16  C    0.067501   0.033895  -0.201915   0.013273  -0.080933  -0.089996
    17  H   -0.012731   0.041918  -0.017726   0.002958  -0.000194  -0.001012
    18  H    0.018221  -0.028157   0.010878   0.019531  -0.029047  -0.000219
    19  H   -0.005815   0.014043  -0.028300  -0.020324   0.025281  -0.002379
    20  H   -0.011725   0.033433   0.042740  -0.015194  -0.010661  -0.025391
    21  H    0.096185   0.037989  -0.010329  -0.017511  -0.086555   0.001657
    22  H   -0.013078  -0.023075   0.016515   0.008962  -0.001563   0.000864
    23  H    0.014416  -0.006669   0.000418  -0.007746   0.002096  -0.001286
    24  H    0.436304  -0.079005   0.022759  -0.015578  -0.006045  -0.000433
    25  H    0.458755  -0.026260  -0.012470   0.013459  -0.001051   0.000478
    26  H    0.001438   0.147643   0.029324   0.009402   0.000569   0.000115
    27  H    0.044970  -0.104426   0.465642  -0.015762  -0.017666  -0.000871
    28  H   -0.014195  -0.003935   0.384602   0.024525   0.011133  -0.004007
    29  H    0.021668  -0.056781   0.003026   0.430814  -0.002021  -0.000100
    30  H   -0.007715  -0.051657   0.019200   0.412822   0.000690   0.000160
    31  H   -0.011018   0.004336  -0.005482  -0.002078   0.470043  -0.053907
    32  H   -0.001760  -0.004052  -0.003295  -0.000493   0.192455   0.107524
    33  H   -0.000153  -0.000129   0.000323   0.000073  -0.069150   0.426520
    34  H   -0.000615   0.001098  -0.001276  -0.000317  -0.131631   0.423665
    35  H    0.001007  -0.000222   0.000245   0.000067   0.057954  -0.081798
    36  H    0.001212   0.000066   0.000349  -0.000074   0.034235  -0.104143
    37  H    0.016612  -0.002150   0.000491  -0.000257  -0.093762  -0.008768
    38  H    0.000062  -0.000016  -0.001453   0.000088  -0.016894   0.072572
    39  H    0.001773  -0.002428   0.015172  -0.000451  -0.001722  -0.004510
    40  H   -0.007728   0.037590  -0.108448   0.004867   0.014506   0.012398
    41  H   -0.008713  -0.000627   0.018892  -0.001180  -0.000551  -0.012561
             13         14         15         16         17         18
     1  C   -0.009005   0.013851   0.039656  -0.017326   0.179482  -0.016603
     2  C   -0.057043  -0.002089  -0.056082  -0.110072   0.004680   0.420762
     3  C    0.160237  -0.026452   0.999250   0.595957   0.054343  -0.014222
     4  C    0.607979  -1.428829  -4.340682  -1.017375  -0.037841  -0.005969
     5  C   -0.531944   0.849295   1.762545   0.022068   0.057518  -0.049687
     6  C    0.080135  -0.057486  -0.168818   0.029321   0.008945  -0.014621
     7  C   -0.028263   0.006190   0.286335   0.067501  -0.012731   0.018221
     8  C    0.016179  -0.012796  -0.130172   0.033895   0.041918  -0.028157
     9  C    0.050816  -0.025454  -0.086741  -0.201915  -0.017726   0.010878
    10  C   -0.008235   0.010310   0.067151   0.013273   0.002958   0.019531
    11  C    0.271999  -0.606122  -0.275701  -0.080933  -0.000194  -0.029047
    12  C   -0.401568   0.217462   0.167096  -0.089996  -0.001012  -0.000219
    13  C    5.828143  -0.028836  -0.287058   0.008181   0.000010   0.000235
    14  C   -0.028836   5.929044   0.425236  -0.015659  -0.000028  -0.001321
    15  N   -0.287058   0.425236   8.161653   0.304974   0.000702  -0.000874
    16  C    0.008181  -0.015659   0.304974   5.379834   0.000281  -0.000555
    17  H    0.000010  -0.000028   0.000702   0.000281   0.631955  -0.005539
    18  H    0.000235  -0.001321  -0.000874  -0.000555  -0.005539   0.605364
    19  H    0.000083  -0.000366  -0.001400  -0.000392  -0.002891  -0.035414
    20  H    0.001871  -0.001874  -0.015762  -0.024171  -0.000137  -0.004244
    21  H   -0.000247   0.000152   0.012687   0.004818  -0.000143  -0.000023
    22  H   -0.000867   0.001958  -0.000848  -0.000895  -0.005392   0.001941
    23  H    0.000155  -0.001260   0.000507   0.000127  -0.003227   0.000008
    24  H    0.000291  -0.003953  -0.006142   0.000991  -0.000061  -0.000002
    25  H    0.000020   0.003213  -0.000158  -0.017441   0.000019  -0.000003
    26  H   -0.000076   0.000440   0.002371  -0.000907  -0.000166   0.000020
    27  H   -0.000322   0.001166   0.004622   0.006783  -0.000105   0.000323
    28  H    0.000855   0.000445   0.010905  -0.008040   0.000021  -0.000174
    29  H    0.000084  -0.000123  -0.000356   0.000349  -0.004308   0.000037
    30  H    0.000002  -0.000084  -0.000887  -0.000491  -0.003910  -0.000139
    31  H    0.014875  -0.055366  -0.005017  -0.001200   0.000001   0.000110
    32  H    0.000994   0.021264   0.019810  -0.001376  -0.000135   0.002096
    33  H   -0.038377   0.010527   0.010460   0.005631   0.000000  -0.000010
    34  H   -0.049596   0.010563  -0.006262   0.005157   0.000000   0.000414
    35  H    0.419413  -0.065036   0.022568   0.000714   0.000000   0.000000
    36  H    0.431626  -0.064517  -0.013002   0.015142   0.000000   0.000001
    37  H   -0.087053   0.456563  -0.052677   0.007155   0.000000  -0.000001
    38  H   -0.136676   0.472832  -0.049677  -0.026244   0.000000   0.000000
    39  H   -0.006372  -0.006485  -0.054627   0.425836   0.000000   0.000000
    40  H   -0.011089   0.014659  -0.035597   0.417401   0.000000  -0.000001
    41  H    0.013017  -0.011653  -0.115869   0.435454   0.000000   0.000000
             19         20         21         22         23         24
     1  C   -0.067927   0.035656   0.031815   0.007093  -0.077564   0.001662
     2  C    0.448303   0.047967  -0.013910  -0.026815   0.025383   0.006410
     3  C   -0.050679   0.017751   0.049483  -0.046964   0.005947  -0.002777
     4  C   -0.020964   0.156497   0.061333  -0.021408  -0.031854   0.030698
     5  C   -0.000224   0.048506   0.107706  -0.003778  -0.066286  -0.077441
     6  C    0.020546  -0.009514  -0.003379   0.417255   0.453301   0.000465
     7  C   -0.005815  -0.011725   0.096185  -0.013078   0.014416   0.436304
     8  C    0.014043   0.033433   0.037989  -0.023075  -0.006669  -0.079005
     9  C   -0.028300   0.042740  -0.010329   0.016515   0.000418   0.022759
    10  C   -0.020324  -0.015194  -0.017511   0.008962  -0.007746  -0.015578
    11  C    0.025281  -0.010661  -0.086555  -0.001563   0.002096  -0.006045
    12  C   -0.002379  -0.025391   0.001657   0.000864  -0.001286  -0.000433
    13  C    0.000083   0.001871  -0.000247  -0.000867   0.000155   0.000291
    14  C   -0.000366  -0.001874   0.000152   0.001958  -0.001260  -0.003953
    15  N   -0.001400  -0.015762   0.012687  -0.000848   0.000507  -0.006142
    16  C   -0.000392  -0.024171   0.004818  -0.000895   0.000127   0.000991
    17  H   -0.002891  -0.000137  -0.000143  -0.005392  -0.003227  -0.000061
    18  H   -0.035414  -0.004244  -0.000023   0.001941   0.000008  -0.000002
    19  H    0.592455  -0.004009   0.000016  -0.000003  -0.000141   0.000000
    20  H   -0.004009   0.627572  -0.000152  -0.000017   0.000018   0.000018
    21  H    0.000016  -0.000152   0.621379  -0.003874  -0.003901  -0.004651
    22  H   -0.000003  -0.000017  -0.003874   0.598217  -0.033537   0.000110
    23  H   -0.000141   0.000018  -0.003901  -0.033537   0.594077   0.003066
    24  H    0.000000   0.000018  -0.004651   0.000110   0.003066   0.596270
    25  H   -0.000002  -0.000051  -0.003392  -0.000129   0.000121  -0.030668
    26  H   -0.000089  -0.000139  -0.000143   0.000020  -0.000084  -0.003999
    27  H    0.003084  -0.003440   0.000017  -0.000002  -0.000003  -0.000146
    28  H    0.000301  -0.004402  -0.000009  -0.000002  -0.000001   0.000013
    29  H    0.003397  -0.000051   0.000016  -0.000163   0.000148   0.000083
    30  H    0.000099   0.000018  -0.000067   0.000107   0.003492   0.003297
    31  H   -0.000004  -0.000098   0.003018   0.000828  -0.000064  -0.000015
    32  H    0.000087   0.000057  -0.000001  -0.002417   0.000198   0.000000
    33  H    0.000001  -0.000020  -0.000007   0.000010   0.000000   0.000000
    34  H   -0.000022   0.000417  -0.000005   0.000009   0.000000   0.000000
    35  H    0.000000   0.000001   0.000004   0.000000   0.000000   0.000000
    36  H    0.000000  -0.000009   0.000000   0.000000   0.000000   0.000000
    37  H    0.000000   0.000003   0.000782   0.000004   0.000003  -0.000002
    38  H    0.000000  -0.000007  -0.000046   0.000000   0.000000   0.000000
    39  H    0.000000   0.000065   0.000003   0.000000   0.000000  -0.000001
    40  H   -0.000003   0.000363   0.000054   0.000000   0.000001   0.000020
    41  H    0.000010  -0.000587  -0.000026   0.000000   0.000000   0.000000
             25         26         27         28         29         30
     1  C   -0.024606   0.048086   0.013876  -0.028024  -0.073287  -0.061244
     2  C    0.019520  -0.018984  -0.032041   0.012608   0.007127   0.027205
     3  C   -0.033006   0.052421  -0.039923  -0.012292  -0.021024  -0.054108
     4  C    0.064926  -0.039967  -0.014907  -0.053932   0.034185   0.034694
     5  C   -0.127667   0.070009  -0.008155  -0.023711  -0.056767  -0.010393
     6  C    0.004268  -0.020574   0.002941   0.016070   0.022783   0.001854
     7  C    0.458755   0.001438   0.044970  -0.014195   0.021668  -0.007715
     8  C   -0.026260   0.147643  -0.104426  -0.003935  -0.056781  -0.051657
     9  C   -0.012470   0.029324   0.465642   0.384602   0.003026   0.019200
    10  C    0.013459   0.009402  -0.015762   0.024525   0.430814   0.412822
    11  C   -0.001051   0.000569  -0.017666   0.011133  -0.002021   0.000690
    12  C    0.000478   0.000115  -0.000871  -0.004007  -0.000100   0.000160
    13  C    0.000020  -0.000076  -0.000322   0.000855   0.000084   0.000002
    14  C    0.003213   0.000440   0.001166   0.000445  -0.000123  -0.000084
    15  N   -0.000158   0.002371   0.004622   0.010905  -0.000356  -0.000887
    16  C   -0.017441  -0.000907   0.006783  -0.008040   0.000349  -0.000491
    17  H    0.000019  -0.000166  -0.000105   0.000021  -0.004308  -0.003910
    18  H   -0.000003   0.000020   0.000323  -0.000174   0.000037  -0.000139
    19  H   -0.000002  -0.000089   0.003084   0.000301   0.003397   0.000099
    20  H   -0.000051  -0.000139  -0.003440  -0.004402  -0.000051   0.000018
    21  H   -0.003392  -0.000143   0.000017  -0.000009   0.000016  -0.000067
    22  H   -0.000129   0.000020  -0.000002  -0.000002  -0.000163   0.000107
    23  H    0.000121  -0.000084  -0.000003  -0.000001   0.000148   0.003492
    24  H   -0.030668  -0.003999  -0.000146   0.000013   0.000083   0.003297
    25  H    0.563929  -0.004655   0.000058   0.001607  -0.000134   0.000048
    26  H   -0.004655   0.633183  -0.002621  -0.006438  -0.004291  -0.003855
    27  H    0.000058  -0.002621   0.598086  -0.035575   0.003386   0.000157
    28  H    0.001607  -0.006438  -0.035575   0.606203   0.000112  -0.000160
    29  H   -0.000134  -0.004291   0.003386   0.000112   0.596824  -0.031435
    30  H    0.000048  -0.003855   0.000157  -0.000160  -0.031435   0.594310
    31  H    0.000002   0.000000   0.000002   0.000001   0.000000   0.000000
    32  H   -0.000003   0.000000  -0.000007  -0.000001   0.000001   0.000000
    33  H    0.000000   0.000000   0.000000   0.000000   0.000000   0.000000
    34  H    0.000000   0.000000   0.000002   0.000004   0.000000   0.000000
    35  H    0.000000   0.000000   0.000000   0.000000   0.000000   0.000000
    36  H    0.000000   0.000000   0.000000   0.000001   0.000000   0.000000
    37  H   -0.000025   0.000000   0.000000   0.000001   0.000000   0.000000
    38  H   -0.000006   0.000000   0.000000   0.000002   0.000000   0.000000
    39  H    0.000118   0.000000  -0.000009   0.000236   0.000000   0.000000
    40  H   -0.000040  -0.000114   0.000314   0.002968  -0.000001   0.000000
    41  H    0.000070   0.000001   0.000097  -0.001353   0.000000   0.000000
             31         32         33         34         35         36
     1  C   -0.007823   0.050082   0.000131  -0.003419   0.000034  -0.000023
     2  C    0.024956  -0.050827  -0.003669   0.008922  -0.000234  -0.002712
     3  C   -0.008993  -0.021147   0.035901  -0.020808  -0.000076  -0.007252
     4  C   -0.036256  -0.004950  -0.037597   0.088918  -0.038534   0.034628
     5  C   -0.026703   0.067062  -0.015364  -0.009105   0.006634  -0.001255
     6  C    0.007546  -0.054664   0.002284   0.001751  -0.000575   0.000142
     7  C   -0.011018  -0.001760  -0.000153  -0.000615   0.001007   0.001212
     8  C    0.004336  -0.004052  -0.000129   0.001098  -0.000222   0.000066
     9  C   -0.005482  -0.003295   0.000323  -0.001276   0.000245   0.000349
    10  C   -0.002078  -0.000493   0.000073  -0.000317   0.000067  -0.000074
    11  C    0.470043   0.192455  -0.069150  -0.131631   0.057954   0.034235
    12  C   -0.053907   0.107524   0.426520   0.423665  -0.081798  -0.104143
    13  C    0.014875   0.000994  -0.038377  -0.049596   0.419413   0.431626
    14  C   -0.055366   0.021264   0.010527   0.010563  -0.065036  -0.064517
    15  N   -0.005017   0.019810   0.010460  -0.006262   0.022568  -0.013002
    16  C   -0.001200  -0.001376   0.005631   0.005157   0.000714   0.015142
    17  H    0.000001  -0.000135   0.000000   0.000000   0.000000   0.000000
    18  H    0.000110   0.002096  -0.000010   0.000414   0.000000   0.000001
    19  H   -0.000004   0.000087   0.000001  -0.000022   0.000000   0.000000
    20  H   -0.000098   0.000057  -0.000020   0.000417   0.000001  -0.000009
    21  H    0.003018  -0.000001  -0.000007  -0.000005   0.000004   0.000000
    22  H    0.000828  -0.002417   0.000010   0.000009   0.000000   0.000000
    23  H   -0.000064   0.000198   0.000000   0.000000   0.000000   0.000000
    24  H   -0.000015   0.000000   0.000000   0.000000   0.000000   0.000000
    25  H    0.000002  -0.000003   0.000000   0.000000   0.000000   0.000000
    26  H    0.000000   0.000000   0.000000   0.000000   0.000000   0.000000
    27  H    0.000002  -0.000007   0.000000   0.000002   0.000000   0.000000
    28  H    0.000001  -0.000001   0.000000   0.000004   0.000000   0.000001
    29  H    0.000000   0.000001   0.000000   0.000000   0.000000   0.000000
    30  H    0.000000   0.000000   0.000000   0.000000   0.000000   0.000000
    31  H    0.579521  -0.037841  -0.004827   0.004782   0.000555  -0.000119
    32  H   -0.037841   0.594231  -0.002335  -0.006123  -0.000143  -0.000124
    33  H   -0.004827  -0.002335   0.582997  -0.029069  -0.012274   0.003559
    34  H    0.004782  -0.006123  -0.029069   0.579573   0.003485  -0.010978
    35  H    0.000555  -0.000143  -0.012274   0.003485   0.586021  -0.029379
    36  H   -0.000119  -0.000124   0.003559  -0.010978  -0.029379   0.576415
    37  H   -0.004761   0.000412   0.000264  -0.000171  -0.002256   0.004371
    38  H    0.000257  -0.000014  -0.000150  -0.000138   0.000524  -0.004341
    39  H    0.000005   0.000004  -0.000003   0.000002   0.000013   0.000214
    40  H    0.000003   0.000004   0.000000  -0.000005   0.000010   0.000040
    41  H   -0.000007  -0.000060   0.000004   0.000290  -0.000085  -0.001836
             37         38         39         40         41
     1  C   -0.000725   0.000137   0.000875   0.000730  -0.003523
     2  C    0.002465   0.000767  -0.003457   0.008800  -0.010950
     3  C   -0.031949  -0.013052  -0.031863   0.071859   0.005608
     4  C    0.088385  -0.027991  -0.018361  -0.141223   0.100076
     5  C    0.008534   0.034751   0.030636   0.061882  -0.072938
     6  C   -0.005756  -0.003305  -0.000753  -0.008453   0.006747
     7  C    0.016612   0.000062   0.001773  -0.007728  -0.008713
     8  C   -0.002150  -0.000016  -0.002428   0.037590  -0.000627
     9  C    0.000491  -0.001453   0.015172  -0.108448   0.018892
    10  C   -0.000257   0.000088  -0.000451   0.004867  -0.001180
    11  C   -0.093762  -0.016894  -0.001722   0.014506  -0.000551
    12  C   -0.008768   0.072572  -0.004510   0.012398  -0.012561
    13  C   -0.087053  -0.136676  -0.006372  -0.011089   0.013017
    14  C    0.456563   0.472832  -0.006485   0.014659  -0.011653
    15  N   -0.052677  -0.049677  -0.054627  -0.035597  -0.115869
    16  C    0.007155  -0.026244   0.425836   0.417401   0.435454
    17  H    0.000000   0.000000   0.000000   0.000000   0.000000
    18  H   -0.000001   0.000000   0.000000  -0.000001   0.000000
    19  H    0.000000   0.000000   0.000000  -0.000003   0.000010
    20  H    0.000003  -0.000007   0.000065   0.000363  -0.000587
    21  H    0.000782  -0.000046   0.000003   0.000054  -0.000026
    22  H    0.000004   0.000000   0.000000   0.000000   0.000000
    23  H    0.000003   0.000000   0.000000   0.000001   0.000000
    24  H   -0.000002   0.000000  -0.000001   0.000020   0.000000
    25  H   -0.000025  -0.000006   0.000118  -0.000040   0.000070
    26  H    0.000000   0.000000   0.000000  -0.000114   0.000001
    27  H    0.000000   0.000000  -0.000009   0.000314   0.000097
    28  H    0.000001   0.000002   0.000236   0.002968  -0.001353
    29  H    0.000000   0.000000   0.000000  -0.000001   0.000000
    30  H    0.000000   0.000000   0.000000   0.000000   0.000000
    31  H   -0.004761   0.000257   0.000005   0.000003  -0.000007
    32  H    0.000412  -0.000014   0.000004   0.000004  -0.000060
    33  H    0.000264  -0.000150  -0.000003   0.000000   0.000004
    34  H   -0.000171  -0.000138   0.000002  -0.000005   0.000290
    35  H   -0.002256   0.000524   0.000013   0.000010  -0.000085
    36  H    0.004371  -0.004341   0.000214   0.000040  -0.001836
    37  H    0.603125  -0.030102   0.000754  -0.000071  -0.000537
    38  H   -0.030102   0.597686   0.003561   0.000780  -0.000316
    39  H    0.000754   0.003561   0.588719  -0.028103  -0.036797
    40  H   -0.000071   0.000780  -0.028103   0.605967  -0.042195
    41  H   -0.000537  -0.000316  -0.036797  -0.042195   0.606570
 Mulliken atomic charges:
              1
     1  C    0.224583
     2  C   -0.593367
     3  C    0.528969
     4  C   -2.313850
     5  C    0.938845
     6  C   -0.559450
     7  C   -0.471311
     8  C    0.238663
     9  C   -0.494563
    10  C   -0.476640
    11  C    0.085517
    12  C   -0.345452
    13  C   -0.224573
    14  C   -0.029381
    15  N    0.405881
    16  C   -0.165854
    17  H    0.112715
    18  H    0.126883
    19  H    0.133641
    20  H    0.118706
    21  H    0.119257
    22  H    0.130936
    23  H    0.130142
    24  H    0.128461
    25  H    0.151154
    26  H    0.112060
    27  H    0.130456
    28  H    0.123636
    29  H    0.126801
    30  H    0.127991
    31  H    0.150738
    32  H    0.135484
    33  H    0.134451
    34  H    0.140490
    35  H    0.131366
    36  H    0.137762
    37  H    0.131099
    38  H    0.126409
    39  H    0.127959
    40  H    0.127857
    41  H    0.135529
 Sum of Mulliken atomic charges =   0.00000
 Mulliken charges with hydrogens summed into heavy atoms:
              1
     1  C    0.337298
     2  C   -0.332843
     3  C    0.647674
     4  C   -2.313850
     5  C    1.058102
     6  C   -0.298372
     7  C   -0.191696
     8  C    0.350723
     9  C   -0.240472
    10  C   -0.221848
    11  C    0.371740
    12  C   -0.070511
    13  C    0.044555
    14  C    0.228126
    15  N    0.405881
    16  C    0.225492
 Sum of Mulliken charges with hydrogens summed into heavy atoms =   0.00000
 Electronic spatial extent (au):  <R**2>=           3157.7230
 Charge=              0.0000 electrons
 Dipole moment (field-independent basis, Debye):
    X=             -0.5163    Y=             -0.4047    Z=             -0.6322  Tot=              0.9110
 Quadrupole moment (field-independent basis, Debye-Ang):
   XX=           -101.6849   YY=           -102.3051   ZZ=           -103.7240
   XY=             -0.0170   XZ=             -0.2742   YZ=             -1.4838
 Traceless Quadrupole moment (field-independent basis, Debye-Ang):
   XX=              0.8864   YY=              0.2662   ZZ=             -1.1527
   XY=             -0.0170   XZ=             -0.2742   YZ=             -1.4838
 Octapole moment (field-independent basis, Debye-Ang**2):
  XXX=            -12.2957  YYY=              3.7127  ZZZ=             -0.2892  XYY=             -4.5797
  XXY=              2.7646  XXZ=              4.0616  XZZ=              0.0480  YZZ=             -1.6516
  YYZ=             -1.1858  XYZ=              2.5692
 Hexadecapole moment (field-independent basis, Debye-Ang**3):
 XXXX=          -2743.0310 YYYY=          -1045.3811 ZZZZ=           -710.6029 XXXY=             -9.5195
 XXXZ=            -17.8039 YYYX=             -6.9278 YYYZ=             -2.3255 ZZZX=             -2.8999
 ZZZY=             -1.4403 XXYY=           -623.2446 XXZZ=           -568.7164 YYZZ=           -306.1042
 XXYZ=             -2.5455 YYXZ=             -3.4949 ZZXY=              1.3762
 N-N= 1.286208477320D+03 E-N=-4.055791431488D+03  KE= 6.348287469015D+02
 1\1\GINC-ROCK\SP\RB3LYP\6-31+G(d,p)\C15H25N1\STYLIANAKIS\19-Feb-2018\0
 \\# b3lyp/6-31+g(d,p)\\N-Me-spiro[piperidine-2,2'-adamantane]-b.hin\\0
 ,1\C,0,-2.66241,-0.88708,-0.82937\C,0,-2.59316,0.65142,-0.79731\C,0,-1
 .11517,1.12432,-0.86506\C,0,-0.27091,0.59418,0.34732\C,0,-0.36957,-0.9
 6157,0.20508\C,0,-1.81695,-1.48597,0.30488\C,0,0.20362,-1.43565,-1.147
 49\C,0,-0.65345,-0.89791,-2.3053\C,0,-0.66675,0.63671,-2.26357\C,0,-2.
 10001,-1.39875,-2.16599\C,0,-0.93827,0.97694,1.70652\C,0,-0.67019,2.43
 526,2.10367\C,0,0.83527,2.71985,2.11566\C,0,1.60205,1.45435,1.71895\N,
 0,1.18811,0.91216,0.42463\X,0,1.47573,0.38847,0.36556\C,0,1.72171,1.78
 074,-0.6166\H,0,-3.72459,-1.22127,-0.72517\H,0,-3.1382,1.05639,0.08305
 \H,0,-3.17337,1.06224,-1.65748\H,0,-1.11866,2.23976,-0.84994\H,0,0.227
 99,-1.43637,1.02231\H,0,-2.27567,-1.26648,1.29516\H,0,-1.82321,-2.5995
 2,0.23301\H,0,0.21882,-2.55084,-1.18401\H,0,1.2631,-1.11307,-1.2704\H,
 0,-0.23485,-1.24827,-3.28155\H,0,-1.35327,1.02718,-3.05177\H,0,0.31132
 ,1.0382,-2.58995\H,0,-2.72379,-1.03059,-3.01485\H,0,-2.13245,-2.51329,
 -2.20762\H,0,-0.59566,0.3013,2.52439\H,0,-2.03827,0.83942,1.73158\H,0,
 -1.11448,2.64536,3.10663\H,0,-1.18127,3.11693,1.38311\H,0,1.1589,3.041
 72,3.13472\H,0,1.08333,3.56325,1.42874\H,0,1.50164,0.66698,2.50241\H,0
 ,2.69979,1.65731,1.73441\H,0,2.73398,2.16901,-0.36109\H,0,1.93426,1.20
 005,-1.53789\H,0,1.07881,2.6668,-0.81531\\Version=EM64L-G09RevA.01\Sta
 te=1-A\HF=-641.4203733\RMSD=3.284e-09\Dipole=-0.1146708,0.3234725,0.10
 33938\Quadrupole=-0.3691101,-0.5292282,0.8983383,1.1113656,-0.1260678,
 0.0071327\PG=C01 [X(C15H25N1)]\\@


 IN THE WOODS WE RETURN TO REASON AND FAITH.

                                 -- EMERSON
 Job cpu time:  0 days  1 hours 11 minutes 22.1 seconds.
 File lengths (MBytes):  RWF=    101 Int=      0 D2E=      0 Chk=      8 Scr=      1
 Normal termination of Gaussian 09 at Mon Feb 19 03:14:52 2018.
