 Entering Gaussian System, Link 0=g09
 Input=N_Me_spiro_piperidine_2_2adamantane_ch.gjf
 Output=N_Me_spiro_piperidine_2_2adamantane_ch.out
 Initial command:
 /usr/local/g09/l1.exe /home/scratch/stylianakis/Gau-27050.inp -scrdir=/home/scratch/stylianakis/
 Entering Link 1 = /usr/local/g09/l1.exe PID=     27051.
  
 Copyright (c) 1988,1990,1992,1993,1995,1998,2003,2009, Gaussian, Inc.
                  All Rights Reserved.
  
 This is part of the Gaussian(R) 09 program.  It is based on
 the Gaussian(R) 03 system (copyright 2003, Gaussian, Inc.),
 the Gaussian(R) 98 system (copyright 1998, Gaussian, Inc.),
 the Gaussian(R) 94 system (copyright 1995, Gaussian, Inc.),
 the Gaussian 92(TM) system (copyright 1992, Gaussian, Inc.),
 the Gaussian 90(TM) system (copyright 1990, Gaussian, Inc.),
 the Gaussian 88(TM) system (copyright 1988, Gaussian, Inc.),
 the Gaussian 86(TM) system (copyright 1986, Carnegie Mellon
 University), and the Gaussian 82(TM) system (copyright 1983,
 Carnegie Mellon University). Gaussian is a federally registered
 trademark of Gaussian, Inc.
  
 This software contains proprietary and confidential information,
 including trade secrets, belonging to Gaussian, Inc.
  
 This software is provided under written license and may be
 used, copied, transmitted, or stored only in accord with that
 written license.
  
 The following legend is applicable only to US Government
 contracts under FAR:
  
                    RESTRICTED RIGHTS LEGEND
  
 Use, reproduction and disclosure by the US Government is
 subject to restrictions as set forth in subparagraphs (a)
 and (c) of the Commercial Computer Software - Restricted
 Rights clause in FAR 52.227-19.
  
 Gaussian, Inc.
 340 Quinnipiac St., Bldg. 40, Wallingford CT 06492
  
  
 ---------------------------------------------------------------
 Warning -- This program may not be used in any manner that
 competes with the business of Gaussian, Inc. or will provide
 assistance to any competitor of Gaussian, Inc.  The licensee
 of this program is prohibited from giving any competitor of
 Gaussian, Inc. access to this program.  By using this program,
 the user acknowledges that Gaussian, Inc. is engaged in the
 business of creating and licensing software in the field of
 computational chemistry and represents and warrants to the
 licensee that it is not a competitor of Gaussian, Inc. and that
 it will not use this program in any manner prohibited above.
 ---------------------------------------------------------------
  

 Cite this work as:
 Gaussian 09, Revision A.01,
 M. J. Frisch, G. W. Trucks, H. B. Schlegel, G. E. Scuseria, 
 M. A. Robb, J. R. Cheeseman, G. Scalmani, V. Barone, B. Mennucci, 
 G. A. Petersson, H. Nakatsuji, M. Caricato, X. Li, H. P. Hratchian, 
 A. F. Izmaylov, J. Bloino, G. Zheng, J. L. Sonnenberg, M. Hada, 
 M. Ehara, K. Toyota, R. Fukuda, J. Hasegawa, M. Ishida, T. Nakajima, 
 Y. Honda, O. Kitao, H. Nakai, T. Vreven, J. A. Montgomery, Jr., 
 J. E. Peralta, F. Ogliaro, M. Bearpark, J. J. Heyd, E. Brothers, 
 K. N. Kudin, V. N. Staroverov, R. Kobayashi, J. Normand, 
 K. Raghavachari, A. Rendell, J. C. Burant, S. S. Iyengar, J. Tomasi, 
 M. Cossi, N. Rega, J. M. Millam, M. Klene, J. E. Knox, J. B. Cross, 
 V. Bakken, C. Adamo, J. Jaramillo, R. Gomperts, R. E. Stratmann, 
 O. Yazyev, A. J. Austin, R. Cammi, C. Pomelli, J. W. Ochterski, 
 R. L. Martin, K. Morokuma, V. G. Zakrzewski, G. A. Voth, 
 P. Salvador, J. J. Dannenberg, S. Dapprich, A. D. Daniels, 
 O. Farkas, J. B. Foresman, J. V. Ortiz, J. Cioslowski, 
 and D. J. Fox, Gaussian, Inc., Wallingford CT, 2009.
 
 ******************************************
 Gaussian 09:  EM64L-G09RevA.01  8-May-2009
                19-Feb-2018 
 ******************************************
 %mem=8000Mb
 %nproc=4
 Will use up to    4 processors via shared memory.
 -------------------
 # b3lyp/6-31+g(d,p)
 -------------------
 1/38=1/1;
 2/12=2,17=6,18=5,40=1/2;
 3/5=1,6=6,7=111,11=2,16=1,25=1,30=1,74=-5/1,2,3;
 4//1;
 5/5=2,38=5/2;
 6/7=2,8=2,9=2,10=2,28=1/1;
 99/5=1,9=1/99;
 ---------------------------------------------
 N-Me-spiro[piperidine-2,2'-adamantane]-ch.hin
 ---------------------------------------------
 Symbolic Z-matrix:
 Charge =  0 Multiplicity = 1
 C                    -2.66616  -0.75182  -0.96095 
 C                    -2.50006   0.75212  -0.7035 
 C                    -1.00179   1.11736  -0.682 
 C                    -0.20255   0.38551   0.4464 
 C                    -0.43484  -1.13109   0.14659 
 C                    -1.92525  -1.53088   0.13453 
 C                     0.15027  -1.51494  -1.23022 
 C                    -0.57461  -0.73165  -2.33606 
 C                    -0.42038   0.77438  -2.07021 
 C                    -2.06631  -1.10348  -2.33216 
 C                    -0.73256   0.72857   1.87096 
 C                    -0.49075   2.21416   2.1857 
 C                     1.00971   2.50665   2.08968 
 C                     1.48807   2.14208   0.67566 
 N                     1.2401    0.72775   0.38565 
 Xx                    1.40636   0.64234  -0.18467 
 C                     2.12131  -0.11785   1.18788 
 H                    -3.7517   -1.02088  -0.94965 
 H                    -3.00602   1.04589   0.24422 
 H                    -3.02319   1.32618  -1.50503 
 H                    -0.95442   2.22336  -0.56369 
 H                     0.04596  -1.75294   0.93876 
 H                    -2.40469  -1.36163   1.12545 
 H                    -2.02624  -2.62616  -0.05456 
 H                     0.03925  -2.61133  -1.40499 
 H                     1.2435   -1.30896  -1.28725 
 H                    -0.13197  -0.98599  -3.33122 
 H                    -0.94856   1.35298  -2.86492 
 H                     0.65202   1.07081  -2.14153 
 H                    -2.60366  -0.55515  -3.14185 
 H                    -2.19387  -2.19184  -2.54244 
 H                    -0.2552    0.08912   2.64771 
 H                    -1.82207   0.53696   1.9763 
 H                    -0.84341   2.43727   3.22157 
 H                    -1.0747    2.88206   1.51137 
 H                     1.5768    1.96415   2.88113 
 H                     1.18731   3.59393   2.27158 
 H                     2.57741   2.36549   0.57925 
 H                     1.00933   2.7988   -0.08516 
 H                     2.14453  -1.16427   0.81352 
 H                     3.17743   0.22786   1.10568 
 H                     1.85654  -0.1456    2.26649 
 
                          Input orientation:                          
 ---------------------------------------------------------------------
 Center     Atomic      Atomic             Coordinates (Angstroms)
 Number     Number       Type             X           Y           Z
 ---------------------------------------------------------------------
      1          6           0       -2.666160   -0.751820   -0.960950
      2          6           0       -2.500060    0.752120   -0.703500
      3          6           0       -1.001790    1.117360   -0.682000
      4          6           0       -0.202550    0.385510    0.446400
      5          6           0       -0.434840   -1.131090    0.146590
      6          6           0       -1.925250   -1.530880    0.134530
      7          6           0        0.150270   -1.514940   -1.230220
      8          6           0       -0.574610   -0.731650   -2.336060
      9          6           0       -0.420380    0.774380   -2.070210
     10          6           0       -2.066310   -1.103480   -2.332160
     11          6           0       -0.732560    0.728570    1.870960
     12          6           0       -0.490750    2.214160    2.185700
     13          6           0        1.009710    2.506650    2.089680
     14          6           0        1.488070    2.142080    0.675660
     15          7           0        1.240100    0.727750    0.385650
     16          6           0        2.121310   -0.117850    1.187880
     17          1           0       -3.751700   -1.020880   -0.949650
     18          1           0       -3.006020    1.045890    0.244220
     19          1           0       -3.023190    1.326180   -1.505030
     20          1           0       -0.954420    2.223360   -0.563690
     21          1           0        0.045960   -1.752940    0.938760
     22          1           0       -2.404690   -1.361630    1.125450
     23          1           0       -2.026240   -2.626160   -0.054560
     24          1           0        0.039250   -2.611330   -1.404990
     25          1           0        1.243500   -1.308960   -1.287250
     26          1           0       -0.131970   -0.985990   -3.331220
     27          1           0       -0.948560    1.352980   -2.864920
     28          1           0        0.652020    1.070810   -2.141530
     29          1           0       -2.603660   -0.555150   -3.141850
     30          1           0       -2.193870   -2.191840   -2.542440
     31          1           0       -0.255200    0.089120    2.647710
     32          1           0       -1.822070    0.536960    1.976300
     33          1           0       -0.843410    2.437270    3.221570
     34          1           0       -1.074700    2.882060    1.511370
     35          1           0        1.576800    1.964150    2.881130
     36          1           0        1.187310    3.593930    2.271580
     37          1           0        2.577410    2.365490    0.579250
     38          1           0        1.009330    2.798800   -0.085160
     39          1           0        2.144530   -1.164270    0.813520
     40          1           0        3.177430    0.227860    1.105680
     41          1           0        1.856540   -0.145600    2.266490
 ---------------------------------------------------------------------
                    Distance matrix (angstroms):
                    1          2          3          4          5
     1  C    0.000000
     2  C    1.534831   0.000000
     3  C    2.518288   1.542296   0.000000
     4  C    3.056718   2.595231   1.564505   0.000000
     5  C    2.519778   2.921347   2.462422   1.563304   0.000000
     6  C    1.534913   2.498958   2.921074   2.595671   1.543146
     7  C    2.930382   3.527215   2.925199   2.558759   1.544442
     8  C    2.503181   2.928171   2.517387   3.021350   2.518460
     9  C    2.933133   2.488666   1.543632   2.555777   2.923222
    10  C    1.537433   2.506776   2.964517   3.662115   2.967601
    11  C    3.734980   3.122892   2.596391   1.558195   2.553512
    12  C    4.840543   3.810822   3.112529   2.540115   3.918136
    13  C    5.782386   4.816504   3.695737   2.944347   4.369837
    14  C    5.320787   4.442888   3.015410   2.448733   3.832902
    15  N    4.388773   3.895592   2.513512   1.483933   2.513535
    16  C    5.285760   5.068651   3.843950   2.490680   2.940211
    17  H    1.118444   2.184198   3.493667   4.064893   3.495061
    18  H    2.190822   1.113764   2.209056   2.887286   3.370421
    19  H    2.177516   1.116091   2.192497   3.556536   3.932630
    20  H    3.455368   2.138480   1.113318   2.227843   3.467967
    21  H    3.459297   3.931229   3.458795   2.208426   1.115975
    22  H    2.189361   2.796800   3.373484   2.891890   2.211702
    23  H    2.178116   3.472521   3.931554   3.556257   2.192772
    24  H    3.312732   4.272351   3.938224   3.530887   2.196195
    25  H    3.962615   4.313126   3.360756   2.822735   2.214579
    26  H    3.477806   3.941293   3.492712   4.019503   3.493987
    27  H    3.317444   2.727622   2.196245   3.529500   3.937474
    28  H    3.965611   3.479239   2.206237   2.810215   3.356355
    29  H    2.190641   2.768617   3.378482   4.418790   3.981121
    30  H    2.190394   3.484588   3.979082   4.420549   3.383823
    31  H    4.420671   4.087735   3.563936   2.221798   2.788689
    32  H    3.316757   2.772597   2.841880   2.233020   2.838069
    33  H    5.566524   4.581528   4.123725   3.510269   4.728173
    34  H    4.674419   3.387321   2.816088   2.850889   4.286889
    35  H    6.335675   5.562318   4.479071   3.403836   4.594009
    36  H    6.647106   5.524824   4.432741   3.944230   5.428883
    37  H    6.291650   5.479882   3.994903   3.415574   4.635398
    38  H    5.184895   4.109387   2.688506   2.752304   4.193253
    39  H    5.144084   5.248439   4.164342   2.836438   2.664404
    40  H    6.275211   5.981795   4.631726   3.447284   3.976819
    41  H    5.589158   5.348524   4.296360   2.799046   3.273467
                    6          7          8          9         10
     6  C    0.000000
     7  C    2.484065   0.000000
     8  C    2.926912   1.536840   0.000000
     9  C    3.527001   2.504438   1.537072   0.000000
    10  C    2.507415   2.509342   1.537349   2.510789   0.000000
    11  C    3.089144   3.928109   4.456031   3.953780   4.775093
    12  C    4.504488   5.097608   5.397327   4.493405   5.822386
    13  C    5.360807   5.285221   5.708225   4.727642   6.484413
    14  C    5.043234   4.335422   4.645797   3.612836   5.675761
    15  N    3.896654   2.971266   3.582000   2.964897   4.655345
    16  C    4.413711   3.418196   4.479162   4.227459   5.558625
    17  H    2.184369   3.943119   3.478461   3.946683   2.181444
    18  H    2.796398   4.323655   3.966012   3.480781   3.484334
    19  H    3.472236   4.268294   3.304666   2.720024   2.739162
    20  H    3.940094   3.954679   3.466646   2.157393   3.928314
    21  H    2.140506   2.184491   3.486056   3.957110   3.947455
    22  H    1.113746   3.478578   3.965869   4.325768   3.483706
    23  H    1.116061   2.711860   3.301763   4.266767   2.740004
    24  H    2.719697   1.115769   2.185615   3.480921   2.750752
    25  H    3.480184   1.113926   2.176882   2.778818   3.476910
    26  H    3.940074   2.184868   1.118464   2.184543   2.180274
    27  H    4.274023   3.479172   2.182937   1.115937   2.750890
    28  H    4.311793   2.787175   2.188910   1.114899   3.486143
    29  H    3.485248   3.487070   2.190318   2.771782   1.115800
    30  H    2.770414   2.770398   2.190149   3.488084   1.115803
    31  H    3.424842   4.216130   5.060993   4.770287   5.431530
    32  H    2.771051   4.287446   4.664973   4.288980   4.616657
    33  H    5.142607   6.035379   6.403246   5.563011   6.698978
    34  H    4.700336   5.324517   5.302047   4.206919   5.624993
    35  H    5.658922   5.571558   6.254197   5.469922   7.061232
    36  H    6.365429   6.280017   6.560896   5.420855   7.337992
    37  H    5.971049   4.921679   5.294010   4.305579   6.486463
    38  H    5.235089   4.545052   4.476549   3.175338   5.453106
    39  H    4.142287   2.876963   4.183388   4.318915   5.256441
    40  H    5.483944   4.202080   5.181123   4.830031   6.409994
    41  H    4.556993   4.124734   5.238073   4.983743   6.119957
                   11         12         13         14         15
    11  C    0.000000
    12  C    1.537697   0.000000
    13  C    2.498982   1.531715   0.000000
    14  C    2.891012   2.490210   1.536617   0.000000
    15  N    2.469319   2.906103   2.474123   1.464897   0.000000
    16  C    3.054112   3.640985   2.989465   2.402217   1.461213
    17  H    4.486828   5.561448   6.659731   6.332546   5.455163
    18  H    2.813467   3.385378   4.654635   4.645925   4.260370
    19  H    4.123279   4.563250   5.529894   5.076669   4.701960
    20  H    2.865509   2.788229   3.313372   2.740137   2.820286
    21  H    2.762785   4.192946   4.516363   4.161740   2.808153
    22  H    2.778622   4.192084   5.248948   5.256603   4.265830
    23  H    4.078658   5.550243   6.337231   5.968225   4.702284
    24  H    4.741568   6.038154   6.272817   5.387308   3.974656
    25  H    4.246249   5.242269   5.100705   3.977752   2.635677
    26  H    5.510272   6.387964   6.548903   5.335207   4.316782
    27  H    4.781747   5.143927   5.451040   4.369846   3.968293
    28  H    4.258435   4.619317   4.482490   3.127804   2.617282
    29  H    5.502474   6.365238   7.056909   6.212140   5.372484
    30  H    5.490202   6.683469   7.334526   6.534196   5.374929
    31  H    1.113602   2.187403   2.784932   3.338056   2.785801
    32  H    1.111235   2.151572   3.451306   3.901936   3.455930
    33  H    2.180846   1.116769   2.172566   3.464765   3.912277
    34  H    2.209951   1.114365   2.195482   2.795312   3.356575
    35  H    2.807177   2.195653   1.114581   2.214414   2.805258
    36  H    3.472274   2.174172   1.116605   2.178368   3.431400
    37  H    3.912023   3.466582   2.181515   1.116185   2.123222
    38  H    3.338628   2.783675   2.194375   1.113248   2.136391
    39  H    3.602592   4.499041   4.048710   3.373706   2.140282
    40  H    4.015518   4.308988   3.295474   2.589033   2.126401
    41  H    2.761169   3.329379   2.789769   2.810692   2.163400
                   16         17         18         19         20
    16  C    0.000000
    17  H    6.314804   0.000000
    18  H    5.341750   2.500580   0.000000
    19  H    5.983550   2.519497   1.771647   0.000000
    20  H    4.243746   4.301027   2.499643   2.443535   0.000000
    21  H    2.653801   4.303978   4.198859   4.987261   4.366816
    22  H    4.694205   2.497316   2.633309   3.811337   4.220027
    23  H    5.003743   2.520976   3.812242   4.326519   4.992580
    24  H    4.156368   4.136202   5.036747   4.989242   5.006935
    25  H    2.883672   5.014877   5.094030   5.019565   4.222757
    26  H    5.123788   4.333075   5.017217   4.127984   4.316894
    27  H    5.292696   4.142591   3.740882   2.480748   2.460336
    28  H    3.828407   5.018814   4.367343   3.738651   2.529545
    29  H    6.423639   2.518063   3.767054   2.528752   4.133645
    30  H    6.069390   2.516935   4.348328   3.760380   4.994565
    31  H    2.796737   5.137958   3.776133   5.141725   3.918798
    32  H    4.074387   3.835560   2.158900   3.766327   3.169907
    33  H    4.410680   6.149474   3.934137   5.322284   3.792924
    34  H    4.395291   5.334406   2.950794   3.913572   2.180419
    35  H    2.738304   7.209590   5.366445   6.387904   4.282645
    36  H    3.977948   7.487764   5.309116   6.093750   3.808441
    37  H    2.597198   7.339119   5.747024   6.065567   3.714880
    38  H    3.371050   6.164796   4.393657   4.521710   2.101532
    39  H    1.111611   6.155880   5.633567   6.187354   4.793353
    40  H    1.114299   7.334615   6.296534   6.816876   4.882725
    41  H    1.110978   6.523958   5.399418   6.340526   4.639330
                   21         22         23         24         25
    21  H    0.000000
    22  H    2.488707   0.000000
    23  H    2.458294   1.770504   0.000000
    24  H    2.496005   3.733326   2.467819   0.000000
    25  H    2.566387   4.374150   3.734400   1.777709   0.000000
    26  H    4.341958   5.016799   4.124914   2.526145   2.484762
    27  H    5.010368   5.041079   4.989296   4.338539   3.792109
    28  H    4.222447   5.092485   5.019572   3.804751   2.596719
    29  H    5.010645   4.347396   3.762161   3.772205   4.336866
    30  H    4.162718   3.766578   2.531063   2.540982   3.764371
    31  H    2.530690   3.007035   4.220378   4.878884   4.436737
    32  H    3.132039   2.160564   3.764493   4.980900   4.843129
    33  H    4.853871   4.611177   6.145766   6.904528   6.222451
    34  H    4.802810   4.463935   5.805002   6.318495   5.547159
    35  H    4.464642   5.476814   6.532313   6.455223   5.310342
    36  H    5.627442   6.226849   7.377489   7.303455   6.058610
    37  H    4.847572   6.245885   6.819962   5.928592   4.331827
    38  H    4.763909   5.516365   6.216576   5.652655   4.286438
    39  H    2.183166   4.564171   4.503999   3.383485   2.290420
    40  H    3.709115   5.804045   6.047294   4.920634   3.439188
    41  H    2.761269   4.575891   5.159112   4.781436   3.789234
                   26         27         28         29         30
    26  H    0.000000
    27  H    2.520920   0.000000
    28  H    2.502085   1.778980   0.000000
    29  H    2.516095   2.541064   3.774101   0.000000
    30  H    2.515488   3.771013   4.347954   1.790523   0.000000
    31  H    6.076072   5.697998   4.972281   6.280872   5.991567
    32  H    5.774563   4.986614   4.833492   5.291413   5.291842
    33  H    7.427241   6.183211   5.732919   7.248874   7.515066
    34  H    6.269069   4.637447   4.427851   5.983693   6.590173
    35  H    7.086361   6.306192   5.184630   7.752381   7.804186
    36  H    7.355782   5.997285   5.111576   7.803303   8.251200
    37  H    5.819359   5.031893   3.575747   7.015712   7.299268
    38  H    5.115086   3.694698   2.709664   5.800520   6.419128
    39  H    4.732135   5.425373   3.994432   6.209774   5.580330
    40  H    5.666713   5.835696   4.199123   7.216344   6.929256
    41  H    5.999565   6.037027   4.728759   7.022197   6.612014
                   31         32         33         34         35
    31  H    0.000000
    32  H    1.762508   0.000000
    33  H    2.487793   2.473793   0.000000
    34  H    3.124638   2.504838   1.782166   0.000000
    35  H    2.631814   3.795775   2.489409   3.122379   0.000000
    36  H    3.808675   4.299840   2.522730   2.490254   1.783097
    37  H    4.181395   4.964947   4.323080   3.804418   2.541839
    38  H    4.050923   4.169216   3.807599   2.626599   3.133295
    39  H    3.270160   4.469917   5.262849   5.217588   3.792669
    40  H    3.765641   5.084144   5.052290   5.028914   2.954478
    41  H    2.158673   3.752635   3.856569   4.281250   2.215193
                   36         37         38         39         40
    36  H    0.000000
    37  H    2.511060   0.000000
    38  H    2.493618   1.757291   0.000000
    39  H    5.067808   3.563913   4.219269   0.000000
    40  H    4.080481   2.281801   3.567701   1.757915   0.000000
    41  H    3.798945   3.109985   3.862320   1.797706   1.797694
                   41
    41  H    0.000000
 Stoichiometry    C15H25N
 Framework group  C1[X(C15H25N)]
 Deg. of freedom   117
 Full point group                 C1      NOp   1
 Largest Abelian subgroup         C1      NOp   1
 Largest concise Abelian subgroup C1      NOp   1
                         Standard orientation:                         
 ---------------------------------------------------------------------
 Center     Atomic      Atomic             Coordinates (Angstroms)
 Number     Number       Type             X           Y           Z
 ---------------------------------------------------------------------
      1          6           0       -2.371751   -1.108932   -0.400945
      2          6           0       -1.324768   -1.720659    0.539970
      3          6           0       -0.308420   -0.641267    0.964972
      4          6           0        0.483112   -0.028844   -0.237563
      5          6           0       -0.634191    0.547478   -1.166760
      6          6           0       -1.658172   -0.513259   -1.622394
      7          6           0       -1.424268    1.663632   -0.448930
      8          6           0       -2.133771    1.082897    0.784451
      9          6           0       -1.086592    0.457559    1.719843
     10          6           0       -3.133306    0.003414    0.338258
     11          6           0        1.313056   -1.097023   -1.010971
     12          6           0        2.429091   -1.656701   -0.113342
     13          6           0        3.331211   -0.504152    0.338276
     14          6           0        2.468980    0.526992    1.082917
     15          7           0        1.403204    1.041820    0.219785
     16          6           0        1.964958    1.881561   -0.835871
     17          1           0       -3.092766   -1.897991   -0.730250
     18          1           0       -0.821302   -2.587961    0.055431
     19          1           0       -1.834486   -2.142481    1.438810
     20          1           0        0.374342   -1.129722    1.696221
     21          1           0       -0.178572    0.958272   -2.098993
     22          1           0       -1.177155   -1.317894   -2.223738
     23          1           0       -2.410900   -0.050584   -2.304247
     24          1           0       -2.173586    2.113665   -1.142423
     25          1           0       -0.762213    2.502209   -0.133805
     26          1           0       -2.682062    1.895876    1.322416
     27          1           0       -1.592179    0.027251    2.616800
     28          1           0       -0.397836    1.243610    2.108092
     29          1           0       -3.669565   -0.416166    1.222220
     30          1           0       -3.910729    0.447973   -0.327322
     31          1           0        1.747452   -0.676177   -1.946010
     32          1           0        0.692321   -1.954965   -1.347818
     33          1           0        3.036504   -2.394527   -0.691127
     34          1           0        2.019282   -2.213056    0.760921
     35          1           0        3.874621   -0.056292   -0.525679
     36          1           0        4.116483   -0.897089    1.028026
     37          1           0        3.112153    1.367770    1.436879
     38          1           0        2.053362    0.092055    2.019620
     39          1           0        1.183171    2.487917   -1.342648
     40          1           0        2.663557    2.635920   -0.406262
     41          1           0        2.516660    1.313464   -1.615078
 ---------------------------------------------------------------------
 Rotational constants (GHZ):      1.0203073      0.4765444      0.4402766
 Standard basis: 6-31+G(d,p) (6D, 7F)
 There are   429 symmetry adapted basis functions of A   symmetry.
 Integral buffers will be    131072 words long.
 Raffenetti 2 integral format.
 Two-electron integral symmetry is turned on.
   429 basis functions,   687 primitive gaussians,   429 cartesian basis functions
    61 alpha electrons       61 beta electrons
       nuclear repulsion energy      1290.7508474533 Hartrees.
 NAtoms=   41 NActive=   41 NUniq=   41 SFac= 7.50D-01 NAtFMM=   80 NAOKFM=F Big=F
 One-electron integrals computed using PRISM.
 NBasis=   429 RedAO= T  NBF=   429
 NBsUse=   429 1.00D-06 NBFU=   429
 Harris functional with IExCor=  402 diagonalized for initial guess.
 ExpMin= 4.38D-02 ExpMax= 4.17D+03 ExpMxC= 6.27D+02 IAcc=2 IRadAn=         0 AccDes= 0.00D+00
 HarFok:  IExCor=  402 AccDes= 0.00D+00 IRadAn=         0 IDoV= 1
 ScaDFX=  1.000000  1.000000  1.000000  1.000000
 FoFCou: FMM=F IPFlag=           0 FMFlag=      100000 FMFlg1=           0
         NFxFlg=           0 DoJE=T BraDBF=F KetDBF=T FulRan=T
         Omega=  0.000000  0.000000  1.000000  0.000000  0.000000 ICntrl=     500 IOpCl=  0
         NMat0=    1 NMatS0=    1 NMatT0=    0 NMatD0=    1 NMtDS0=    0 NMtDT0=    0
         I1Cent=           4 NGrid=           0.
 Petite list used in FoFCou.
 Initial guess orbital symmetries:
       Occupied  (A) (A) (A) (A) (A) (A) (A) (A) (A) (A) (A) (A)
                 (A) (A) (A) (A) (A) (A) (A) (A) (A) (A) (A) (A)
                 (A) (A) (A) (A) (A) (A) (A) (A) (A) (A) (A) (A)
                 (A) (A) (A) (A) (A) (A) (A) (A) (A) (A) (A) (A)
                 (A) (A) (A) (A) (A) (A) (A) (A) (A) (A) (A) (A)
                 (A)
       Virtual   (A) (A) (A) (A) (A) (A) (A) (A) (A) (A) (A) (A)
                 (A) (A) (A) (A) (A) (A) (A) (A) (A) (A) (A) (A)
                 (A) (A) (A) (A) (A) (A) (A) (A) (A) (A) (A) (A)
                 (A) (A) (A) (A) (A) (A) (A) (A) (A) (A) (A) (A)
                 (A) (A) (A) (A) (A) (A) (A) (A) (A) (A) (A) (A)
                 (A) (A) (A) (A) (A) (A) (A) (A) (A) (A) (A) (A)
                 (A) (A) (A) (A) (A) (A) (A) (A) (A) (A) (A) (A)
                 (A) (A) (A) (A) (A) (A) (A) (A) (A) (A) (A) (A)
                 (A) (A) (A) (A) (A) (A) (A) (A) (A) (A) (A) (A)
                 (A) (A) (A) (A) (A) (A) (A) (A) (A) (A) (A) (A)
                 (A) (A) (A) (A) (A) (A) (A) (A) (A) (A) (A) (A)
                 (A) (A) (A) (A) (A) (A) (A) (A) (A) (A) (A) (A)
                 (A) (A) (A) (A) (A) (A) (A) (A) (A) (A) (A) (A)
                 (A) (A) (A) (A) (A) (A) (A) (A) (A) (A) (A) (A)
                 (A) (A) (A) (A) (A) (A) (A) (A) (A) (A) (A) (A)
                 (A) (A) (A) (A) (A) (A) (A) (A) (A) (A) (A) (A)
                 (A) (A) (A) (A) (A) (A) (A) (A) (A) (A) (A) (A)
                 (A) (A) (A) (A) (A) (A) (A) (A) (A) (A) (A) (A)
                 (A) (A) (A) (A) (A) (A) (A) (A) (A) (A) (A) (A)
                 (A) (A) (A) (A) (A) (A) (A) (A) (A) (A) (A) (A)
                 (A) (A) (A) (A) (A) (A) (A) (A) (A) (A) (A) (A)
                 (A) (A) (A) (A) (A) (A) (A) (A) (A) (A) (A) (A)
                 (A) (A) (A) (A) (A) (A) (A) (A) (A) (A) (A) (A)
                 (A) (A) (A) (A) (A) (A) (A) (A) (A) (A) (A) (A)
                 (A) (A) (A) (A) (A) (A) (A) (A) (A) (A) (A) (A)
                 (A) (A) (A) (A) (A) (A) (A) (A) (A) (A) (A) (A)
                 (A) (A) (A) (A) (A) (A) (A) (A) (A) (A) (A) (A)
                 (A) (A) (A) (A) (A) (A) (A) (A) (A) (A) (A) (A)
                 (A) (A) (A) (A) (A) (A) (A) (A) (A) (A) (A) (A)
                 (A) (A) (A) (A) (A) (A) (A) (A) (A) (A) (A) (A)
                 (A) (A) (A) (A) (A) (A) (A) (A)
 The electronic state of the initial guess is 1-A.
 Requested convergence on RMS density matrix=1.00D-08 within 128 cycles.
 Requested convergence on MAX density matrix=1.00D-06.
 Requested convergence on             energy=1.00D-06.
 No special actions if energy rises.
 SCF Done:  E(RB3LYP) =  -641.444924870     A.U. after   14 cycles
             Convg  =    0.4982D-08             -V/T =  2.0105

 **********************************************************************

            Population analysis using the SCF density.

 **********************************************************************

 Orbital symmetries:
       Occupied  (A) (A) (A) (A) (A) (A) (A) (A) (A) (A) (A) (A)
                 (A) (A) (A) (A) (A) (A) (A) (A) (A) (A) (A) (A)
                 (A) (A) (A) (A) (A) (A) (A) (A) (A) (A) (A) (A)
                 (A) (A) (A) (A) (A) (A) (A) (A) (A) (A) (A) (A)
                 (A) (A) (A) (A) (A) (A) (A) (A) (A) (A) (A) (A)
                 (A)
       Virtual   (A) (A) (A) (A) (A) (A) (A) (A) (A) (A) (A) (A)
                 (A) (A) (A) (A) (A) (A) (A) (A) (A) (A) (A) (A)
                 (A) (A) (A) (A) (A) (A) (A) (A) (A) (A) (A) (A)
                 (A) (A) (A) (A) (A) (A) (A) (A) (A) (A) (A) (A)
                 (A) (A) (A) (A) (A) (A) (A) (A) (A) (A) (A) (A)
                 (A) (A) (A) (A) (A) (A) (A) (A) (A) (A) (A) (A)
                 (A) (A) (A) (A) (A) (A) (A) (A) (A) (A) (A) (A)
                 (A) (A) (A) (A) (A) (A) (A) (A) (A) (A) (A) (A)
                 (A) (A) (A) (A) (A) (A) (A) (A) (A) (A) (A) (A)
                 (A) (A) (A) (A) (A) (A) (A) (A) (A) (A) (A) (A)
                 (A) (A) (A) (A) (A) (A) (A) (A) (A) (A) (A) (A)
                 (A) (A) (A) (A) (A) (A) (A) (A) (A) (A) (A) (A)
                 (A) (A) (A) (A) (A) (A) (A) (A) (A) (A) (A) (A)
                 (A) (A) (A) (A) (A) (A) (A) (A) (A) (A) (A) (A)
                 (A) (A) (A) (A) (A) (A) (A) (A) (A) (A) (A) (A)
                 (A) (A) (A) (A) (A) (A) (A) (A) (A) (A) (A) (A)
                 (A) (A) (A) (A) (A) (A) (A) (A) (A) (A) (A) (A)
                 (A) (A) (A) (A) (A) (A) (A) (A) (A) (A) (A) (A)
                 (A) (A) (A) (A) (A) (A) (A) (A) (A) (A) (A) (A)
                 (A) (A) (A) (A) (A) (A) (A) (A) (A) (A) (A) (A)
                 (A) (A) (A) (A) (A) (A) (A) (A) (A) (A) (A) (A)
                 (A) (A) (A) (A) (A) (A) (A) (A) (A) (A) (A) (A)
                 (A) (A) (A) (A) (A) (A) (A) (A) (A) (A) (A) (A)
                 (A) (A) (A) (A) (A) (A) (A) (A) (A) (A) (A) (A)
                 (A) (A) (A) (A) (A) (A) (A) (A) (A) (A) (A) (A)
                 (A) (A) (A) (A) (A) (A) (A) (A) (A) (A) (A) (A)
                 (A) (A) (A) (A) (A) (A) (A) (A) (A) (A) (A) (A)
                 (A) (A) (A) (A) (A) (A) (A) (A) (A) (A) (A) (A)
                 (A) (A) (A) (A) (A) (A) (A) (A) (A) (A) (A) (A)
                 (A) (A) (A) (A) (A) (A) (A) (A) (A) (A) (A) (A)
                 (A) (A) (A) (A) (A) (A) (A) (A)
 The electronic state is 1-A.
 Alpha  occ. eigenvalues --  -14.32300 -10.22032 -10.20722 -10.20415 -10.18565
 Alpha  occ. eigenvalues --  -10.18542 -10.18369 -10.18367 -10.18131 -10.18060
 Alpha  occ. eigenvalues --  -10.18029 -10.17988 -10.17948 -10.17619 -10.17370
 Alpha  occ. eigenvalues --  -10.17293  -0.92726  -0.86039  -0.78825  -0.76983
 Alpha  occ. eigenvalues --   -0.76322  -0.76068  -0.71361  -0.68462  -0.65700
 Alpha  occ. eigenvalues --   -0.62861  -0.61543  -0.59024  -0.57250  -0.56802
 Alpha  occ. eigenvalues --   -0.54247  -0.51477  -0.48293  -0.46376  -0.45153
 Alpha  occ. eigenvalues --   -0.45076  -0.44243  -0.42997  -0.42652  -0.42051
 Alpha  occ. eigenvalues --   -0.41175  -0.40916  -0.39134  -0.38920  -0.38672
 Alpha  occ. eigenvalues --   -0.38293  -0.37739  -0.36651  -0.35025  -0.34876
 Alpha  occ. eigenvalues --   -0.34179  -0.33076  -0.32415  -0.32226  -0.31682
 Alpha  occ. eigenvalues --   -0.31334  -0.30400  -0.27881  -0.27587  -0.27029
 Alpha  occ. eigenvalues --   -0.20205
 Alpha virt. eigenvalues --   -0.00643   0.00635   0.00993   0.01239   0.02534
 Alpha virt. eigenvalues --    0.02826   0.02895   0.02967   0.03542   0.05103
 Alpha virt. eigenvalues --    0.05416   0.05718   0.05781   0.05910   0.07019
 Alpha virt. eigenvalues --    0.07423   0.08439   0.08690   0.08914   0.09372
 Alpha virt. eigenvalues --    0.09504   0.09939   0.10408   0.10754   0.11485
 Alpha virt. eigenvalues --    0.12345   0.12733   0.12955   0.13346   0.13519
 Alpha virt. eigenvalues --    0.13786   0.14431   0.14924   0.15260   0.15671
 Alpha virt. eigenvalues --    0.16055   0.16261   0.16542   0.17098   0.17510
 Alpha virt. eigenvalues --    0.17696   0.18186   0.18387   0.18715   0.18892
 Alpha virt. eigenvalues --    0.19070   0.19180   0.19440   0.19559   0.19885
 Alpha virt. eigenvalues --    0.20381   0.20563   0.20797   0.21361   0.21516
 Alpha virt. eigenvalues --    0.21827   0.22601   0.22799   0.22939   0.23235
 Alpha virt. eigenvalues --    0.23559   0.23829   0.24391   0.24783   0.25109
 Alpha virt. eigenvalues --    0.25292   0.25835   0.26429   0.26740   0.26905
 Alpha virt. eigenvalues --    0.27417   0.27801   0.28164   0.28418   0.28876
 Alpha virt. eigenvalues --    0.29410   0.29619   0.29756   0.30599   0.30965
 Alpha virt. eigenvalues --    0.31077   0.31606   0.32633   0.33141   0.33853
 Alpha virt. eigenvalues --    0.34097   0.35053   0.35354   0.35755   0.36362
 Alpha virt. eigenvalues --    0.37198   0.37504   0.37896   0.38566   0.39518
 Alpha virt. eigenvalues --    0.40275   0.40518   0.41009   0.41740   0.42610
 Alpha virt. eigenvalues --    0.43604   0.44609   0.47436   0.48220   0.49267
 Alpha virt. eigenvalues --    0.50187   0.51845   0.56589   0.62722   0.64250
 Alpha virt. eigenvalues --    0.66021   0.66698   0.67501   0.68206   0.69464
 Alpha virt. eigenvalues --    0.70618   0.71264   0.71926   0.72344   0.73577
 Alpha virt. eigenvalues --    0.74087   0.74592   0.75802   0.77010   0.77683
 Alpha virt. eigenvalues --    0.78972   0.79490   0.79901   0.81220   0.82192
 Alpha virt. eigenvalues --    0.83084   0.83526   0.83596   0.84981   0.85535
 Alpha virt. eigenvalues --    0.86364   0.87364   0.88400   0.89102   0.90862
 Alpha virt. eigenvalues --    0.92012   0.93292   0.94950   0.96499   0.97175
 Alpha virt. eigenvalues --    0.98043   0.98408   0.98470   0.99037   1.00261
 Alpha virt. eigenvalues --    1.00938   1.01842   1.03477   1.04621   1.05050
 Alpha virt. eigenvalues --    1.06473   1.07490   1.09468   1.10307   1.11407
 Alpha virt. eigenvalues --    1.12030   1.12258   1.12915   1.13381   1.13916
 Alpha virt. eigenvalues --    1.14702   1.15045   1.16218   1.16710   1.17221
 Alpha virt. eigenvalues --    1.17644   1.18029   1.18764   1.19229   1.20234
 Alpha virt. eigenvalues --    1.21057   1.21360   1.21697   1.22888   1.26176
 Alpha virt. eigenvalues --    1.28174   1.29497   1.31445   1.33957   1.38577
 Alpha virt. eigenvalues --    1.41012   1.42343   1.44705   1.45931   1.48749
 Alpha virt. eigenvalues --    1.50245   1.51358   1.53027   1.53608   1.57037
 Alpha virt. eigenvalues --    1.57976   1.58436   1.63028   1.65139   1.65961
 Alpha virt. eigenvalues --    1.67665   1.70094   1.71775   1.72822   1.75739
 Alpha virt. eigenvalues --    1.76599   1.78311   1.79447   1.81422   1.81959
 Alpha virt. eigenvalues --    1.82326   1.82886   1.84062   1.85780   1.86059
 Alpha virt. eigenvalues --    1.86756   1.87557   1.88206   1.90539   1.92277
 Alpha virt. eigenvalues --    1.93812   1.94827   1.95864   1.97527   1.99302
 Alpha virt. eigenvalues --    1.99895   2.00234   2.00765   2.01141   2.01941
 Alpha virt. eigenvalues --    2.03600   2.03998   2.04565   2.06208   2.06480
 Alpha virt. eigenvalues --    2.08826   2.09608   2.10063   2.11294   2.12267
 Alpha virt. eigenvalues --    2.14099   2.14866   2.15348   2.16348   2.16724
 Alpha virt. eigenvalues --    2.17563   2.17827   2.17989   2.20060   2.20989
 Alpha virt. eigenvalues --    2.21051   2.21560   2.22991   2.26154   2.28694
 Alpha virt. eigenvalues --    2.31681   2.33249   2.33764   2.34568   2.35743
 Alpha virt. eigenvalues --    2.36447   2.37005   2.38011   2.38367   2.38840
 Alpha virt. eigenvalues --    2.40399   2.41276   2.43137   2.46925   2.47259
 Alpha virt. eigenvalues --    2.47672   2.49006   2.50655   2.51821   2.52133
 Alpha virt. eigenvalues --    2.52874   2.54430   2.54804   2.56090   2.56694
 Alpha virt. eigenvalues --    2.56754   2.59475   2.59584   2.60800   2.63077
 Alpha virt. eigenvalues --    2.63631   2.65155   2.66644   2.67815   2.69435
 Alpha virt. eigenvalues --    2.70332   2.70943   2.71606   2.72097   2.72896
 Alpha virt. eigenvalues --    2.73543   2.74858   2.75177   2.76628   2.77254
 Alpha virt. eigenvalues --    2.78071   2.81203   2.81492   2.81790   2.82979
 Alpha virt. eigenvalues --    2.83291   2.84349   2.85429   2.85736   2.85984
 Alpha virt. eigenvalues --    2.86881   2.89263   2.89762   2.90430   2.91635
 Alpha virt. eigenvalues --    2.93081   2.94008   2.94972   2.95245   2.97003
 Alpha virt. eigenvalues --    2.97427   2.98269   3.01147   3.03631   3.06982
 Alpha virt. eigenvalues --    3.11508   3.21151   3.24374   3.30060   3.30529
 Alpha virt. eigenvalues --    3.31847   3.32293   3.33425   3.34875   3.35810
 Alpha virt. eigenvalues --    3.36437   3.38288   3.45773   3.46065   3.46531
 Alpha virt. eigenvalues --    3.47471   3.49261   3.50000   3.50748   3.51636
 Alpha virt. eigenvalues --    3.51931   3.52729   3.53545   3.53901   3.56028
 Alpha virt. eigenvalues --    3.57082   3.58487   4.42804   4.50463   4.52043
 Alpha virt. eigenvalues --    4.54000   4.55614   4.59350   4.63626   4.68253
 Alpha virt. eigenvalues --    4.78140   4.81500   4.86238   4.88689   4.92716
 Alpha virt. eigenvalues --    5.01660   5.04722   5.06952
          Condensed to atoms (all electrons):
              1          2          3          4          5          6
     1  C    7.501669  -0.590907  -0.300119  -0.629128  -0.411759  -0.581788
     2  C   -0.590907   8.104044  -3.167753   2.806186   0.433222   0.285934
     3  C   -0.300119  -3.167753  21.525673  -8.632464  -6.651933   0.414898
     4  C   -0.629128   2.806186  -8.632464  34.352179  -7.436755   1.512262
     5  C   -0.411759   0.433222  -6.651933  -7.436755  22.102553  -2.305734
     6  C   -0.581788   0.285934   0.414898   1.512262  -2.305734   7.656509
     7  C    0.665240  -0.629626   2.045940  -2.089585  -2.432456  -0.728798
     8  C   -1.093990   0.846888  -2.437011   3.405381  -0.469885   0.887899
     9  C    0.941818  -1.074624   0.053677  -3.943088   1.022587  -0.788435
    10  C    0.008802  -0.209711   0.801104  -0.557672   0.216609  -0.093506
    11  C    0.167247  -0.860776  -0.204804  -5.331213   1.905560  -0.096962
    12  C   -0.114720   0.375314  -0.027335   1.080362  -0.580921   0.112100
    13  C   -0.014852   0.089226  -0.348250   0.702569   0.069648   0.036588
    14  C    0.026737  -0.407693   1.018208  -2.527798  -0.372627  -0.035208
    15  N    0.158688  -0.363940   1.859807  -4.218291   0.190062  -0.372779
    16  C    0.023291   0.028609  -0.294566  -0.627852   0.404730  -0.174920
    17  H    0.206514  -0.020231   0.066496  -0.030978   0.062751  -0.018765
    18  H   -0.024162   0.459856  -0.061664   0.037472  -0.058526  -0.017712
    19  H   -0.057291   0.445405  -0.051785  -0.045195   0.015180   0.023210
    20  H    0.048378   0.040082  -0.091368   0.238197   0.078212  -0.011232
    21  H    0.041473  -0.014451   0.044667   0.137932   0.029302   0.046363
    22  H   -0.020517  -0.018067  -0.049834  -0.025835  -0.028577   0.462343
    23  H   -0.069134   0.022701  -0.000040  -0.022815  -0.062271   0.454688
    24  H    0.001409   0.007587  -0.014984   0.057293  -0.098212   0.009820
    25  H   -0.015525   0.012004   0.001080  -0.225445   0.017036  -0.014808
    26  H    0.041458  -0.016718   0.078683  -0.068212   0.072744  -0.017812
    27  H   -0.008793   0.003825  -0.111279   0.085432   0.004027   0.012323
    28  H   -0.008788  -0.015258   0.027546  -0.249036   0.002685   0.007615
    29  H   -0.074199   0.010061  -0.012015   0.033495  -0.063692   0.028681
    30  H   -0.066091   0.029243  -0.057833   0.023611   0.002728   0.004693
    31  H   -0.008123   0.020528  -0.047504  -0.054425   0.030263  -0.001911
    32  H    0.036958  -0.024125  -0.005570   0.045451  -0.031914  -0.047572
    33  H   -0.001448  -0.002747   0.018263  -0.051615  -0.017791  -0.001086
    34  H   -0.002780   0.003102  -0.054764   0.101902  -0.003242  -0.000751
    35  H   -0.000263  -0.000633  -0.002355  -0.027684  -0.001989  -0.000434
    36  H    0.000471  -0.001946   0.031717  -0.035192  -0.003448   0.000071
    37  H    0.000749  -0.000197   0.046785  -0.079642  -0.010920  -0.000285
    38  H    0.002753  -0.004153  -0.028514   0.027913   0.000416   0.000470
    39  H    0.006667  -0.002053   0.057110  -0.071777  -0.020407  -0.003761
    40  H    0.001091  -0.001575   0.003385  -0.093265  -0.014648  -0.005286
    41  H   -0.005627   0.005476  -0.043926   0.128866   0.023430   0.009593
              7          8          9         10         11         12
     1  C    0.665240  -1.093990   0.941818   0.008802   0.167247  -0.114720
     2  C   -0.629626   0.846888  -1.074624  -0.209711  -0.860776   0.375314
     3  C    2.045940  -2.437011   0.053677   0.801104  -0.204804  -0.027335
     4  C   -2.089585   3.405381  -3.943088  -0.557672  -5.331213   1.080362
     5  C   -2.432456  -0.469885   1.022587   0.216609   1.905560  -0.580921
     6  C   -0.728798   0.887899  -0.788435  -0.093506  -0.096962   0.112100
     7  C    8.497890  -1.428065   1.241851  -0.042315  -0.766194  -0.131149
     8  C   -1.428065   8.297975  -1.444708  -0.096829   0.353529   0.067965
     9  C    1.241851  -1.444708   8.691574  -0.128794  -0.253536  -0.325445
    10  C   -0.042315  -0.096829  -0.128794   5.679359   0.012596   0.001276
    11  C   -0.766194   0.353529  -0.253536   0.012596  12.534218  -1.049685
    12  C   -0.131149   0.067965  -0.325445   0.001276  -1.049685   6.400306
    13  C   -0.060548   0.029756  -0.045100   0.000591  -0.339163   0.294457
    14  C    0.304490  -0.233506   0.361363   0.024782   0.384319  -0.304819
    15  N    0.909104  -0.746732   0.965646   0.056178  -0.835049  -0.246546
    16  C    0.077638  -0.076732   0.157277  -0.008875  -0.139821  -0.004981
    17  H   -0.000321   0.025029  -0.001368   0.006071  -0.014997  -0.000833
    18  H    0.019056  -0.025296  -0.005088   0.017246  -0.029090  -0.001271
    19  H   -0.005874   0.010990  -0.015410  -0.022801   0.018557  -0.000833
    20  H   -0.011032   0.056318   0.041133  -0.025973  -0.019094  -0.038407
    21  H    0.006047   0.048240  -0.014129  -0.018621  -0.008455   0.003050
    22  H   -0.012583  -0.018201   0.010471   0.011816   0.006278  -0.003776
    23  H   -0.005178   0.005829   0.000408  -0.011226   0.002253  -0.000968
    24  H    0.410435  -0.043069   0.012076  -0.016683  -0.005033   0.000273
    25  H    0.542282  -0.079039   0.017948   0.013042  -0.029063  -0.001231
    26  H    0.004647   0.159706   0.009439   0.011768   0.000728  -0.000003
    27  H    0.016646  -0.041939   0.383747  -0.016110  -0.005590  -0.001385
    28  H    0.011093  -0.074752   0.556330   0.014134  -0.017085  -0.005536
    29  H    0.011550  -0.053766  -0.004943   0.434721   0.000839   0.000232
    30  H   -0.019792  -0.028521   0.005143   0.415397   0.002628   0.000005
    31  H   -0.004728   0.006759  -0.007845  -0.002333   0.449574  -0.004882
    32  H    0.001128  -0.008855   0.006973   0.001522   0.295263   0.008389
    33  H    0.000117  -0.000778   0.001702   0.000215  -0.074095   0.452341
    34  H    0.002516   0.000070   0.002660  -0.000675  -0.131523   0.458401
    35  H    0.001950  -0.000262   0.000119  -0.000025   0.049035  -0.090964
    36  H    0.000637  -0.000296   0.001581   0.000028   0.035635  -0.073056
    37  H    0.002646  -0.001819   0.005150  -0.000008  -0.001494   0.027667
    38  H    0.014332  -0.008313   0.002640  -0.001991  -0.047056  -0.016155
    39  H   -0.016664   0.000200   0.009580  -0.001367  -0.040521   0.001737
    40  H    0.021331  -0.003179   0.007771  -0.000323   0.018233  -0.002061
    41  H   -0.025354   0.005406  -0.012501   0.001034   0.010902   0.028252
             13         14         15         16         17         18
     1  C   -0.014852   0.026737   0.158688   0.023291   0.206514  -0.024162
     2  C    0.089226  -0.407693  -0.363940   0.028609  -0.020231   0.459856
     3  C   -0.348250   1.018208   1.859807  -0.294566   0.066496  -0.061664
     4  C    0.702569  -2.527798  -4.218291  -0.627852  -0.030978   0.037472
     5  C    0.069648  -0.372627   0.190062   0.404730   0.062751  -0.058526
     6  C    0.036588  -0.035208  -0.372779  -0.174920  -0.018765  -0.017712
     7  C   -0.060548   0.304490   0.909104   0.077638  -0.000321   0.019056
     8  C    0.029756  -0.233506  -0.746732  -0.076732   0.025029  -0.025296
     9  C   -0.045100   0.361363   0.965646   0.157277  -0.001368  -0.005088
    10  C    0.000591   0.024782   0.056178  -0.008875   0.006071   0.017246
    11  C   -0.339163   0.384319  -0.835049  -0.139821  -0.014997  -0.029090
    12  C    0.294457  -0.304819  -0.246546  -0.004981  -0.000833  -0.001271
    13  C    5.609427  -0.042305  -0.251084  -0.061509  -0.000111   0.002146
    14  C   -0.042305   6.431227   0.677877  -0.071604   0.000489  -0.002905
    15  N   -0.251084   0.677877   8.929267   0.288715   0.001516  -0.000166
    16  C   -0.061509  -0.071604   0.288715   5.360501   0.000175  -0.000075
    17  H   -0.000111   0.000489   0.001516   0.000175   0.632512  -0.005136
    18  H    0.002146  -0.002905  -0.000166  -0.000075  -0.005136   0.597449
    19  H   -0.000442  -0.001569  -0.000778  -0.000054  -0.003611  -0.032241
    20  H    0.014432  -0.050822  -0.010204   0.003359  -0.000160  -0.004600
    21  H   -0.000765   0.001670  -0.026938  -0.009897  -0.000150  -0.000030
    22  H    0.001420  -0.001130  -0.000796  -0.001925  -0.005136   0.002315
    23  H   -0.000176  -0.000089  -0.000999  -0.000932  -0.003513   0.000062
    24  H    0.000152  -0.003029  -0.013218  -0.001870  -0.000078  -0.000002
    25  H    0.000148   0.005752   0.062249   0.010669   0.000019  -0.000003
    26  H   -0.000057   0.000757   0.005130  -0.000393  -0.000151   0.000019
    27  H    0.000111  -0.004369  -0.012056  -0.001366  -0.000072   0.000124
    28  H    0.002727   0.018496   0.051054  -0.000059   0.000018  -0.000144
    29  H   -0.000001   0.000222  -0.001112  -0.000373  -0.004192   0.000068
    30  H    0.000045  -0.000570  -0.001198   0.000163  -0.004251  -0.000147
    31  H   -0.018228  -0.017095  -0.021109  -0.012849   0.000000   0.000084
    32  H    0.018277   0.001146   0.015938   0.004025  -0.000053   0.000438
    33  H   -0.049887   0.037366   0.007643   0.004193   0.000000  -0.000026
    34  H   -0.064468  -0.003094   0.000057   0.001551   0.000001   0.000619
    35  H    0.469289  -0.093542   0.010988   0.001399   0.000000   0.000001
    36  H    0.386304  -0.039964   0.016055   0.000275   0.000000   0.000000
    37  H   -0.065724   0.416105  -0.023033  -0.015183   0.000000   0.000000
    38  H   -0.068133   0.439762  -0.025632   0.008287   0.000000   0.000009
    39  H   -0.003525   0.012242  -0.022399   0.438292   0.000000   0.000000
    40  H   -0.007437   0.010578  -0.028271   0.436083   0.000000   0.000000
    41  H    0.005893  -0.043355  -0.149419   0.400900   0.000000   0.000000
             19         20         21         22         23         24
     1  C   -0.057291   0.048378   0.041473  -0.020517  -0.069134   0.001409
     2  C    0.445405   0.040082  -0.014451  -0.018067   0.022701   0.007587
     3  C   -0.051785  -0.091368   0.044667  -0.049834  -0.000040  -0.014984
     4  C   -0.045195   0.238197   0.137932  -0.025835  -0.022815   0.057293
     5  C    0.015180   0.078212   0.029302  -0.028577  -0.062271  -0.098212
     6  C    0.023210  -0.011232   0.046363   0.462343   0.454688   0.009820
     7  C   -0.005874  -0.011032   0.006047  -0.012583  -0.005178   0.410435
     8  C    0.010990   0.056318   0.048240  -0.018201   0.005829  -0.043069
     9  C   -0.015410   0.041133  -0.014129   0.010471   0.000408   0.012076
    10  C   -0.022801  -0.025973  -0.018621   0.011816  -0.011226  -0.016683
    11  C    0.018557  -0.019094  -0.008455   0.006278   0.002253  -0.005033
    12  C   -0.000833  -0.038407   0.003050  -0.003776  -0.000968   0.000273
    13  C   -0.000442   0.014432  -0.000765   0.001420  -0.000176   0.000152
    14  C   -0.001569  -0.050822   0.001670  -0.001130  -0.000089  -0.003029
    15  N   -0.000778  -0.010204  -0.026938  -0.000796  -0.000999  -0.013218
    16  C   -0.000054   0.003359  -0.009897  -0.001925  -0.000932  -0.001870
    17  H   -0.003611  -0.000160  -0.000150  -0.005136  -0.003513  -0.000078
    18  H   -0.032241  -0.004600  -0.000030   0.002315   0.000062  -0.000002
    19  H    0.589872  -0.004595   0.000018   0.000062  -0.000152  -0.000002
    20  H   -0.004595   0.640712  -0.000141  -0.000034   0.000018   0.000017
    21  H    0.000018  -0.000141   0.631578  -0.004515  -0.004720  -0.004249
    22  H    0.000062  -0.000034  -0.004515   0.596406  -0.032627   0.000146
    23  H   -0.000152   0.000018  -0.004720  -0.032627   0.588531   0.003232
    24  H   -0.000002   0.000017  -0.004249   0.000146   0.003232   0.605428
    25  H   -0.000002  -0.000016  -0.003562  -0.000141   0.000120  -0.033368
    26  H   -0.000071  -0.000162  -0.000150   0.000019  -0.000076  -0.003926
    27  H    0.003023  -0.005042   0.000018  -0.000002  -0.000002  -0.000140
    28  H    0.000121  -0.003571  -0.000033  -0.000003  -0.000002   0.000041
    29  H    0.003310  -0.000061   0.000018  -0.000148   0.000107   0.000122
    30  H    0.000106   0.000019  -0.000062   0.000069   0.003251   0.003341
    31  H    0.000000  -0.000091   0.002985   0.000523  -0.000042  -0.000004
    32  H    0.000079   0.000168  -0.000094  -0.000354   0.000076  -0.000003
    33  H    0.000000  -0.000019  -0.000006   0.000007   0.000000   0.000000
    34  H   -0.000025   0.000211   0.000001   0.000016   0.000000   0.000000
    35  H    0.000000  -0.000049   0.000018   0.000000   0.000000   0.000000
    36  H    0.000000   0.000043   0.000000   0.000000   0.000000   0.000000
    37  H    0.000000   0.000150   0.000003   0.000000   0.000000   0.000000
    38  H    0.000007   0.000211   0.000008   0.000000   0.000000  -0.000001
    39  H    0.000000   0.000010  -0.001061   0.000002   0.000005  -0.000175
    40  H    0.000000   0.000006   0.000296   0.000000   0.000000  -0.000003
    41  H    0.000000  -0.000040  -0.001813   0.000008  -0.000002   0.000007
             25         26         27         28         29         30
     1  C   -0.015525   0.041458  -0.008793  -0.008788  -0.074199  -0.066091
     2  C    0.012004  -0.016718   0.003825  -0.015258   0.010061   0.029243
     3  C    0.001080   0.078683  -0.111279   0.027546  -0.012015  -0.057833
     4  C   -0.225445  -0.068212   0.085432  -0.249036   0.033495   0.023611
     5  C    0.017036   0.072744   0.004027   0.002685  -0.063692   0.002728
     6  C   -0.014808  -0.017812   0.012323   0.007615   0.028681   0.004693
     7  C    0.542282   0.004647   0.016646   0.011093   0.011550  -0.019792
     8  C   -0.079039   0.159706  -0.041939  -0.074752  -0.053766  -0.028521
     9  C    0.017948   0.009439   0.383747   0.556330  -0.004943   0.005143
    10  C    0.013042   0.011768  -0.016110   0.014134   0.434721   0.415397
    11  C   -0.029063   0.000728  -0.005590  -0.017085   0.000839   0.002628
    12  C   -0.001231  -0.000003  -0.001385  -0.005536   0.000232   0.000005
    13  C    0.000148  -0.000057   0.000111   0.002727  -0.000001   0.000045
    14  C    0.005752   0.000757  -0.004369   0.018496   0.000222  -0.000570
    15  N    0.062249   0.005130  -0.012056   0.051054  -0.001112  -0.001198
    16  C    0.010669  -0.000393  -0.001366  -0.000059  -0.000373   0.000163
    17  H    0.000019  -0.000151  -0.000072   0.000018  -0.004192  -0.004251
    18  H   -0.000003   0.000019   0.000124  -0.000144   0.000068  -0.000147
    19  H   -0.000002  -0.000071   0.003023   0.000121   0.003310   0.000106
    20  H   -0.000016  -0.000162  -0.005042  -0.003571  -0.000061   0.000019
    21  H   -0.003562  -0.000150   0.000018  -0.000033   0.000018  -0.000062
    22  H   -0.000141   0.000019  -0.000002  -0.000003  -0.000148   0.000069
    23  H    0.000120  -0.000076  -0.000002  -0.000002   0.000107   0.003251
    24  H   -0.033368  -0.003926  -0.000140   0.000041   0.000122   0.003341
    25  H    0.576751  -0.004873   0.000046   0.003115  -0.000154   0.000054
    26  H   -0.004873   0.631858  -0.003843  -0.004655  -0.004190  -0.004253
    27  H    0.000046  -0.003843   0.605836  -0.033049   0.003191   0.000131
    28  H    0.003115  -0.004655  -0.033049   0.564870   0.000046  -0.000145
    29  H   -0.000154  -0.004190   0.003191   0.000046   0.595289  -0.030884
    30  H    0.000054  -0.004253   0.000131  -0.000145  -0.030884   0.595149
    31  H   -0.000002   0.000000   0.000002  -0.000001   0.000000   0.000000
    32  H    0.000000   0.000000  -0.000004  -0.000003   0.000000   0.000000
    33  H    0.000000   0.000000   0.000000   0.000000   0.000000   0.000000
    34  H    0.000000   0.000000  -0.000001   0.000012   0.000000   0.000000
    35  H    0.000001   0.000000   0.000000   0.000001   0.000000   0.000000
    36  H    0.000000   0.000000   0.000000   0.000000   0.000000   0.000000
    37  H    0.000014   0.000000  -0.000001  -0.000035   0.000000   0.000000
    38  H    0.000006   0.000001  -0.000124   0.001162   0.000000   0.000000
    39  H    0.002895   0.000003  -0.000001  -0.000013   0.000000   0.000000
    40  H   -0.000029   0.000000   0.000000   0.000013   0.000000   0.000000
    41  H    0.000091   0.000000   0.000000  -0.000004   0.000000   0.000000
             31         32         33         34         35         36
     1  C   -0.008123   0.036958  -0.001448  -0.002780  -0.000263   0.000471
     2  C    0.020528  -0.024125  -0.002747   0.003102  -0.000633  -0.001946
     3  C   -0.047504  -0.005570   0.018263  -0.054764  -0.002355   0.031717
     4  C   -0.054425   0.045451  -0.051615   0.101902  -0.027684  -0.035192
     5  C    0.030263  -0.031914  -0.017791  -0.003242  -0.001989  -0.003448
     6  C   -0.001911  -0.047572  -0.001086  -0.000751  -0.000434   0.000071
     7  C   -0.004728   0.001128   0.000117   0.002516   0.001950   0.000637
     8  C    0.006759  -0.008855  -0.000778   0.000070  -0.000262  -0.000296
     9  C   -0.007845   0.006973   0.001702   0.002660   0.000119   0.001581
    10  C   -0.002333   0.001522   0.000215  -0.000675  -0.000025   0.000028
    11  C    0.449574   0.295263  -0.074095  -0.131523   0.049035   0.035635
    12  C   -0.004882   0.008389   0.452341   0.458401  -0.090964  -0.073056
    13  C   -0.018228   0.018277  -0.049887  -0.064468   0.469289   0.386304
    14  C   -0.017095   0.001146   0.037366  -0.003094  -0.093542  -0.039964
    15  N   -0.021109   0.015938   0.007643   0.000057   0.010988   0.016055
    16  C   -0.012849   0.004025   0.004193   0.001551   0.001399   0.000275
    17  H    0.000000  -0.000053   0.000000   0.000001   0.000000   0.000000
    18  H    0.000084   0.000438  -0.000026   0.000619   0.000001   0.000000
    19  H    0.000000   0.000079   0.000000  -0.000025   0.000000   0.000000
    20  H   -0.000091   0.000168  -0.000019   0.000211  -0.000049   0.000043
    21  H    0.002985  -0.000094  -0.000006   0.000001   0.000018   0.000000
    22  H    0.000523  -0.000354   0.000007   0.000016   0.000000   0.000000
    23  H   -0.000042   0.000076   0.000000   0.000000   0.000000   0.000000
    24  H   -0.000004  -0.000003   0.000000   0.000000   0.000000   0.000000
    25  H   -0.000002   0.000000   0.000000   0.000000   0.000001   0.000000
    26  H    0.000000   0.000000   0.000000   0.000000   0.000000   0.000000
    27  H    0.000002  -0.000004   0.000000  -0.000001   0.000000   0.000000
    28  H   -0.000001  -0.000003   0.000000   0.000012   0.000001   0.000000
    29  H    0.000000   0.000000   0.000000   0.000000   0.000000   0.000000
    30  H    0.000000   0.000000   0.000000   0.000000   0.000000   0.000000
    31  H    0.580739  -0.032938  -0.003533   0.004415   0.002285  -0.000005
    32  H   -0.032938   0.591760  -0.003900  -0.003736   0.000025  -0.000150
    33  H   -0.003533  -0.003900   0.594122  -0.030712  -0.004156  -0.003327
    34  H    0.004415  -0.003736  -0.030712   0.576339   0.004466  -0.003885
    35  H    0.002285   0.000025  -0.004156   0.004466   0.576238  -0.030320
    36  H   -0.000005  -0.000150  -0.003327  -0.003885  -0.030320   0.594836
    37  H   -0.000022   0.000017  -0.000172   0.000098  -0.003881  -0.000732
    38  H   -0.000003   0.000029  -0.000013   0.002181   0.004189  -0.001471
    39  H    0.000066   0.000019  -0.000003   0.000005   0.000090   0.000007
    40  H    0.000056   0.000004  -0.000004   0.000004   0.000351   0.000036
    41  H    0.000617  -0.000158   0.000081  -0.000071  -0.001948  -0.000167
             37         38         39         40         41
     1  C    0.000749   0.002753   0.006667   0.001091  -0.005627
     2  C   -0.000197  -0.004153  -0.002053  -0.001575   0.005476
     3  C    0.046785  -0.028514   0.057110   0.003385  -0.043926
     4  C   -0.079642   0.027913  -0.071777  -0.093265   0.128866
     5  C   -0.010920   0.000416  -0.020407  -0.014648   0.023430
     6  C   -0.000285   0.000470  -0.003761  -0.005286   0.009593
     7  C    0.002646   0.014332  -0.016664   0.021331  -0.025354
     8  C   -0.001819  -0.008313   0.000200  -0.003179   0.005406
     9  C    0.005150   0.002640   0.009580   0.007771  -0.012501
    10  C   -0.000008  -0.001991  -0.001367  -0.000323   0.001034
    11  C   -0.001494  -0.047056  -0.040521   0.018233   0.010902
    12  C    0.027667  -0.016155   0.001737  -0.002061   0.028252
    13  C   -0.065724  -0.068133  -0.003525  -0.007437   0.005893
    14  C    0.416105   0.439762   0.012242   0.010578  -0.043355
    15  N   -0.023033  -0.025632  -0.022399  -0.028271  -0.149419
    16  C   -0.015183   0.008287   0.438292   0.436083   0.400900
    17  H    0.000000   0.000000   0.000000   0.000000   0.000000
    18  H    0.000000   0.000009   0.000000   0.000000   0.000000
    19  H    0.000000   0.000007   0.000000   0.000000   0.000000
    20  H    0.000150   0.000211   0.000010   0.000006  -0.000040
    21  H    0.000003   0.000008  -0.001061   0.000296  -0.001813
    22  H    0.000000   0.000000   0.000002   0.000000   0.000008
    23  H    0.000000   0.000000   0.000005   0.000000  -0.000002
    24  H    0.000000  -0.000001  -0.000175  -0.000003   0.000007
    25  H    0.000014   0.000006   0.002895  -0.000029   0.000091
    26  H    0.000000   0.000001   0.000003   0.000000   0.000000
    27  H   -0.000001  -0.000124  -0.000001   0.000000   0.000000
    28  H   -0.000035   0.001162  -0.000013   0.000013  -0.000004
    29  H    0.000000   0.000000   0.000000   0.000000   0.000000
    30  H    0.000000   0.000000   0.000000   0.000000   0.000000
    31  H   -0.000022  -0.000003   0.000066   0.000056   0.000617
    32  H    0.000017   0.000029   0.000019   0.000004  -0.000158
    33  H   -0.000172  -0.000013  -0.000003  -0.000004   0.000081
    34  H    0.000098   0.002181   0.000005   0.000004  -0.000071
    35  H   -0.003881   0.004189   0.000090   0.000351  -0.001948
    36  H   -0.000732  -0.001471   0.000007   0.000036  -0.000167
    37  H    0.598948  -0.025883   0.000574   0.005093  -0.001130
    38  H   -0.025883   0.586885  -0.000064   0.000561  -0.000507
    39  H    0.000574  -0.000064   0.582619  -0.019887  -0.045033
    40  H    0.005093   0.000561  -0.019887   0.577520  -0.040820
    41  H   -0.001130  -0.000507  -0.045033  -0.040820   0.619887
 Mulliken atomic charges:
              1
     1  C    0.218593
     2  C   -0.602110
     3  C    0.602631
     4  C   -1.701541
     5  C    0.393965
     6  C   -0.646515
     7  C   -0.398305
     8  C    0.207603
     9  C   -0.445649
    10  C   -0.472451
    11  C    0.052903
    12  C   -0.285163
    13  C   -0.291443
    14  C    0.083504
    15  N    0.165774
    16  C   -0.144295
    17  H    0.112518
    18  H    0.131322
    19  H    0.132792
    20  H    0.115037
    21  H    0.120153
    22  H    0.132299
    23  H    0.133683
    24  H    0.126672
    25  H    0.141937
    26  H    0.112585
    27  H    0.126684
    28  H    0.151095
    29  H    0.127782
    30  H    0.127971
    31  H    0.138778
    32  H    0.131743
    33  H    0.129271
    34  H    0.141100
    35  H    0.138062
    36  H    0.126263
    37  H    0.126163
    38  H    0.136192
    39  H    0.136589
    40  H    0.134376
    41  H    0.131431
 Sum of Mulliken atomic charges =   0.00000
 Mulliken charges with hydrogens summed into heavy atoms:
              1
     1  C    0.331111
     2  C   -0.337996
     3  C    0.717668
     4  C   -1.701541
     5  C    0.514118
     6  C   -0.380533
     7  C   -0.129696
     8  C    0.320187
     9  C   -0.167869
    10  C   -0.216698
    11  C    0.323424
    12  C   -0.014792
    13  C   -0.027117
    14  C    0.345860
    15  N    0.165774
    16  C    0.258101
 Sum of Mulliken charges with hydrogens summed into heavy atoms =   0.00000
 Electronic spatial extent (au):  <R**2>=           3111.8168
 Charge=              0.0000 electrons
 Dipole moment (field-independent basis, Debye):
    X=              0.5201    Y=             -0.3923    Z=             -0.3199  Tot=              0.7258
 Quadrupole moment (field-independent basis, Debye-Ang):
   XX=           -101.9698   YY=           -103.4310   ZZ=           -102.4670
   XY=              0.7575   XZ=              0.0943   YZ=             -1.2580
 Traceless Quadrupole moment (field-independent basis, Debye-Ang):
   XX=              0.6528   YY=             -0.8084   ZZ=              0.1556
   XY=              0.7575   XZ=              0.0943   YZ=             -1.2580
 Octapole moment (field-independent basis, Debye-Ang**2):
  XXX=              8.6321  YYY=              3.4858  ZZZ=              2.1360  XYY=              2.6883
  XXY=              4.9073  XXZ=              0.4072  XZZ=              2.4875  YZZ=             -0.3570
  YYZ=             -1.5452  XYZ=              0.1394
 Hexadecapole moment (field-independent basis, Debye-Ang**3):
 XXXX=          -2670.9527 YYYY=          -1024.4381 ZZZZ=           -778.1308 XXXY=             15.2610
 XXXZ=              7.1951 YYYX=             12.8198 YYYZ=              1.5510 ZZZX=              1.8843
 ZZZY=             -3.8699 XXYY=           -606.5412 XXZZ=           -561.9481 YYZZ=           -298.3528
 XXYZ=             -0.3740 YYXZ=             -0.5037 ZZXY=             -0.4894
 N-N= 1.290750847453D+03 E-N=-4.064879930327D+03  KE= 6.347919047653D+02
 1\1\GINC-ROCK\SP\RB3LYP\6-31+G(d,p)\C15H25N1\STYLIANAKIS\19-Feb-2018\0
 \\# b3lyp/6-31+g(d,p)\\N-Me-spiro[piperidine-2,2'-adamantane]-ch.hin\\
 0,1\C,0,-2.66616,-0.75182,-0.96095\C,0,-2.50006,0.75212,-0.7035\C,0,-1
 .00179,1.11736,-0.682\C,0,-0.20255,0.38551,0.4464\C,0,-0.43484,-1.1310
 9,0.14659\C,0,-1.92525,-1.53088,0.13453\C,0,0.15027,-1.51494,-1.23022\
 C,0,-0.57461,-0.73165,-2.33606\C,0,-0.42038,0.77438,-2.07021\C,0,-2.06
 631,-1.10348,-2.33216\C,0,-0.73256,0.72857,1.87096\C,0,-0.49075,2.2141
 6,2.1857\C,0,1.00971,2.50665,2.08968\C,0,1.48807,2.14208,0.67566\N,0,1
 .2401,0.72775,0.38565\X,0,1.40636,0.64234,-0.18467\C,0,2.12131,-0.1178
 5,1.18788\H,0,-3.7517,-1.02088,-0.94965\H,0,-3.00602,1.04589,0.24422\H
 ,0,-3.02319,1.32618,-1.50503\H,0,-0.95442,2.22336,-0.56369\H,0,0.04596
 ,-1.75294,0.93876\H,0,-2.40469,-1.36163,1.12545\H,0,-2.02624,-2.62616,
 -0.05456\H,0,0.03925,-2.61133,-1.40499\H,0,1.2435,-1.30896,-1.28725\H,
 0,-0.13197,-0.98599,-3.33122\H,0,-0.94856,1.35298,-2.86492\H,0,0.65202
 ,1.07081,-2.14153\H,0,-2.60366,-0.55515,-3.14185\H,0,-2.19387,-2.19184
 ,-2.54244\H,0,-0.2552,0.08912,2.64771\H,0,-1.82207,0.53696,1.9763\H,0,
 -0.84341,2.43727,3.22157\H,0,-1.0747,2.88206,1.51137\H,0,1.5768,1.9641
 5,2.88113\H,0,1.18731,3.59393,2.27158\H,0,2.57741,2.36549,0.57925\H,0,
 1.00933,2.7988,-0.08516\H,0,2.14453,-1.16427,0.81352\H,0,3.17743,0.227
 86,1.10568\H,0,1.85654,-0.1456,2.26649\\Version=EM64L-G09RevA.01\State
 =1-A\HF=-641.4449249\RMSD=4.982e-09\Dipole=-0.0323835,0.0836607,0.2711
 065\Quadrupole=0.0629353,0.4720776,-0.5350128,-0.0082383,1.079458,-0.2
 830788\PG=C01 [X(C15H25N1)]\\@


 THE HURRIEDER I GO, THE BEHINDER I GET.
 Job cpu time:  0 days  1 hours  8 minutes 23.8 seconds.
 File lengths (MBytes):  RWF=    101 Int=      0 D2E=      0 Chk=      8 Scr=      1
 Normal termination of Gaussian 09 at Mon Feb 19 03:32:01 2018.
