c7143 1433821 SLURM_STEP_IDnodef 0 0 1 24 SLURM_MEM_PER_CPUnodef 122880
/mnt/lustre/scratch/slurm/1433821/uviqopsc.4LXvT73mtR
OMP_STACKSIZE=128m
-P- 24
-M- 114688MB
 Entering Gaussian System, Link 0=/opt/cesga/g09/e1/g09.exe
 Initial command:
 /opt/cesga/g09/e1/l1.exe "/mnt/lustre/scratch/slurm/1433821/uviqopsc.4LXvT73mtR/Gau-9396.inp" -scrdir="/mnt/lustre/scratch/slurm/1433821/uviqopsc.4LXvT73mtR/"
 Default is to use a total of  24 processors:
                               24 via shared-memory
                                1 via Linda
 Entering Link 1 = /opt/cesga/g09/e1/l1.exe PID=      9422.
  
 Copyright (c) 1988,1990,1992,1993,1995,1998,2003,2009,2015,
            Gaussian, Inc.  All Rights Reserved.
  
 This is part of the Gaussian(R) 09 program.  It is based on
 the Gaussian(R) 03 system (copyright 2003, Gaussian, Inc.),
 the Gaussian(R) 98 system (copyright 1998, Gaussian, Inc.),
 the Gaussian(R) 94 system (copyright 1995, Gaussian, Inc.),
 the Gaussian 92(TM) system (copyright 1992, Gaussian, Inc.),
 the Gaussian 90(TM) system (copyright 1990, Gaussian, Inc.),
 the Gaussian 88(TM) system (copyright 1988, Gaussian, Inc.),
 the Gaussian 86(TM) system (copyright 1986, Carnegie Mellon
 University), and the Gaussian 82(TM) system (copyright 1983,
 Carnegie Mellon University). Gaussian is a federally registered
 trademark of Gaussian, Inc.
  
 This software contains proprietary and confidential information,
 including trade secrets, belonging to Gaussian, Inc.
  
 This software is provided under written license and may be
 used, copied, transmitted, or stored only in accord with that
 written license.
  
 The following legend is applicable only to US Government
 contracts under FAR:
  
                    RESTRICTED RIGHTS LEGEND
  
 Use, reproduction and disclosure by the US Government is
 subject to restrictions as set forth in subparagraphs (a)
 and (c) of the Commercial Computer Software - Restricted
 Rights clause in FAR 52.227-19.
  
 Gaussian, Inc.
 340 Quinnipiac St., Bldg. 40, Wallingford CT 06492
  
  
 ---------------------------------------------------------------
 Warning -- This program may not be used in any manner that
 competes with the business of Gaussian, Inc. or will provide
 assistance to any competitor of Gaussian, Inc.  The licensee
 of this program is prohibited from giving any competitor of
 Gaussian, Inc. access to this program.  By using this program,
 the user acknowledges that Gaussian, Inc. is engaged in the
 business of creating and licensing software in the field of
 computational chemistry and represents and warrants to the
 licensee that it is not a competitor of Gaussian, Inc. and that
 it will not use this program in any manner prohibited above.
 ---------------------------------------------------------------
  

 Cite this work as:
 Gaussian 09, Revision E.01,
 M. J. Frisch, G. W. Trucks, H. B. Schlegel, G. E. Scuseria, 
 M. A. Robb, J. R. Cheeseman, G. Scalmani, V. Barone, B. Mennucci, 
 G. A. Petersson, H. Nakatsuji, M. Caricato, X. Li, H. P. Hratchian, 
 A. F. Izmaylov, J. Bloino, G. Zheng, J. L. Sonnenberg, M. Hada, 
 M. Ehara, K. Toyota, R. Fukuda, J. Hasegawa, M. Ishida, T. Nakajima, 
 Y. Honda, O. Kitao, H. Nakai, T. Vreven, J. A. Montgomery, Jr., 
 J. E. Peralta, F. Ogliaro, M. Bearpark, J. J. Heyd, E. Brothers, 
 K. N. Kudin, V. N. Staroverov, T. Keith, R. Kobayashi, J. Normand, 
 K. Raghavachari, A. Rendell, J. C. Burant, S. S. Iyengar, J. Tomasi, 
 M. Cossi, N. Rega, J. M. Millam, M. Klene, J. E. Knox, J. B. Cross, 
 V. Bakken, C. Adamo, J. Jaramillo, R. Gomperts, R. E. Stratmann, 
 O. Yazyev, A. J. Austin, R. Cammi, C. Pomelli, J. W. Ochterski, 
 R. L. Martin, K. Morokuma, V. G. Zakrzewski, G. A. Voth, 
 P. Salvador, J. J. Dannenberg, S. Dapprich, A. D. Daniels, 
 O. Farkas, J. B. Foresman, J. V. Ortiz, J. Cioslowski, 
 and D. J. Fox, Gaussian, Inc., Wallingford CT, 2013.
 
 ******************************************
 Gaussian 09:  ES64L-G09RevE.01 30-Nov-2015
                27-Jul-2018 
 ******************************************
 Default route:  SCF=Direct
 -------------------
 # b3lyp/6-31+g(d,p)
 -------------------
 1/38=1/1;
 2/12=2,17=6,18=5,40=1/2;
 3/5=1,6=6,7=111,11=2,16=1,25=1,30=1,74=-5/1,2,3;
 4//1;
 5/5=2,38=5/2;
 6/7=2,8=2,9=2,10=2,28=1/1;
 99/5=1,9=1/99;
 -----------------------
 N_Me_Acetamide_ts_b3lyp
 -----------------------
 Symbolic Z-matrix:
 Charge =  0 Multiplicity = 1
 C                     0.09595  -1.4221   -0.94963 
 C                    -0.39805  -0.4101    0.06638 
 N                     0.56895   0.3809    0.64738 
 C                     0.93195   1.6479    0.06238 
 O                    -1.56905  -0.3131    0.34638 
 H                     0.59995  -0.9011   -1.79563 
 H                     0.81895  -2.1211   -0.47263 
 H                    -0.74805  -2.0211   -1.36363 
 H                     1.00895   0.0379    1.50338 
 H                     0.33695   1.8689   -0.85363 
 H                     0.76095   2.4549    0.80938 
 H                     2.01295   1.6259   -0.20463 
 
                          Input orientation:                          
 ---------------------------------------------------------------------
 Center     Atomic      Atomic             Coordinates (Angstroms)
 Number     Number       Type             X           Y           Z
 ---------------------------------------------------------------------
      1          6           0        0.095950   -1.422100   -0.949625
      2          6           0       -0.398050   -0.410100    0.066375
      3          7           0        0.568950    0.380900    0.647375
      4          6           0        0.931950    1.647900    0.062375
      5          8           0       -1.569050   -0.313100    0.346375
      6          1           0        0.599950   -0.901100   -1.795625
      7          1           0        0.818950   -2.121100   -0.472625
      8          1           0       -0.748050   -2.021100   -1.363625
      9          1           0        1.008950    0.037900    1.503375
     10          1           0        0.336950    1.868900   -0.853625
     11          1           0        0.760950    2.454900    0.809375
     12          1           0        2.012950    1.625900   -0.204625
 ---------------------------------------------------------------------
                    Distance matrix (angstroms):
                    1          2          3          4          5
     1  C    0.000000
     2  C    1.516719   0.000000
     3  N    2.454577   1.377799   0.000000
     4  C    3.338853   2.450363   1.441972   0.000000
     5  O    2.383636   1.207911   2.267880   3.190796   0.000000
     6  H    1.114079   2.168900   2.759118   3.171717   3.104588
     7  H    1.113040   2.167748   2.752618   3.808458   3.105184
     8  H    1.114690   2.182366   3.398266   4.279887   2.552529
     9  H    2.997062   2.060418   1.021756   2.162062   2.847443
    10  H    3.301209   2.565242   2.126257   1.114416   3.135915
    11  H    4.308995   3.178609   2.089159   1.112879   3.647615
    12  H    3.676985   3.167279   2.088316   1.113703   4.110237
                    6          7          8          9         10
     6  H    0.000000
     7  H    1.812923   0.000000
     8  H    1.805029   1.805373   0.000000
     9  H    3.454331   2.932909   3.942869   0.000000
    10  H    2.937590   4.037027   4.070556   3.059345   0.000000
    11  H    4.251433   4.752543   5.199383   2.526861   1.813489
    12  H    3.303571   3.941760   4.718793   2.539099   1.813622
                   11         12
    11  H    0.000000
    12  H    1.811889   0.000000
 Stoichiometry    C3H7NO
 Framework group  C1[X(C3H7NO)]
 Deg. of freedom    30
 Full point group                 C1      NOp   1
 Largest Abelian subgroup         C1      NOp   1
 Largest concise Abelian subgroup C1      NOp   1
                         Standard orientation:                         
 ---------------------------------------------------------------------
 Center     Atomic      Atomic             Coordinates (Angstroms)
 Number     Number       Type             X           Y           Z
 ---------------------------------------------------------------------
      1          6           0       -1.367948   -1.026835   -0.087692
      2          6           0       -0.523894    0.221052    0.087767
      3          7           0        0.752630    0.022021    0.566521
      4          6           0        1.853873   -0.187820   -0.340404
      5          8           0       -0.953851    1.318949   -0.174546
      6          1           0       -0.883469   -1.718099   -0.814746
      7          1           0       -1.483729   -1.550385    0.887679
      8          1           0       -2.383564   -0.774622   -0.471681
      9          1           0        0.885022    0.034620    1.579585
     10          1           0        1.528716   -0.149131   -1.405626
     11          1           0        2.621922    0.598618   -0.166872
     12          1           0        2.305315   -1.185121   -0.135648
 ---------------------------------------------------------------------
 Rotational constants (GHZ):      8.2152275      3.9923941      3.1088058
 Standard basis: 6-31+G(d,p) (6D, 7F)
 There are   130 symmetry adapted cartesian basis functions of A   symmetry.
 There are   130 symmetry adapted basis functions of A   symmetry.
   130 basis functions,   209 primitive gaussians,   130 cartesian basis functions
    20 alpha electrons       20 beta electrons
       nuclear repulsion energy       179.3888397857 Hartrees.
 NAtoms=   12 NActive=   12 NUniq=   12 SFac= 1.00D+00 NAtFMM=   60 NAOKFM=F Big=F
 Integral buffers will be    131072 words long.
 Raffenetti 2 integral format.
 Two-electron integral symmetry is turned on.
 One-electron integrals computed using PRISM.
 NBasis=   130 RedAO= T EigKep=  1.59D-04  NBF=   130
 NBsUse=   130 1.00D-06 EigRej= -1.00D+00 NBFU=   130
 ExpMin= 4.38D-02 ExpMax= 5.48D+03 ExpMxC= 8.25D+02 IAcc=2 IRadAn=         4 AccDes= 0.00D+00
 Harris functional with IExCor=  402 and IRadAn=       4 diagonalized for initial guess.
 HarFok:  IExCor=  402 AccDes= 0.00D+00 IRadAn=         4 IDoV= 1 UseB2=F ITyADJ=14
 ICtDFT=  3500011 ScaDFX=  1.000000  1.000000  1.000000  1.000000
 FoFCou: FMM=F IPFlag=           0 FMFlag=      100000 FMFlg1=           0
         NFxFlg=           0 DoJE=T BraDBF=F KetDBF=T FulRan=T
         wScrn=  0.000000 ICntrl=     500 IOpCl=  0 I1Cent=   200000004 NGrid=           0
         NMat0=    1 NMatS0=      1 NMatT0=    0 NMatD0=    1 NMtDS0=    0 NMtDT0=    0
 Petite list used in FoFCou.
 Keep R1 ints in memory in canonical form, NReq=37454200.
 Requested convergence on RMS density matrix=1.00D-08 within 128 cycles.
 Requested convergence on MAX density matrix=1.00D-06.
 Requested convergence on             energy=1.00D-06.
 No special actions if energy rises.
 SCF Done:  E(RB3LYP) =  -248.502450254     A.U. after   12 cycles
            NFock= 12  Conv=0.36D-08     -V/T= 2.0097

 **********************************************************************

            Population analysis using the SCF density.

 **********************************************************************

 Orbital symmetries:
       Occupied  (A) (A) (A) (A) (A) (A) (A) (A) (A) (A) (A) (A)
                 (A) (A) (A) (A) (A) (A) (A) (A)
       Virtual   (A) (A) (A) (A) (A) (A) (A) (A) (A) (A) (A) (A)
                 (A) (A) (A) (A) (A) (A) (A) (A) (A) (A) (A) (A)
                 (A) (A) (A) (A) (A) (A) (A) (A) (A) (A) (A) (A)
                 (A) (A) (A) (A) (A) (A) (A) (A) (A) (A) (A) (A)
                 (A) (A) (A) (A) (A) (A) (A) (A) (A) (A) (A) (A)
                 (A) (A) (A) (A) (A) (A) (A) (A) (A) (A) (A) (A)
                 (A) (A) (A) (A) (A) (A) (A) (A) (A) (A) (A) (A)
                 (A) (A) (A) (A) (A) (A) (A) (A) (A) (A) (A) (A)
                 (A) (A) (A) (A) (A) (A) (A) (A) (A) (A) (A) (A)
                 (A) (A)
 The electronic state is 1-A.
 Alpha  occ. eigenvalues --  -19.15046 -14.33290 -10.30549 -10.23180 -10.20035
 Alpha  occ. eigenvalues --   -1.06181  -0.91573  -0.74565  -0.69227  -0.58026
 Alpha  occ. eigenvalues --   -0.50086  -0.47871  -0.45855  -0.43007  -0.42245
 Alpha  occ. eigenvalues --   -0.41013  -0.39123  -0.36242  -0.27039  -0.22773
 Alpha virt. eigenvalues --   -0.03167  -0.00080   0.01924   0.02594   0.04501
 Alpha virt. eigenvalues --    0.05649   0.06008   0.07085   0.07720   0.08418
 Alpha virt. eigenvalues --    0.10204   0.10564   0.12644   0.13743   0.16278
 Alpha virt. eigenvalues --    0.17450   0.19126   0.19683   0.21578   0.22953
 Alpha virt. eigenvalues --    0.23976   0.25864   0.27513   0.28529   0.30555
 Alpha virt. eigenvalues --    0.31092   0.31525   0.32704   0.34606   0.36601
 Alpha virt. eigenvalues --    0.40790   0.50114   0.63030   0.64351   0.65242
 Alpha virt. eigenvalues --    0.66573   0.68884   0.70903   0.73248   0.79293
 Alpha virt. eigenvalues --    0.82002   0.88884   0.91381   0.91674   0.96069
 Alpha virt. eigenvalues --    0.97297   0.98572   1.00192   1.03926   1.05045
 Alpha virt. eigenvalues --    1.06496   1.07672   1.20667   1.25018   1.27581
 Alpha virt. eigenvalues --    1.30274   1.32347   1.36227   1.38801   1.49644
 Alpha virt. eigenvalues --    1.54929   1.61705   1.69331   1.71514   1.74215
 Alpha virt. eigenvalues --    1.77926   1.84705   1.88469   1.93801   1.94156
 Alpha virt. eigenvalues --    2.01627   2.02111   2.02561   2.04612   2.04978
 Alpha virt. eigenvalues --    2.06746   2.07794   2.12138   2.20559   2.25861
 Alpha virt. eigenvalues --    2.34719   2.37760   2.41513   2.45709   2.50099
 Alpha virt. eigenvalues --    2.51733   2.62434   2.64380   2.65364   2.66155
 Alpha virt. eigenvalues --    2.73196   2.78544   2.83041   2.85660   2.90839
 Alpha virt. eigenvalues --    2.95277   3.06494   3.14962   3.20503   3.21730
 Alpha virt. eigenvalues --    3.38254   3.38847   3.41075   3.43300   3.45368
 Alpha virt. eigenvalues --    4.17836   4.27848   4.40098   4.51780   4.58944
          Condensed to atoms (all electrons):
               1          2          3          4          5          6
     1  C    5.333072   0.318283  -0.234376  -0.004807  -0.123224   0.388102
     2  C    0.318283   4.997332   0.147738  -0.134241   0.435400  -0.045654
     3  N   -0.234376   0.147738   7.391280   0.183993  -0.139961  -0.000911
     4  C   -0.004807  -0.134241   0.183993   5.022801  -0.002326   0.006654
     5  O   -0.123224   0.435400  -0.139961  -0.002326   8.192395   0.002370
     6  H    0.388102  -0.045654  -0.000911   0.006654   0.002370   0.533537
     7  H    0.391661  -0.045483   0.002617   0.002677   0.001762  -0.021586
     8  H    0.391550  -0.044795   0.012850   0.000613  -0.002857  -0.025722
     9  H   -0.001465   0.010036   0.320447  -0.020932   0.000319   0.000068
    10  H    0.001233  -0.002152  -0.062071   0.421348   0.001487   0.000223
    11  H    0.000758  -0.025592  -0.062902   0.429830   0.004504   0.000005
    12  H   -0.001429   0.011436  -0.092318   0.419634  -0.002785   0.000008
               7          8          9         10         11         12
     1  C    0.391661   0.391550  -0.001465   0.001233   0.000758  -0.001429
     2  C   -0.045483  -0.044795   0.010036  -0.002152  -0.025592   0.011436
     3  N    0.002617   0.012850   0.320447  -0.062071  -0.062902  -0.092318
     4  C    0.002677   0.000613  -0.020932   0.421348   0.429830   0.419634
     5  O    0.001762  -0.002857   0.000319   0.001487   0.004504  -0.002785
     6  H   -0.021586  -0.025722   0.000068   0.000223   0.000005   0.000008
     7  H    0.530113  -0.026294  -0.000172   0.000013  -0.000014   0.000126
     8  H   -0.026294   0.523544  -0.000110  -0.000029   0.000008  -0.000020
     9  H   -0.000172  -0.000110   0.385947   0.003372  -0.003156  -0.000866
    10  H    0.000013  -0.000029   0.003372   0.536554  -0.021385  -0.027686
    11  H   -0.000014   0.000008  -0.003156  -0.021385   0.574616  -0.044661
    12  H    0.000126  -0.000020  -0.000866  -0.027686  -0.044661   0.600523
 Mulliken charges:
               1
     1  C   -0.459358
     2  C    0.377692
     3  N   -0.466386
     4  C   -0.325245
     5  O   -0.367083
     6  H    0.162907
     7  H    0.164582
     8  H    0.171261
     9  H    0.306512
    10  H    0.149092
    11  H    0.147989
    12  H    0.138038
 Sum of Mulliken charges =  -0.00000
 Mulliken charges with hydrogens summed into heavy atoms:
               1
     1  C    0.039392
     2  C    0.377692
     3  N   -0.159874
     4  C    0.109873
     5  O   -0.367083
 Electronic spatial extent (au):  <R**2>=            451.6979
 Charge=             -0.0000 electrons
 Dipole moment (field-independent basis, Debye):
    X=              1.3943    Y=             -2.7572    Z=              0.7967  Tot=              3.1908
 Quadrupole moment (field-independent basis, Debye-Ang):
   XX=            -30.7797   YY=            -36.2461   ZZ=            -28.1428
   XY=              2.8851   XZ=             -0.3176   YZ=              0.7536
 Traceless Quadrupole moment (field-independent basis, Debye-Ang):
   XX=              0.9432   YY=             -4.5232   ZZ=              3.5800
   XY=              2.8851   XZ=             -0.3176   YZ=              0.7536
 Octapole moment (field-independent basis, Debye-Ang**2):
  XXX=              1.3669  YYY=             -2.2255  ZZZ=              5.6782  XYY=              2.4480
  XXY=             -1.6092  XXZ=              1.7784  XZZ=              1.6199  YZZ=              0.7678
  YYZ=              0.4659  XYZ=             -0.4781
 Hexadecapole moment (field-independent basis, Debye-Ang**3):
 XXXX=           -364.0465 YYYY=           -177.1973 ZZZZ=            -61.5043 XXXY=              2.3141
 XXXZ=              4.3747 YYYX=              0.0959 YYYZ=              0.1538 ZZZX=              4.0350
 ZZZY=             -0.5344 XXYY=            -93.4485 XXZZ=            -71.1057 YYZZ=            -39.9774
 XXYZ=              0.0672 YYXZ=             -1.0822 ZZXY=             -0.3068
 N-N= 1.793888397857D+02 E-N=-9.375904818159D+02  KE= 2.461150928746D+02
 1\1\GINC-C7143\SP\RB3LYP\6-31+G(d,p)\C3H7N1O1\ROOT\27-Jul-2018\0\\# b3
 lyp/6-31+g(d,p)\\N_Me_Acetamide_ts_b3lyp\\0,1\C,0,0.09595,-1.4221,-0.9
 49625\C,0,-0.39805,-0.4101,0.066375\N,0,0.56895,0.3809,0.647375\C,0,0.
 93195,1.6479,0.062375\O,0,-1.56905,-0.3131,0.346375\H,0,0.59995,-0.901
 1,-1.795625\H,0,0.81895,-2.1211,-0.472625\H,0,-0.74805,-2.0211,-1.3636
 25\H,0,1.00895,0.0379,1.503375\H,0,0.33695,1.8689,-0.853625\H,0,0.7609
 5,2.4549,0.809375\H,0,2.01295,1.6259,-0.204625\\Version=ES64L-G09RevE.
 01\State=1-A\HF=-248.5024503\RMSD=3.588e-09\Dipole=1.2386274,-0.016753
 7,-0.2035689\Quadrupole=-3.5837633,1.844915,1.7388483,-0.1939581,2.140
 7513,-0.3968635\PG=C01 [X(C3H7N1O1)]\\@


 A MAN BEGINS CUTTING HIS WISDOM TEETH THE 1ST
 TIME HE BITES OFF MORE THAN HE CAN CHEW.
 Job cpu time:       0 days  0 hours  1 minutes 56.7 seconds.
 File lengths (MBytes):  RWF=      8 Int=      0 D2E=      0 Chk=      2 Scr=      1
 Normal termination of Gaussian 09 at Fri Jul 27 23:46:59 2018.
