 Entering Gaussian System, Link 0=g09
 Input=1_3_butadiene_cis.gjf
 Output=1_3_butadiene_cis.out
 Initial command:
 /usr/local/g09/l1.exe /home/scratch/stylianakis/Gau-18732.inp -scrdir=/home/scratch/stylianakis/
 Entering Link 1 = /usr/local/g09/l1.exe PID=     18733.
  
 Copyright (c) 1988,1990,1992,1993,1995,1998,2003,2009, Gaussian, Inc.
                  All Rights Reserved.
  
 This is part of the Gaussian(R) 09 program.  It is based on
 the Gaussian(R) 03 system (copyright 2003, Gaussian, Inc.),
 the Gaussian(R) 98 system (copyright 1998, Gaussian, Inc.),
 the Gaussian(R) 94 system (copyright 1995, Gaussian, Inc.),
 the Gaussian 92(TM) system (copyright 1992, Gaussian, Inc.),
 the Gaussian 90(TM) system (copyright 1990, Gaussian, Inc.),
 the Gaussian 88(TM) system (copyright 1988, Gaussian, Inc.),
 the Gaussian 86(TM) system (copyright 1986, Carnegie Mellon
 University), and the Gaussian 82(TM) system (copyright 1983,
 Carnegie Mellon University). Gaussian is a federally registered
 trademark of Gaussian, Inc.
  
 This software contains proprietary and confidential information,
 including trade secrets, belonging to Gaussian, Inc.
  
 This software is provided under written license and may be
 used, copied, transmitted, or stored only in accord with that
 written license.
  
 The following legend is applicable only to US Government
 contracts under FAR:
  
                    RESTRICTED RIGHTS LEGEND
  
 Use, reproduction and disclosure by the US Government is
 subject to restrictions as set forth in subparagraphs (a)
 and (c) of the Commercial Computer Software - Restricted
 Rights clause in FAR 52.227-19.
  
 Gaussian, Inc.
 340 Quinnipiac St., Bldg. 40, Wallingford CT 06492
  
  
 ---------------------------------------------------------------
 Warning -- This program may not be used in any manner that
 competes with the business of Gaussian, Inc. or will provide
 assistance to any competitor of Gaussian, Inc.  The licensee
 of this program is prohibited from giving any competitor of
 Gaussian, Inc. access to this program.  By using this program,
 the user acknowledges that Gaussian, Inc. is engaged in the
 business of creating and licensing software in the field of
 computational chemistry and represents and warrants to the
 licensee that it is not a competitor of Gaussian, Inc. and that
 it will not use this program in any manner prohibited above.
 ---------------------------------------------------------------
  

 Cite this work as:
 Gaussian 09, Revision A.01,
 M. J. Frisch, G. W. Trucks, H. B. Schlegel, G. E. Scuseria, 
 M. A. Robb, J. R. Cheeseman, G. Scalmani, V. Barone, B. Mennucci, 
 G. A. Petersson, H. Nakatsuji, M. Caricato, X. Li, H. P. Hratchian, 
 A. F. Izmaylov, J. Bloino, G. Zheng, J. L. Sonnenberg, M. Hada, 
 M. Ehara, K. Toyota, R. Fukuda, J. Hasegawa, M. Ishida, T. Nakajima, 
 Y. Honda, O. Kitao, H. Nakai, T. Vreven, J. A. Montgomery, Jr., 
 J. E. Peralta, F. Ogliaro, M. Bearpark, J. J. Heyd, E. Brothers, 
 K. N. Kudin, V. N. Staroverov, R. Kobayashi, J. Normand, 
 K. Raghavachari, A. Rendell, J. C. Burant, S. S. Iyengar, J. Tomasi, 
 M. Cossi, N. Rega, J. M. Millam, M. Klene, J. E. Knox, J. B. Cross, 
 V. Bakken, C. Adamo, J. Jaramillo, R. Gomperts, R. E. Stratmann, 
 O. Yazyev, A. J. Austin, R. Cammi, C. Pomelli, J. W. Ochterski, 
 R. L. Martin, K. Morokuma, V. G. Zakrzewski, G. A. Voth, 
 P. Salvador, J. J. Dannenberg, S. Dapprich, A. D. Daniels, 
 O. Farkas, J. B. Foresman, J. V. Ortiz, J. Cioslowski, 
 and D. J. Fox, Gaussian, Inc., Wallingford CT, 2009.
 
 ******************************************
 Gaussian 09:  EM64L-G09RevA.01  8-May-2009
                25-Mar-2016 
 ******************************************
 %mem=16000Mb
 %nproc=8
 Will use up to    8 processors via shared memory.
 -------------
 # mp2/cc-pVTZ
 -------------
 1/38=1/1;
 2/12=2,17=6,18=5,40=1/2;
 3/5=16,6=1,11=9,16=1,25=1,30=1/1,2,3;
 4//1;
 5/5=2,38=5/2;
 8/10=1/1;
 9/16=-3/6;
 6/7=2,8=2,9=2,10=2/1;
 99/5=1,9=1/99;
 ------------------------------
 1_3_butadiene_cis_single_point
 ------------------------------
 Symbolic Z-matrix:
 Charge =  0 Multiplicity = 1
 c
 c                    1    cc2
 c                    2    cc3      1    ccc3
 c                    3    cc4      2    ccc4     1    dih4     0
 h                    2    hc5      3    hcc5     4    dih5     0
 h                    3    hc6      2    hcc6     1    dih6     0
 h                    1    hc7      2    hcc7     3    dih7     0
 h                    1    hc8      2    hcc8     3    dih8     0
 h                    4    hc9      3    hcc9     2    dih9     0
 h                    4    hc10     3    hcc10    2    dih10    0
       Variables:
  cc2                   1.34254                  
  cc3                   1.47245                  
  ccc3                127.331                    
  cc4                   1.34253                  
  ccc4                127.331                    
  dih4                 -0.011                    
  hc5                   1.08911                  
  hcc5                114.876                    
  dih5                179.99                     
  hc6                   1.08911                  
  hcc6                114.876                    
  dih6                179.991                    
  hc7                   1.08675                  
  hcc7                122.538                    
  dih7                 -0.001                    
  hc8                   1.08532                  
  hcc8                120.947                    
  dih8               -180.                       
  hc9                   1.08675                  
  hcc9                122.537                    
  dih9                 -0.001                    
  hc10                  1.08532                  
  hcc10               120.948                    
  dih10              -179.999                    
 
                          Input orientation:                          
 ---------------------------------------------------------------------
 Center     Atomic      Atomic             Coordinates (Angstroms)
 Number     Number       Type             X           Y           Z
 ---------------------------------------------------------------------
      1          6           0        0.000000    0.000000    0.000000
      2          6           0        0.000000    0.000000    1.342538
      3          6           0        1.170808    0.000000    2.235456
      4          6           0        2.465524   -0.000205    1.880339
      5          1           0       -0.963470    0.000017    1.850368
      6          1           0        0.935916    0.000155    3.298939
      7          1           0        0.916167    0.000016   -0.584518
      8          1           0       -0.930819    0.000000   -0.558121
      9          1           0        2.786867   -0.000417    0.842183
     10          1           0        3.249993   -0.000198    2.630360
 ---------------------------------------------------------------------
                    Distance matrix (angstroms):
                    1          2          3          4          5
     1  C    0.000000
     2  C    1.342538   0.000000
     3  C    2.523501   1.472445   0.000000
     4  C    3.100723   2.523497   1.342534   0.000000
     5  H    2.086177   1.089112   2.168740   3.429125   0.000000
     6  H    3.429130   2.168742   1.089114   2.086175   2.388728
     7  H    1.086749   2.133754   2.831447   2.911361   3.075988
     8  H    1.085322   2.116348   3.495842   4.181057   2.408710
     9  H    2.911340   2.831428   2.133743   1.086752   3.883486
    10  H    4.181058   3.495846   2.116355   1.085322   4.285050
                    6          7          8          9         10
     6  H    0.000000
     7  H    3.883506   0.000000
     8  H    4.285045   1.847175   0.000000
     9  H    3.075983   2.352656   3.972662   0.000000
    10  H    2.408724   3.972679   5.257909   1.847178   0.000000
 Stoichiometry    C4H6
 Framework group  C1[X(C4H6)]
 Deg. of freedom    24
 Full point group                 C1      NOp   1
 Largest Abelian subgroup         C1      NOp   1
 Largest concise Abelian subgroup C1      NOp   1
                         Standard orientation:                         
 ---------------------------------------------------------------------
 Center     Atomic      Atomic             Coordinates (Angstroms)
 Number     Number       Type             X           Y           Z
 ---------------------------------------------------------------------
      1          6           0       -1.550362   -0.504064   -0.000025
      2          6           0       -0.736221    0.563448    0.000035
      3          6           0        0.736224    0.563447   -0.000039
      4          6           0        1.550361   -0.504064    0.000024
      5          1           0       -1.194361    1.551513    0.000135
      6          1           0        1.194367    1.551513   -0.000124
      7          1           0       -1.176339   -1.524422   -0.000156
      8          1           0       -2.628954   -0.383384    0.000041
      9          1           0        1.176317   -1.524417    0.000158
     10          1           0        2.628955   -0.383405   -0.000026
 ---------------------------------------------------------------------
 Rotational constants (GHZ):     21.4685308      5.5972299      4.4397164
 Standard basis: CC-pVTZ (5D, 7F)
 There are   204 symmetry adapted basis functions of A   symmetry.
 Integral buffers will be    131072 words long.
 Raffenetti 1 integral format.
 Two-electron integral symmetry is turned on.
   204 basis functions,   310 primitive gaussians,   230 cartesian basis functions
    15 alpha electrons       15 beta electrons
       nuclear repulsion energy       104.3334249241 Hartrees.
 NAtoms=   10 NActive=   10 NUniq=   10 SFac= 7.50D-01 NAtFMM=   80 NAOKFM=F Big=F
 One-electron integrals computed using PRISM.
 NBasis=   204 RedAO= T  NBF=   204
 NBsUse=   204 1.00D-06 NBFU=   204
 Harris functional with IExCor=  205 diagonalized for initial guess.
 ExpMin= 1.03D-01 ExpMax= 8.24D+03 ExpMxC= 2.81D+02 IAcc=1 IRadAn=         1 AccDes= 0.00D+00
 HarFok:  IExCor=  205 AccDes= 0.00D+00 IRadAn=         1 IDoV= 1
 ScaDFX=  1.000000  1.000000  1.000000  1.000000
 FoFCou: FMM=F IPFlag=           0 FMFlag=      100000 FMFlg1=           0
         NFxFlg=           0 DoJE=T BraDBF=F KetDBF=T FulRan=T
         Omega=  0.000000  0.000000  1.000000  0.000000  0.000000 ICntrl=     500 IOpCl=  0
         NMat0=    1 NMatS0=    1 NMatT0=    0 NMatD0=    1 NMtDS0=    0 NMtDT0=    0
         I1Cent=           4 NGrid=           0.
 Petite list used in FoFCou.
 Initial guess orbital symmetries:
       Occupied  (A) (A) (A) (A) (A) (A) (A) (A) (A) (A) (A) (A)
                 (A) (A) (A)
       Virtual   (A) (A) (A) (A) (A) (A) (A) (A) (A) (A) (A) (A)
                 (A) (A) (A) (A) (A) (A) (A) (A) (A) (A) (A) (A)
                 (A) (A) (A) (A) (A) (A) (A) (A) (A) (A) (A) (A)
                 (A) (A) (A) (A) (A) (A) (A) (A) (A) (A) (A) (A)
                 (A) (A) (A) (A) (A) (A) (A) (A) (A) (A) (A) (A)
                 (A) (A) (A) (A) (A) (A) (A) (A) (A) (A) (A) (A)
                 (A) (A) (A) (A) (A) (A) (A) (A) (A) (A) (A) (A)
                 (A) (A) (A) (A) (A) (A) (A) (A) (A) (A) (A) (A)
                 (A) (A) (A) (A) (A) (A) (A) (A) (A) (A) (A) (A)
                 (A) (A) (A) (A) (A) (A) (A) (A) (A) (A) (A) (A)
                 (A) (A) (A) (A) (A) (A) (A) (A) (A) (A) (A) (A)
                 (A) (A) (A) (A) (A) (A) (A) (A) (A) (A) (A) (A)
                 (A) (A) (A) (A) (A) (A) (A) (A) (A) (A) (A) (A)
                 (A) (A) (A) (A) (A) (A) (A) (A) (A) (A) (A) (A)
                 (A) (A) (A) (A) (A) (A) (A) (A) (A) (A) (A) (A)
                 (A) (A) (A) (A) (A) (A) (A) (A) (A)
 The electronic state of the initial guess is 1-A.
 Requested convergence on RMS density matrix=1.00D-08 within 128 cycles.
 Requested convergence on MAX density matrix=1.00D-06.
 Requested convergence on             energy=1.00D-06.
 No special actions if energy rises.
 Keep R1 ints in memory in canonical form, NReq=359206355.
 SCF Done:  E(RHF) =  -154.969838705     A.U. after   11 cycles
             Convg  =    0.5372D-08             -V/T =  2.0020
 ExpMin= 1.03D-01 ExpMax= 8.24D+03 ExpMxC= 2.81D+02 IAcc=1 IRadAn=         1 AccDes= 0.00D+00
 HarFok:  IExCor=  205 AccDes= 0.00D+00 IRadAn=         1 IDoV=-2
 ScaDFX=  1.000000  1.000000  1.000000  1.000000
 Range of M.O.s used for correlation:     5   204
 NBasis=   204 NAE=    15 NBE=    15 NFC=     4 NFV=     0
 NROrb=    200 NOA=    11 NOB=    11 NVA=   189 NVB=   189

 **** Warning!!: The largest alpha MO coefficient is  0.12857037D+02

 Fully in-core method, ICMem=   737753399.
 JobTyp=1 Pass  1 fully in-core, NPsUse=  8.
 Spin components of T(2) and E(2):
     alpha-alpha T2 =       0.2661751307D-01 E2=     -0.7382182857D-01
     alpha-beta  T2 =       0.1698955305D+00 E2=     -0.5042068245D+00
     beta-beta   T2 =       0.2661751307D-01 E2=     -0.7382182857D-01
 ANorm=    0.1105952330D+01
 E2 =    -0.6518504817D+00 EUMP2 =    -0.15562168918689D+03

 **********************************************************************

            Population analysis using the SCF density.

 **********************************************************************

 Orbital symmetries:
       Occupied  (A) (A) (A) (A) (A) (A) (A) (A) (A) (A) (A) (A)
                 (A) (A) (A)
       Virtual   (A) (A) (A) (A) (A) (A) (A) (A) (A) (A) (A) (A)
                 (A) (A) (A) (A) (A) (A) (A) (A) (A) (A) (A) (A)
                 (A) (A) (A) (A) (A) (A) (A) (A) (A) (A) (A) (A)
                 (A) (A) (A) (A) (A) (A) (A) (A) (A) (A) (A) (A)
                 (A) (A) (A) (A) (A) (A) (A) (A) (A) (A) (A) (A)
                 (A) (A) (A) (A) (A) (A) (A) (A) (A) (A) (A) (A)
                 (A) (A) (A) (A) (A) (A) (A) (A) (A) (A) (A) (A)
                 (A) (A) (A) (A) (A) (A) (A) (A) (A) (A) (A) (A)
                 (A) (A) (A) (A) (A) (A) (A) (A) (A) (A) (A) (A)
                 (A) (A) (A) (A) (A) (A) (A) (A) (A) (A) (A) (A)
                 (A) (A) (A) (A) (A) (A) (A) (A) (A) (A) (A) (A)
                 (A) (A) (A) (A) (A) (A) (A) (A) (A) (A) (A) (A)
                 (A) (A) (A) (A) (A) (A) (A) (A) (A) (A) (A) (A)
                 (A) (A) (A) (A) (A) (A) (A) (A) (A) (A) (A) (A)
                 (A) (A) (A) (A) (A) (A) (A) (A) (A) (A) (A) (A)
                 (A) (A) (A) (A) (A) (A) (A) (A) (A)
 The electronic state is 1-A.
 Alpha  occ. eigenvalues --  -11.23987 -11.23910 -11.22957 -11.22957  -1.08525
 Alpha  occ. eigenvalues --   -0.99195  -0.84430  -0.72618  -0.66714  -0.61103
 Alpha  occ. eigenvalues --   -0.58255  -0.51508  -0.49807  -0.43907  -0.32215
 Alpha virt. eigenvalues --    0.09682   0.15313   0.16531   0.17792   0.21538
 Alpha virt. eigenvalues --    0.22140   0.23993   0.26083   0.34131   0.36118
 Alpha virt. eigenvalues --    0.40934   0.43476   0.45548   0.47094   0.48884
 Alpha virt. eigenvalues --    0.48919   0.51254   0.53312   0.58173   0.58654
 Alpha virt. eigenvalues --    0.59870   0.61652   0.61727   0.64498   0.65980
 Alpha virt. eigenvalues --    0.66332   0.67141   0.68989   0.75545   0.76890
 Alpha virt. eigenvalues --    0.78362   0.81188   0.82883   0.88385   0.89497
 Alpha virt. eigenvalues --    0.91012   0.91388   0.96874   0.98981   1.03155
 Alpha virt. eigenvalues --    1.11732   1.15984   1.16106   1.18027   1.18179
 Alpha virt. eigenvalues --    1.18368   1.25969   1.26079   1.30942   1.32421
 Alpha virt. eigenvalues --    1.33415   1.33608   1.41890   1.44113   1.44771
 Alpha virt. eigenvalues --    1.47268   1.51459   1.52108   1.57068   1.62110
 Alpha virt. eigenvalues --    1.62851   1.64148   1.68235   1.68917   1.72429
 Alpha virt. eigenvalues --    1.77243   1.79959   1.83309   1.97087   2.12638
 Alpha virt. eigenvalues --    2.25068   2.34249   2.35002   2.44336   2.48196
 Alpha virt. eigenvalues --    2.49909   2.52182   2.56319   2.61332   2.66930
 Alpha virt. eigenvalues --    2.67509   2.74202   2.79680   2.81393   2.84873
 Alpha virt. eigenvalues --    2.85536   2.88693   2.93608   3.00370   3.04184
 Alpha virt. eigenvalues --    3.04274   3.04499   3.05655   3.08413   3.13546
 Alpha virt. eigenvalues --    3.14628   3.15265   3.15304   3.18411   3.20088
 Alpha virt. eigenvalues --    3.23700   3.25624   3.27110   3.31383   3.33916
 Alpha virt. eigenvalues --    3.36002   3.37384   3.37973   3.40390   3.42502
 Alpha virt. eigenvalues --    3.45770   3.47160   3.47840   3.49876   3.58419
 Alpha virt. eigenvalues --    3.59301   3.64852   3.66005   3.71239   3.72439
 Alpha virt. eigenvalues --    3.72630   3.78332   3.79565   3.82200   3.82366
 Alpha virt. eigenvalues --    3.84101   3.93086   3.93528   3.98241   3.99247
 Alpha virt. eigenvalues --    4.02841   4.05645   4.08807   4.12618   4.14594
 Alpha virt. eigenvalues --    4.14954   4.17489   4.19878   4.27208   4.28457
 Alpha virt. eigenvalues --    4.28961   4.30425   4.31813   4.32239   4.34638
 Alpha virt. eigenvalues --    4.40341   4.41304   4.46356   4.49510   4.49786
 Alpha virt. eigenvalues --    4.57697   4.64253   4.70961   4.71798   4.73023
 Alpha virt. eigenvalues --    4.73412   4.93090   4.93539   4.96679   5.03118
 Alpha virt. eigenvalues --    5.06340   5.09530   5.10800   5.17441   5.23926
 Alpha virt. eigenvalues --    5.24234   5.29248   5.32717   5.34714   5.35577
 Alpha virt. eigenvalues --    5.36534   5.39304   5.50183   5.57349   5.58725
 Alpha virt. eigenvalues --    5.73412   5.74170   5.84765   6.08932   6.18843
 Alpha virt. eigenvalues --    6.27054   6.43600   6.44523   6.54367   6.95261
 Alpha virt. eigenvalues --   11.17450  12.29516  14.03450  15.41994
          Condensed to atoms (all electrons):
              1          2          3          4          5          6
     1  C    4.950119   0.629448  -0.057103  -0.015333  -0.042759   0.004454
     2  C    0.629448   4.874858   0.367560  -0.057103   0.430741  -0.045102
     3  C   -0.057103   0.367560   4.874856   0.629448  -0.045102   0.430741
     4  C   -0.015333  -0.057103   0.629448   4.950118   0.004454  -0.042760
     5  H   -0.042759   0.430741  -0.045102   0.004454   0.509828  -0.003984
     6  H    0.004454  -0.045102   0.430741  -0.042760  -0.003984   0.509831
     7  H    0.415930  -0.046427  -0.000927  -0.001119   0.004894  -0.000015
     8  H    0.430332  -0.047964   0.004140  -0.000213  -0.006675  -0.000195
     9  H   -0.001119  -0.000927  -0.046429   0.415929  -0.000015   0.004894
    10  H   -0.000213   0.004140  -0.047963   0.430332  -0.000195  -0.006675
              7          8          9         10
     1  C    0.415930   0.430332  -0.001119  -0.000213
     2  C   -0.046427  -0.047964  -0.000927   0.004140
     3  C   -0.000927   0.004140  -0.046429  -0.047963
     4  C   -0.001119  -0.000213   0.415929   0.430332
     5  H    0.004894  -0.006675  -0.000015  -0.000195
     6  H   -0.000015  -0.000195   0.004894  -0.006675
     7  H    0.529879  -0.032786   0.000438  -0.000121
     8  H   -0.032786   0.509547  -0.000121   0.000027
     9  H    0.000438  -0.000121   0.529884  -0.032785
    10  H   -0.000121   0.000027  -0.032785   0.509545
 Mulliken atomic charges:
              1
     1  C   -0.313755
     2  C   -0.109223
     3  C   -0.109221
     4  C   -0.313754
     5  H    0.148814
     6  H    0.148812
     7  H    0.130256
     8  H    0.143908
     9  H    0.130253
    10  H    0.143910
 Sum of Mulliken atomic charges =   0.00000
 Mulliken charges with hydrogens summed into heavy atoms:
              1
     1  C   -0.039591
     2  C    0.039591
     3  C    0.039591
     4  C   -0.039591
 Sum of Mulliken charges with hydrogens summed into heavy atoms =   0.00000
 Electronic spatial extent (au):  <R**2>=            310.9897
 Charge=              0.0000 electrons
 Dipole moment (field-independent basis, Debye):
    X=              0.0000    Y=              0.0397    Z=              0.0000  Tot=              0.0397
 Quadrupole moment (field-independent basis, Debye-Ang):
   XX=            -23.2978   YY=            -22.5707   ZZ=            -29.4468
   XY=              0.0000   XZ=             -0.0002   YZ=              0.0000
 Traceless Quadrupole moment (field-independent basis, Debye-Ang):
   XX=              1.8073   YY=              2.5344   ZZ=             -4.3417
   XY=              0.0000   XZ=             -0.0002   YZ=              0.0000
 Octapole moment (field-independent basis, Debye-Ang**2):
  XXX=              0.0002  YYY=              0.2992  ZZZ=              0.0000  XYY=             -0.0001
  XXY=             -0.2813  XXZ=              0.0001  XZZ=              0.0000  YZZ=              0.1890
  YYZ=              0.0001  XYZ=             -0.0008
 Hexadecapole moment (field-independent basis, Debye-Ang**3):
 XXXX=           -268.1979 YYYY=            -94.6344 ZZZZ=            -35.4322 XXXY=             -0.0003
 XXXZ=             -0.0019 YYYX=              0.0001 YYYZ=              0.0000 ZZZX=              0.0000
 ZZZY=              0.0000 XXYY=            -65.0934 XXZZ=            -63.6325 YYZZ=            -24.5722
 XXYZ=              0.0000 YYXZ=              0.0000 ZZXY=              0.0000
 N-N= 1.043334249241D+02 E-N=-5.688281322992D+02  KE= 1.546633760289D+02
 1\1\GINC-ROCK\SP\RMP2-FC\CC-pVTZ\C4H6\STYLIANAKIS\25-Mar-2016\0\\# mp2
 /cc-pVTZ\\1_3_butadiene_cis_single_point\\0,1\C\C,1,1.342538\C,2,1.472
 445,1,127.331\C,3,1.342534,2,127.331,1,-0.011,0\H,2,1.089112,3,114.876
 ,4,179.99,0\H,3,1.089114,2,114.876,1,179.991,0\H,1,1.086749,2,122.538,
 3,-0.001,0\H,1,1.085322,2,120.947,3,-180.,0\H,4,1.086752,3,122.537,2,-
 0.001,0\H,4,1.085322,3,120.948,2,-179.999,0\\Version=EM64L-G09RevA.01\
 State=1-A\HF=-154.9698387\MP2=-155.6216892\RMSD=5.372e-09\PG=C01 [X(C4
 H6)]\\@


 AND THIS OUR LIFE, EXEMPT FROM PUBLIC HAUNT,
 FINDS TONGUES IN TREES, BOOKS IN THE RUNNING BROOKS,
 SERMONS IN STONES, AND GOOD IN EVERYTHING.
 I WOULD NOT CHANGE IT. -- W. SHAKESPEARE
 AS YOU LIKE IT, ACT II, SCENE 1.
 Job cpu time:  0 days  0 hours 11 minutes 22.6 seconds.
 File lengths (MBytes):  RWF=     20 Int=      0 D2E=      0 Chk=      3 Scr=      1
 Normal termination of Gaussian 09 at Fri Mar 25 19:36:15 2016.
