 Entering Gaussian System, Link 0=g09
 Input=2_methyl_1_3_butadiene_cis.gjf
 Output=2_methyl_1_3_butadiene_cis.out
 Initial command:
 /usr/local/g09/l1.exe /home/scratch/stylianakis/Gau-18961.inp -scrdir=/home/scratch/stylianakis/
 Entering Link 1 = /usr/local/g09/l1.exe PID=     18962.
  
 Copyright (c) 1988,1990,1992,1993,1995,1998,2003,2009, Gaussian, Inc.
                  All Rights Reserved.
  
 This is part of the Gaussian(R) 09 program.  It is based on
 the Gaussian(R) 03 system (copyright 2003, Gaussian, Inc.),
 the Gaussian(R) 98 system (copyright 1998, Gaussian, Inc.),
 the Gaussian(R) 94 system (copyright 1995, Gaussian, Inc.),
 the Gaussian 92(TM) system (copyright 1992, Gaussian, Inc.),
 the Gaussian 90(TM) system (copyright 1990, Gaussian, Inc.),
 the Gaussian 88(TM) system (copyright 1988, Gaussian, Inc.),
 the Gaussian 86(TM) system (copyright 1986, Carnegie Mellon
 University), and the Gaussian 82(TM) system (copyright 1983,
 Carnegie Mellon University). Gaussian is a federally registered
 trademark of Gaussian, Inc.
  
 This software contains proprietary and confidential information,
 including trade secrets, belonging to Gaussian, Inc.
  
 This software is provided under written license and may be
 used, copied, transmitted, or stored only in accord with that
 written license.
  
 The following legend is applicable only to US Government
 contracts under FAR:
  
                    RESTRICTED RIGHTS LEGEND
  
 Use, reproduction and disclosure by the US Government is
 subject to restrictions as set forth in subparagraphs (a)
 and (c) of the Commercial Computer Software - Restricted
 Rights clause in FAR 52.227-19.
  
 Gaussian, Inc.
 340 Quinnipiac St., Bldg. 40, Wallingford CT 06492
  
  
 ---------------------------------------------------------------
 Warning -- This program may not be used in any manner that
 competes with the business of Gaussian, Inc. or will provide
 assistance to any competitor of Gaussian, Inc.  The licensee
 of this program is prohibited from giving any competitor of
 Gaussian, Inc. access to this program.  By using this program,
 the user acknowledges that Gaussian, Inc. is engaged in the
 business of creating and licensing software in the field of
 computational chemistry and represents and warrants to the
 licensee that it is not a competitor of Gaussian, Inc. and that
 it will not use this program in any manner prohibited above.
 ---------------------------------------------------------------
  

 Cite this work as:
 Gaussian 09, Revision A.01,
 M. J. Frisch, G. W. Trucks, H. B. Schlegel, G. E. Scuseria, 
 M. A. Robb, J. R. Cheeseman, G. Scalmani, V. Barone, B. Mennucci, 
 G. A. Petersson, H. Nakatsuji, M. Caricato, X. Li, H. P. Hratchian, 
 A. F. Izmaylov, J. Bloino, G. Zheng, J. L. Sonnenberg, M. Hada, 
 M. Ehara, K. Toyota, R. Fukuda, J. Hasegawa, M. Ishida, T. Nakajima, 
 Y. Honda, O. Kitao, H. Nakai, T. Vreven, J. A. Montgomery, Jr., 
 J. E. Peralta, F. Ogliaro, M. Bearpark, J. J. Heyd, E. Brothers, 
 K. N. Kudin, V. N. Staroverov, R. Kobayashi, J. Normand, 
 K. Raghavachari, A. Rendell, J. C. Burant, S. S. Iyengar, J. Tomasi, 
 M. Cossi, N. Rega, J. M. Millam, M. Klene, J. E. Knox, J. B. Cross, 
 V. Bakken, C. Adamo, J. Jaramillo, R. Gomperts, R. E. Stratmann, 
 O. Yazyev, A. J. Austin, R. Cammi, C. Pomelli, J. W. Ochterski, 
 R. L. Martin, K. Morokuma, V. G. Zakrzewski, G. A. Voth, 
 P. Salvador, J. J. Dannenberg, S. Dapprich, A. D. Daniels, 
 O. Farkas, J. B. Foresman, J. V. Ortiz, J. Cioslowski, 
 and D. J. Fox, Gaussian, Inc., Wallingford CT, 2009.
 
 ******************************************
 Gaussian 09:  EM64L-G09RevA.01  8-May-2009
                25-Mar-2016 
 ******************************************
 %mem=16000Mb
 %nproc=8
 Will use up to    8 processors via shared memory.
 -------------
 # mp2/cc-pVTZ
 -------------
 1/38=1/1;
 2/12=2,17=6,18=5,40=1/2;
 3/5=16,6=1,11=9,16=1,25=1,30=1/1,2,3;
 4//1;
 5/5=2,38=5/2;
 8/10=1/1;
 9/16=-3/6;
 6/7=2,8=2,9=2,10=2/1;
 99/5=1,9=1/99;
 ---------------------------------------
 2_methyl_1_3_butadiene_cis_single_point
 ---------------------------------------
 Symbolic Z-matrix:
 Charge =  0 Multiplicity = 1
 c
 c                    1    cc2
 c                    2    cc3      1    ccc3
 c                    2    cc4      3    ccc4     1    dih4     0
 c                    4    cc5      2    ccc5     3    dih5     0
 h                    1    hc6      2    hcc6     4    dih6     0
 h                    1    hc7      2    hcc7     4    dih7     0
 h                    4    hc8      2    hcc8     1    dih8     0
 h                    5    hc9      4    hcc9     2    dih9     0
 h                    5    hc10     4    hcc10    2    dih10    0
 h                    3    hc11     2    hcc11    1    dih11    0
 h                    3    hc12     2    hcc12    1    dih12    0
 h                    3    hc13     2    hcc13    1    dih13    0
       Variables:
  cc2                   1.34503                  
  cc3                   1.52216                  
  ccc3                120.257                    
  cc4                   1.48121                  
  ccc4                116.401                    
  dih4                179.998                    
  cc5                   1.34216                  
  ccc5                127.925                    
  dih5               -179.999                    
  hc6                   1.08635                  
  hcc6                121.17                     
  dih6                179.999                    
  hc7                   1.08544                  
  hcc7                122.393                    
  dih7                 -0.001                    
  hc8                   1.08946                  
  hcc8                114.775                    
  dih8                179.999                    
  hc9                   1.08529                  
  hcc9                120.694                    
  dih9               -179.999                    
  hc10                  1.08647                  
  hcc10               122.766                    
  dih10                 0.                       
  hc11                  1.09366                  
  hcc11               111.764                    
  dih11               179.955                    
  hc12                  1.09535                  
  hcc12               111.207                    
  dih12               -59.882                    
  hc13                  1.09535                  
  hcc13               111.207                    
  dih13                59.792                    
 
                          Input orientation:                          
 ---------------------------------------------------------------------
 Center     Atomic      Atomic             Coordinates (Angstroms)
 Number     Number       Type             X           Y           Z
 ---------------------------------------------------------------------
      1          6           0        0.000000    0.000000    0.000000
      2          6           0        0.000000    0.000000    1.345028
      3          6           0        1.314803    0.000000    2.112014
      4          6           0       -1.237413   -0.000046    2.159156
      5          6           0       -2.508474   -0.000074    1.728109
      6          1           0        0.929519    0.000051   -0.562272
      7          1           0       -0.916540   -0.000050   -0.581497
      8          1           0       -1.075121   -0.000058    3.236458
      9          1           0       -3.332834   -0.000091    2.433998
     10          1           0       -2.771922   -0.000065    0.674063
     11          1           0        1.153281    0.000798    3.193684
     12          1           0        1.915247   -0.883307    1.869063
     13          1           0        1.915944    0.882498    1.867866
 ---------------------------------------------------------------------
                    Distance matrix (angstroms):
                    1          2          3          4          5
     1  C    0.000000
     2  C    1.345028   0.000000
     3  C    2.487832   1.522161   0.000000
     4  C    2.488603   1.481214   2.552651   0.000000
     5  C    3.046113   2.537556   3.842503   1.342161   0.000000
     6  H    1.086349   2.121744   2.701897   3.478758   4.131057
     7  H    1.085442   2.133435   3.497698   2.759372   2.805091
     8  H    3.410358   2.175636   2.641233   1.089458   2.080773
     9  H    4.127000   3.506228   4.658777   2.113368   1.085287
    10  H    2.852703   2.851972   4.332323   2.135467   1.086471
    11  H    3.395538   2.178896   1.093664   2.604932   3.944155
    12  H    2.818120   2.173250   1.095349   3.286878   4.513233
    13  H    2.817546   2.173247   1.095345   3.287460   4.513749
                    6          7          8          9         10
     6  H    0.000000
     7  H    1.846159   0.000000
     8  H    4.295221   3.821247   0.000000
     9  H    5.210113   3.864154   2.396082   0.000000
    10  H    3.902459   2.240284   3.073272   1.847158   0.000000
    11  H    3.762615   4.305364   2.228813   4.549984   4.664302
    12  H    2.768279   3.847649   3.404732   5.351782   4.917082
    13  H    2.767185   3.847237   3.405645   5.352488   4.917333
                   11         12         13
    11  H    0.000000
    12  H    1.765462   0.000000
    13  H    1.765458   1.765805   0.000000
 Stoichiometry    C5H8
 Framework group  C1[X(C5H8)]
 Deg. of freedom    33
 Full point group                 C1      NOp   1
 Largest Abelian subgroup         C1      NOp   1
 Largest concise Abelian subgroup C1      NOp   1
                         Standard orientation:                         
 ---------------------------------------------------------------------
 Center     Atomic      Atomic             Coordinates (Angstroms)
 Number     Number       Type             X           Y           Z
 ---------------------------------------------------------------------
      1          6           0       -0.543859    1.444306    0.000000
      2          6           0       -0.449584    0.102586   -0.000014
      3          6           0       -1.707394   -0.754670    0.000004
      4          6           0        0.841849   -0.622807   -0.000003
      5          6           0        2.079571   -0.103730    0.000004
      6          1           0       -1.510502    1.940043   -0.000025
      7          1           0        0.329669    2.088614    0.000039
      8          1           0        0.755466   -1.708835    0.000000
      9          1           0        2.951381   -0.750102   -0.000004
     10          1           0        2.268492    0.966189    0.000000
     11          1           0       -1.470454   -1.822359   -0.000809
     12          1           0       -2.323371   -0.554411    0.883327
     13          1           0       -2.324188   -0.553249   -0.882478
 ---------------------------------------------------------------------
 Rotational constants (GHZ):      9.2029956      3.8011943      2.7358475
 Standard basis: CC-pVTZ (5D, 7F)
 There are   262 symmetry adapted basis functions of A   symmetry.
 Integral buffers will be    131072 words long.
 Raffenetti 1 integral format.
 Two-electron integral symmetry is turned on.
   262 basis functions,   396 primitive gaussians,   295 cartesian basis functions
    19 alpha electrons       19 beta electrons
       nuclear repulsion energy       158.7734831158 Hartrees.
 NAtoms=   13 NActive=   13 NUniq=   13 SFac= 7.50D-01 NAtFMM=   80 NAOKFM=F Big=F
 One-electron integrals computed using PRISM.
 NBasis=   262 RedAO= T  NBF=   262
 NBsUse=   262 1.00D-06 NBFU=   262
 Harris functional with IExCor=  205 diagonalized for initial guess.
 ExpMin= 1.03D-01 ExpMax= 8.24D+03 ExpMxC= 2.81D+02 IAcc=1 IRadAn=         1 AccDes= 0.00D+00
 HarFok:  IExCor=  205 AccDes= 0.00D+00 IRadAn=         1 IDoV= 1
 ScaDFX=  1.000000  1.000000  1.000000  1.000000
 FoFCou: FMM=F IPFlag=           0 FMFlag=      100000 FMFlg1=           0
         NFxFlg=           0 DoJE=T BraDBF=F KetDBF=T FulRan=T
         Omega=  0.000000  0.000000  1.000000  0.000000  0.000000 ICntrl=     500 IOpCl=  0
         NMat0=    1 NMatS0=    1 NMatT0=    0 NMatD0=    1 NMtDS0=    0 NMtDT0=    0
         I1Cent=           4 NGrid=           0.
 Petite list used in FoFCou.
 Initial guess orbital symmetries:
       Occupied  (A) (A) (A) (A) (A) (A) (A) (A) (A) (A) (A) (A)
                 (A) (A) (A) (A) (A) (A) (A)
       Virtual   (A) (A) (A) (A) (A) (A) (A) (A) (A) (A) (A) (A)
                 (A) (A) (A) (A) (A) (A) (A) (A) (A) (A) (A) (A)
                 (A) (A) (A) (A) (A) (A) (A) (A) (A) (A) (A) (A)
                 (A) (A) (A) (A) (A) (A) (A) (A) (A) (A) (A) (A)
                 (A) (A) (A) (A) (A) (A) (A) (A) (A) (A) (A) (A)
                 (A) (A) (A) (A) (A) (A) (A) (A) (A) (A) (A) (A)
                 (A) (A) (A) (A) (A) (A) (A) (A) (A) (A) (A) (A)
                 (A) (A) (A) (A) (A) (A) (A) (A) (A) (A) (A) (A)
                 (A) (A) (A) (A) (A) (A) (A) (A) (A) (A) (A) (A)
                 (A) (A) (A) (A) (A) (A) (A) (A) (A) (A) (A) (A)
                 (A) (A) (A) (A) (A) (A) (A) (A) (A) (A) (A) (A)
                 (A) (A) (A) (A) (A) (A) (A) (A) (A) (A) (A) (A)
                 (A) (A) (A) (A) (A) (A) (A) (A) (A) (A) (A) (A)
                 (A) (A) (A) (A) (A) (A) (A) (A) (A) (A) (A) (A)
                 (A) (A) (A) (A) (A) (A) (A) (A) (A) (A) (A) (A)
                 (A) (A) (A) (A) (A) (A) (A) (A) (A) (A) (A) (A)
                 (A) (A) (A) (A) (A) (A) (A) (A) (A) (A) (A) (A)
                 (A) (A) (A) (A) (A) (A) (A) (A) (A) (A) (A) (A)
                 (A) (A) (A) (A) (A) (A) (A) (A) (A) (A) (A) (A)
                 (A) (A) (A) (A) (A) (A) (A) (A) (A) (A) (A) (A)
                 (A) (A) (A)
 The electronic state of the initial guess is 1-A.
 Requested convergence on RMS density matrix=1.00D-08 within 128 cycles.
 Requested convergence on MAX density matrix=1.00D-06.
 Requested convergence on             energy=1.00D-06.
 No special actions if energy rises.
 Keep R1 ints in memory in canonical form, NReq=966370401.
 SCF Done:  E(RHF) =  -194.016508491     A.U. after   11 cycles
             Convg  =    0.7991D-08             -V/T =  2.0019
 ExpMin= 1.03D-01 ExpMax= 8.24D+03 ExpMxC= 2.81D+02 IAcc=1 IRadAn=         1 AccDes= 0.00D+00
 HarFok:  IExCor=  205 AccDes= 0.00D+00 IRadAn=         1 IDoV=-2
 ScaDFX=  1.000000  1.000000  1.000000  1.000000
 Range of M.O.s used for correlation:     6   262
 NBasis=   262 NAE=    19 NBE=    19 NFC=     5 NFV=     0
 NROrb=    257 NOA=    14 NOB=    14 NVA=   243 NVB=   243

 **** Warning!!: The largest alpha MO coefficient is  0.15767891D+02

 Fully in-core method, ICMem=  1966223969.
 JobTyp=1 Pass  1 fully in-core, NPsUse=  8.
 Spin components of T(2) and E(2):
     alpha-alpha T2 =       0.3363484860D-01 E2=     -0.9417535024D-01
     alpha-beta  T2 =       0.2119120094D+00 E2=     -0.6406642694D+00
     beta-beta   T2 =       0.3363484860D-01 E2=     -0.9417535024D-01
 ANorm=    0.1131009154D+01
 E2 =    -0.8290149699D+00 EUMP2 =    -0.19484552346042D+03

 **********************************************************************

            Population analysis using the SCF density.

 **********************************************************************

 Orbital symmetries:
       Occupied  (A) (A) (A) (A) (A) (A) (A) (A) (A) (A) (A) (A)
                 (A) (A) (A) (A) (A) (A) (A)
       Virtual   (A) (A) (A) (A) (A) (A) (A) (A) (A) (A) (A) (A)
                 (A) (A) (A) (A) (A) (A) (A) (A) (A) (A) (A) (A)
                 (A) (A) (A) (A) (A) (A) (A) (A) (A) (A) (A) (A)
                 (A) (A) (A) (A) (A) (A) (A) (A) (A) (A) (A) (A)
                 (A) (A) (A) (A) (A) (A) (A) (A) (A) (A) (A) (A)
                 (A) (A) (A) (A) (A) (A) (A) (A) (A) (A) (A) (A)
                 (A) (A) (A) (A) (A) (A) (A) (A) (A) (A) (A) (A)
                 (A) (A) (A) (A) (A) (A) (A) (A) (A) (A) (A) (A)
                 (A) (A) (A) (A) (A) (A) (A) (A) (A) (A) (A) (A)
                 (A) (A) (A) (A) (A) (A) (A) (A) (A) (A) (A) (A)
                 (A) (A) (A) (A) (A) (A) (A) (A) (A) (A) (A) (A)
                 (A) (A) (A) (A) (A) (A) (A) (A) (A) (A) (A) (A)
                 (A) (A) (A) (A) (A) (A) (A) (A) (A) (A) (A) (A)
                 (A) (A) (A) (A) (A) (A) (A) (A) (A) (A) (A) (A)
                 (A) (A) (A) (A) (A) (A) (A) (A) (A) (A) (A) (A)
                 (A) (A) (A) (A) (A) (A) (A) (A) (A) (A) (A) (A)
                 (A) (A) (A) (A) (A) (A) (A) (A) (A) (A) (A) (A)
                 (A) (A) (A) (A) (A) (A) (A) (A) (A) (A) (A) (A)
                 (A) (A) (A) (A) (A) (A) (A) (A) (A) (A) (A) (A)
                 (A) (A) (A) (A) (A) (A) (A) (A) (A) (A) (A) (A)
                 (A) (A) (A)
 The electronic state is 1-A.
 Alpha  occ. eigenvalues --  -11.24497 -11.23708 -11.22796 -11.22292 -11.21722
 Alpha  occ. eigenvalues --   -1.09977  -1.00584  -0.93025  -0.82532  -0.70888
 Alpha  occ. eigenvalues --   -0.64777  -0.62245  -0.57097  -0.57013  -0.53093
 Alpha  occ. eigenvalues --   -0.50714  -0.48632  -0.42324  -0.31386
 Alpha virt. eigenvalues --    0.09684   0.14581   0.16889   0.17370   0.20541
 Alpha virt. eigenvalues --    0.21045   0.21462   0.25432   0.26175   0.26287
 Alpha virt. eigenvalues --    0.30145   0.32913   0.38668   0.38719   0.44070
 Alpha virt. eigenvalues --    0.45783   0.46079   0.47441   0.48933   0.50018
 Alpha virt. eigenvalues --    0.50471   0.51806   0.58017   0.58832   0.59414
 Alpha virt. eigenvalues --    0.59511   0.61380   0.63164   0.63856   0.64517
 Alpha virt. eigenvalues --    0.64791   0.65892   0.66705   0.68793   0.71744
 Alpha virt. eigenvalues --    0.74795   0.78463   0.80404   0.82553   0.82700
 Alpha virt. eigenvalues --    0.84556   0.86925   0.87775   0.88848   0.91480
 Alpha virt. eigenvalues --    0.92152   0.97415   1.00588   1.05437   1.06679
 Alpha virt. eigenvalues --    1.08517   1.09363   1.14019   1.15364   1.16169
 Alpha virt. eigenvalues --    1.18000   1.18349   1.22136   1.22564   1.26237
 Alpha virt. eigenvalues --    1.26392   1.29066   1.32545   1.34086   1.36401
 Alpha virt. eigenvalues --    1.39870   1.40525   1.43802   1.44951   1.47838
 Alpha virt. eigenvalues --    1.49929   1.51043   1.52190   1.53648   1.55368
 Alpha virt. eigenvalues --    1.56103   1.57047   1.61911   1.66213   1.69128
 Alpha virt. eigenvalues --    1.70912   1.71277   1.74130   1.77181   1.81680
 Alpha virt. eigenvalues --    1.83011   1.87879   1.90152   2.08726   2.10248
 Alpha virt. eigenvalues --    2.30240   2.34871   2.41107   2.43009   2.44319
 Alpha virt. eigenvalues --    2.49182   2.54407   2.60131   2.60228   2.62884
 Alpha virt. eigenvalues --    2.65878   2.72978   2.77279   2.77780   2.79132
 Alpha virt. eigenvalues --    2.82828   2.83939   2.85499   2.86263   2.88889
 Alpha virt. eigenvalues --    2.94772   2.98199   2.99462   3.04343   3.04930
 Alpha virt. eigenvalues --    3.06796   3.09592   3.11180   3.12777   3.14257
 Alpha virt. eigenvalues --    3.15832   3.16182   3.17278   3.18505   3.20346
 Alpha virt. eigenvalues --    3.21950   3.23163   3.24268   3.28168   3.31389
 Alpha virt. eigenvalues --    3.31550   3.32984   3.34534   3.35024   3.37178
 Alpha virt. eigenvalues --    3.41353   3.41604   3.43793   3.44628   3.45093
 Alpha virt. eigenvalues --    3.46230   3.50068   3.50583   3.53631   3.55889
 Alpha virt. eigenvalues --    3.58884   3.64217   3.64446   3.67018   3.67587
 Alpha virt. eigenvalues --    3.69172   3.72058   3.73679   3.73914   3.78049
 Alpha virt. eigenvalues --    3.79344   3.80727   3.82839   3.84593   3.86503
 Alpha virt. eigenvalues --    3.88669   3.92442   3.95948   3.99703   4.00648
 Alpha virt. eigenvalues --    4.02375   4.03039   4.06435   4.08781   4.10879
 Alpha virt. eigenvalues --    4.11530   4.14535   4.16245   4.20015   4.20705
 Alpha virt. eigenvalues --    4.23489   4.24654   4.26610   4.28231   4.30014
 Alpha virt. eigenvalues --    4.32979   4.33377   4.35293   4.38091   4.38450
 Alpha virt. eigenvalues --    4.40147   4.40744   4.42890   4.47274   4.48144
 Alpha virt. eigenvalues --    4.51161   4.55399   4.61814   4.65632   4.68210
 Alpha virt. eigenvalues --    4.68398   4.71059   4.76956   4.77539   4.80822
 Alpha virt. eigenvalues --    4.90055   4.95849   4.97727   4.98557   5.01918
 Alpha virt. eigenvalues --    5.11672   5.16545   5.17073   5.17816   5.19602
 Alpha virt. eigenvalues --    5.23290   5.24474   5.29975   5.31779   5.35244
 Alpha virt. eigenvalues --    5.40220   5.40884   5.43125   5.45019   5.50050
 Alpha virt. eigenvalues --    5.52237   5.58849   5.59938   5.65526   5.65962
 Alpha virt. eigenvalues --    5.67378   5.72096   5.75996   5.82020   5.97056
 Alpha virt. eigenvalues --    6.20065   6.21207   6.24070   6.31819   6.36111
 Alpha virt. eigenvalues --    6.44737   6.54392   6.82972  10.56387  12.16226
 Alpha virt. eigenvalues --   14.28272  14.44866  15.42784
          Condensed to atoms (all electrons):
              1          2          3          4          5          6
     1  C    4.989118   0.629177  -0.055134  -0.046181  -0.019068   0.428912
     2  C    0.629177   4.926322   0.329099   0.369171  -0.058916  -0.053782
     3  C   -0.055134   0.329099   4.786902  -0.053907   0.004919  -0.005130
     4  C   -0.046181   0.369171  -0.053907   4.884607   0.637364   0.004294
     5  C   -0.019068  -0.058916   0.004919   0.637364   4.947718  -0.000189
     6  H    0.428912  -0.053782  -0.005130   0.004294  -0.000189   0.523516
     7  H    0.425921  -0.050949   0.004559  -0.004525  -0.002054  -0.034396
     8  H    0.004252  -0.044409  -0.005056   0.429419  -0.045324  -0.000218
     9  H   -0.000083   0.004629  -0.000215  -0.048271   0.430123   0.000031
    10  H   -0.000933  -0.000807  -0.000148  -0.045754   0.416267  -0.000149
    11  H    0.004786  -0.045550   0.431746  -0.004147   0.000336   0.000152
    12  H   -0.007692  -0.037721   0.420759   0.004301  -0.000208   0.000443
    13  H   -0.007695  -0.037720   0.420785   0.004308  -0.000208   0.000444
              7          8          9         10         11         12
     1  C    0.425921   0.004252  -0.000083  -0.000933   0.004786  -0.007692
     2  C   -0.050949  -0.044409   0.004629  -0.000807  -0.045550  -0.037721
     3  C    0.004559  -0.005056  -0.000215  -0.000148   0.431746   0.420759
     4  C   -0.004525   0.429419  -0.048271  -0.045754  -0.004147   0.004301
     5  C   -0.002054  -0.045324   0.430123   0.416267   0.000336  -0.000208
     6  H   -0.034396  -0.000218   0.000031  -0.000149   0.000152   0.000443
     7  H    0.531855   0.000029  -0.000073   0.000156  -0.000225  -0.000119
     8  H    0.000029   0.517231  -0.006880   0.005051   0.001006   0.000191
     9  H   -0.000073  -0.006880   0.509987  -0.032932  -0.000059   0.000013
    10  H    0.000156   0.005051  -0.032932   0.527147  -0.000005   0.000002
    11  H   -0.000225   0.001006  -0.000059  -0.000005   0.580110  -0.029764
    12  H   -0.000119   0.000191   0.000013   0.000002  -0.029764   0.571599
    13  H   -0.000119   0.000191   0.000013   0.000002  -0.029759  -0.030212
             13
     1  C   -0.007695
     2  C   -0.037720
     3  C    0.420785
     4  C    0.004308
     5  C   -0.000208
     6  H    0.000444
     7  H   -0.000119
     8  H    0.000191
     9  H    0.000013
    10  H    0.000002
    11  H   -0.029759
    12  H   -0.030212
    13  H    0.571561
 Mulliken atomic charges:
              1
     1  C   -0.345380
     2  C    0.071456
     3  C   -0.279178
     4  C   -0.130679
     5  C   -0.310760
     6  H    0.136071
     7  H    0.129939
     8  H    0.144517
     9  H    0.143717
    10  H    0.132104
    11  H    0.091374
    12  H    0.108409
    13  H    0.108410
 Sum of Mulliken atomic charges =   0.00000
 Mulliken charges with hydrogens summed into heavy atoms:
              1
     1  C   -0.079370
     2  C    0.071456
     3  C    0.029015
     4  C    0.013838
     5  C   -0.034939
 Sum of Mulliken charges with hydrogens summed into heavy atoms =   0.00000
 Electronic spatial extent (au):  <R**2>=            488.2747
 Charge=              0.0000 electrons
 Dipole moment (field-independent basis, Debye):
    X=             -0.1943    Y=             -0.2738    Z=              0.0001  Tot=              0.3357
 Quadrupole moment (field-independent basis, Debye-Ang):
   XX=            -29.6512   YY=            -30.0033   ZZ=            -35.6806
   XY=              0.3414   XZ=              0.0000   YZ=              0.0001
 Traceless Quadrupole moment (field-independent basis, Debye-Ang):
   XX=              2.1271   YY=              1.7751   ZZ=             -3.9022
   XY=              0.3414   XZ=              0.0000   YZ=              0.0001
 Octapole moment (field-independent basis, Debye-Ang**2):
  XXX=              3.0044  YYY=              0.0423  ZZZ=              0.0015  XYY=              1.6320
  XXY=              1.2309  XXZ=             -0.0006  XZZ=             -3.5864  YZZ=             -1.2540
  YYZ=             -0.0008  XYZ=              0.0007
 Hexadecapole moment (field-independent basis, Debye-Ang**3):
 XXXX=           -411.6792 YYYY=           -193.6090 ZZZZ=            -48.4633 XXXY=             -6.7546
 XXXZ=              0.0033 YYYX=              0.2099 YYYZ=              0.0035 ZZZX=             -0.0032
 ZZZY=             -0.0013 XXYY=           -100.3820 XXZZ=            -84.4408 YYZZ=            -46.4781
 XXYZ=             -0.0022 YYXZ=              0.0009 ZZXY=              2.3788
 N-N= 1.587734831158D+02 E-N=-7.684431680888D+02  KE= 1.936492665317D+02
 1\1\GINC-ROCK\SP\RMP2-FC\CC-pVTZ\C5H8\STYLIANAKIS\25-Mar-2016\0\\# mp2
 /cc-pVTZ\\2_methyl_1_3_butadiene_cis_single_point\\0,1\C\C,1,1.345028\
 C,2,1.522161,1,120.257\C,2,1.481214,3,116.401,1,179.998,0\C,4,1.342161
 ,2,127.925,3,-179.999,0\H,1,1.086349,2,121.17,4,179.999,0\H,1,1.085442
 ,2,122.393,4,-0.001,0\H,4,1.089458,2,114.775,1,179.999,0\H,5,1.085287,
 4,120.694,2,-179.999,0\H,5,1.086471,4,122.766,2,0.,0\H,3,1.093664,2,11
 1.764,1,179.955,0\H,3,1.095349,2,111.207,1,-59.882,0\H,3,1.095345,2,11
 1.207,1,59.792,0\\Version=EM64L-G09RevA.01\State=1-A\HF=-194.0165085\M
 P2=-194.8455235\RMSD=7.991e-09\PG=C01 [X(C5H8)]\\@


 DO NOT LET SELFISH MEN OR GREEDY INTERESTS SKIN YOUR COUNTRY OF ITS
 BEAUTY, ITS RICHES, OR ITS ROMANCE. -- THEODORE ROOSEVELT
 Job cpu time:  0 days  0 hours 33 minutes 57.0 seconds.
 File lengths (MBytes):  RWF=     30 Int=      0 D2E=      0 Chk=      4 Scr=      1
 Normal termination of Gaussian 09 at Fri Mar 25 19:42:03 2016.
