 Entering Gaussian System, Link 0=g09
 Input=2_methylpropenoic_acid_cis.gjf
 Output=2_methylpropenoic_acid_cis.out
 Initial command:
 /usr/local/g09/l1.exe /home/scratch/stylianakis/Gau-19472.inp -scrdir=/home/scratch/stylianakis/
 Entering Link 1 = /usr/local/g09/l1.exe PID=     19473.
  
 Copyright (c) 1988,1990,1992,1993,1995,1998,2003,2009, Gaussian, Inc.
                  All Rights Reserved.
  
 This is part of the Gaussian(R) 09 program.  It is based on
 the Gaussian(R) 03 system (copyright 2003, Gaussian, Inc.),
 the Gaussian(R) 98 system (copyright 1998, Gaussian, Inc.),
 the Gaussian(R) 94 system (copyright 1995, Gaussian, Inc.),
 the Gaussian 92(TM) system (copyright 1992, Gaussian, Inc.),
 the Gaussian 90(TM) system (copyright 1990, Gaussian, Inc.),
 the Gaussian 88(TM) system (copyright 1988, Gaussian, Inc.),
 the Gaussian 86(TM) system (copyright 1986, Carnegie Mellon
 University), and the Gaussian 82(TM) system (copyright 1983,
 Carnegie Mellon University). Gaussian is a federally registered
 trademark of Gaussian, Inc.
  
 This software contains proprietary and confidential information,
 including trade secrets, belonging to Gaussian, Inc.
  
 This software is provided under written license and may be
 used, copied, transmitted, or stored only in accord with that
 written license.
  
 The following legend is applicable only to US Government
 contracts under FAR:
  
                    RESTRICTED RIGHTS LEGEND
  
 Use, reproduction and disclosure by the US Government is
 subject to restrictions as set forth in subparagraphs (a)
 and (c) of the Commercial Computer Software - Restricted
 Rights clause in FAR 52.227-19.
  
 Gaussian, Inc.
 340 Quinnipiac St., Bldg. 40, Wallingford CT 06492
  
  
 ---------------------------------------------------------------
 Warning -- This program may not be used in any manner that
 competes with the business of Gaussian, Inc. or will provide
 assistance to any competitor of Gaussian, Inc.  The licensee
 of this program is prohibited from giving any competitor of
 Gaussian, Inc. access to this program.  By using this program,
 the user acknowledges that Gaussian, Inc. is engaged in the
 business of creating and licensing software in the field of
 computational chemistry and represents and warrants to the
 licensee that it is not a competitor of Gaussian, Inc. and that
 it will not use this program in any manner prohibited above.
 ---------------------------------------------------------------
  

 Cite this work as:
 Gaussian 09, Revision A.01,
 M. J. Frisch, G. W. Trucks, H. B. Schlegel, G. E. Scuseria, 
 M. A. Robb, J. R. Cheeseman, G. Scalmani, V. Barone, B. Mennucci, 
 G. A. Petersson, H. Nakatsuji, M. Caricato, X. Li, H. P. Hratchian, 
 A. F. Izmaylov, J. Bloino, G. Zheng, J. L. Sonnenberg, M. Hada, 
 M. Ehara, K. Toyota, R. Fukuda, J. Hasegawa, M. Ishida, T. Nakajima, 
 Y. Honda, O. Kitao, H. Nakai, T. Vreven, J. A. Montgomery, Jr., 
 J. E. Peralta, F. Ogliaro, M. Bearpark, J. J. Heyd, E. Brothers, 
 K. N. Kudin, V. N. Staroverov, R. Kobayashi, J. Normand, 
 K. Raghavachari, A. Rendell, J. C. Burant, S. S. Iyengar, J. Tomasi, 
 M. Cossi, N. Rega, J. M. Millam, M. Klene, J. E. Knox, J. B. Cross, 
 V. Bakken, C. Adamo, J. Jaramillo, R. Gomperts, R. E. Stratmann, 
 O. Yazyev, A. J. Austin, R. Cammi, C. Pomelli, J. W. Ochterski, 
 R. L. Martin, K. Morokuma, V. G. Zakrzewski, G. A. Voth, 
 P. Salvador, J. J. Dannenberg, S. Dapprich, A. D. Daniels, 
 O. Farkas, J. B. Foresman, J. V. Ortiz, J. Cioslowski, 
 and D. J. Fox, Gaussian, Inc., Wallingford CT, 2009.
 
 ******************************************
 Gaussian 09:  EM64L-G09RevA.01  8-May-2009
                25-Mar-2016 
 ******************************************
 %mem=16000Mb
 %nproc=8
 Will use up to    8 processors via shared memory.
 -------------
 # mp2/cc-pVTZ
 -------------
 1/38=1/1;
 2/12=2,17=6,18=5,40=1/2;
 3/5=16,6=1,11=9,16=1,25=1,30=1/1,2,3;
 4//1;
 5/5=2,38=5/2;
 8/10=1/1;
 9/16=-3/6;
 6/7=2,8=2,9=2,10=2/1;
 99/5=1,9=1/99;
 ---------------------------------------
 2_methylpropenoic_acid_cis_single_point
 ---------------------------------------
 Symbolic Z-matrix:
 Charge =  0 Multiplicity = 1
 c
 c                    1    cc2
 c                    2    cc3      1    ccc3
 c                    2    cc4      3    ccc4     1    dih4     0
 o                    4    oc5      2    occ5     3    dih5     0
 o                    4    oc6      2    occ6     1    dih6     0
 h                    1    hc7      2    hcc7     4    dih7     0
 h                    1    hc8      2    hcc8     4    dih8     0
 h                    3    hc9      2    hcc9     1    dih9     0
 h                    3    hc10     2    hcc10    1    dih10    0
 h                    3    hc11     2    hcc11    1    dih11    0
 h                    5    ho12     4    hoc12    2    dih12    0
       Variables:
  cc2                   1.34099                  
  cc3                   1.50754                  
  ccc3                124.022                    
  cc4                   1.49614                  
  ccc4                118.893                    
  dih4               -180.                       
  oc5                   1.36072                  
  occ5                112.235                    
  dih5                  0.004                    
  oc6                   1.21615                  
  occ6                126.088                    
  dih6                  0.004                    
  hc7                   1.08565                  
  hcc7                121.147                    
  dih7                179.999                    
  hc8                   1.08485                  
  hcc8                120.664                    
  dih8                  0.001                    
  hc9                   1.09515                  
  hcc9                111.228                    
  dih9                120.625                    
  hc10                  1.09515                  
  hcc10               111.228                    
  dih10              -120.628                    
  hc11                  1.09295                  
  hcc11               110.432                    
  dih11                -0.002                    
  ho12                  0.97193                  
  hoc12               106.602                    
  dih12              -179.999                    
 
                          Input orientation:                          
 ---------------------------------------------------------------------
 Center     Atomic      Atomic             Coordinates (Angstroms)
 Number     Number       Type             X           Y           Z
 ---------------------------------------------------------------------
      1          6           0        0.000000    0.000000    0.000000
      2          6           0        0.000000    0.000000    1.340993
      3          6           0        1.249484    0.000000    2.184479
      4          6           0       -1.332061    0.000000    2.022203
      5          8           0       -1.217016    0.000088    3.378052
      6          8           0       -2.417321   -0.000069    1.473357
      7          1           0        0.929149    0.000016   -0.561539
      8          1           0       -0.933159    0.000016   -0.553276
      9          1           0        1.287174    0.878451    2.837357
     10          1           0        1.287149   -0.878425    2.837396
     11          1           0        2.138763   -0.000036    1.549085
     12          1           0       -2.121616    0.000065    3.733508
 ---------------------------------------------------------------------
                    Distance matrix (angstroms):
                    1          2          3          4          5
     1  C    0.000000
     2  C    1.340993   0.000000
     3  C    2.516577   1.507541   0.000000
     4  C    2.421506   1.496140   2.586641   0.000000
     5  O    3.590594   2.372918   2.740117   1.360721   0.000000
     6  O    2.830940   2.420942   3.735125   1.216150   2.251354
     7  H    1.085654   2.117297   2.764639   3.433482   4.486246
     8  H    1.084850   2.111644   3.501319   2.606188   3.941563
     9  H    3.237142   2.160463   1.095147   2.880373   2.708292
    10  H    3.237159   2.160464   1.095148   2.880353   2.708308
    11  H    2.640828   2.148862   1.092951   3.502922   3.821828
    12  H    4.294221   3.197715   3.709961   1.884665   0.971931
                    6          7          8          9         10
     6  O    0.000000
     7  H    3.916589   0.000000
     8  H    2.511968   1.862326   0.000000
     9  H    4.044203   3.528785   4.147038   0.000000
    10  H    4.044157   3.528821   4.147057   1.756876   0.000000
    11  H    4.556713   2.432673   3.722449   1.776679   1.776671
    12  H    2.279413   5.268263   4.448478   3.632423   3.632415
                   11         12
    11  H    0.000000
    12  H    4.787748   0.000000
 Stoichiometry    C4H6O2
 Framework group  C1[X(C4H6O2)]
 Deg. of freedom    30
 Full point group                 C1      NOp   1
 Largest Abelian subgroup         C1      NOp   1
 Largest concise Abelian subgroup C1      NOp   1
                         Standard orientation:                         
 ---------------------------------------------------------------------
 Center     Atomic      Atomic             Coordinates (Angstroms)
 Number     Number       Type             X           Y           Z
 ---------------------------------------------------------------------
      1          6           0       -1.289901    1.361347   -0.000033
      2          6           0       -0.718305    0.148277    0.000000
      3          6           0       -1.489062   -1.147337    0.000033
      4          6           0        0.777051    0.099839    0.000004
      5          8           0        1.250908   -1.175709   -0.000049
      6          8           0        1.524839    1.058918    0.000049
      7          1           0       -2.369770    1.473270   -0.000055
      8          1           0       -0.681593    2.259602   -0.000072
      9          1           0       -1.244866   -1.754023   -0.878402
     10          1           0       -1.244830   -1.754000    0.878474
     11          1           0       -2.564344   -0.951609    0.000061
     12          1           0        2.220728   -1.111672   -0.000026
 ---------------------------------------------------------------------
 Rotational constants (GHZ):      5.2826956      3.5035821      2.1341795
 Standard basis: CC-pVTZ (5D, 7F)
 There are   264 symmetry adapted basis functions of A   symmetry.
 Integral buffers will be    131072 words long.
 Raffenetti 1 integral format.
 Two-electron integral symmetry is turned on.
   264 basis functions,   414 primitive gaussians,   300 cartesian basis functions
    23 alpha electrons       23 beta electrons
       nuclear repulsion energy       227.9785913984 Hartrees.
 NAtoms=   12 NActive=   12 NUniq=   12 SFac= 7.50D-01 NAtFMM=   80 NAOKFM=F Big=F
 One-electron integrals computed using PRISM.
 NBasis=   264 RedAO= T  NBF=   264
 NBsUse=   264 1.00D-06 NBFU=   264
 Harris functional with IExCor=  205 diagonalized for initial guess.
 ExpMin= 1.03D-01 ExpMax= 1.53D+04 ExpMxC= 5.22D+02 IAcc=1 IRadAn=         1 AccDes= 0.00D+00
 HarFok:  IExCor=  205 AccDes= 0.00D+00 IRadAn=         1 IDoV= 1
 ScaDFX=  1.000000  1.000000  1.000000  1.000000
 FoFCou: FMM=F IPFlag=           0 FMFlag=      100000 FMFlg1=           0
         NFxFlg=           0 DoJE=T BraDBF=F KetDBF=T FulRan=T
         Omega=  0.000000  0.000000  1.000000  0.000000  0.000000 ICntrl=     500 IOpCl=  0
         NMat0=    1 NMatS0=    1 NMatT0=    0 NMatD0=    1 NMtDS0=    0 NMtDT0=    0
         I1Cent=           4 NGrid=           0.
 Petite list used in FoFCou.
 Initial guess orbital symmetries:
       Occupied  (A) (A) (A) (A) (A) (A) (A) (A) (A) (A) (A) (A)
                 (A) (A) (A) (A) (A) (A) (A) (A) (A) (A) (A)
       Virtual   (A) (A) (A) (A) (A) (A) (A) (A) (A) (A) (A) (A)
                 (A) (A) (A) (A) (A) (A) (A) (A) (A) (A) (A) (A)
                 (A) (A) (A) (A) (A) (A) (A) (A) (A) (A) (A) (A)
                 (A) (A) (A) (A) (A) (A) (A) (A) (A) (A) (A) (A)
                 (A) (A) (A) (A) (A) (A) (A) (A) (A) (A) (A) (A)
                 (A) (A) (A) (A) (A) (A) (A) (A) (A) (A) (A) (A)
                 (A) (A) (A) (A) (A) (A) (A) (A) (A) (A) (A) (A)
                 (A) (A) (A) (A) (A) (A) (A) (A) (A) (A) (A) (A)
                 (A) (A) (A) (A) (A) (A) (A) (A) (A) (A) (A) (A)
                 (A) (A) (A) (A) (A) (A) (A) (A) (A) (A) (A) (A)
                 (A) (A) (A) (A) (A) (A) (A) (A) (A) (A) (A) (A)
                 (A) (A) (A) (A) (A) (A) (A) (A) (A) (A) (A) (A)
                 (A) (A) (A) (A) (A) (A) (A) (A) (A) (A) (A) (A)
                 (A) (A) (A) (A) (A) (A) (A) (A) (A) (A) (A) (A)
                 (A) (A) (A) (A) (A) (A) (A) (A) (A) (A) (A) (A)
                 (A) (A) (A) (A) (A) (A) (A) (A) (A) (A) (A) (A)
                 (A) (A) (A) (A) (A) (A) (A) (A) (A) (A) (A) (A)
                 (A) (A) (A) (A) (A) (A) (A) (A) (A) (A) (A) (A)
                 (A) (A) (A) (A) (A) (A) (A) (A) (A) (A) (A) (A)
                 (A) (A) (A) (A) (A) (A) (A) (A) (A) (A) (A) (A)
                 (A)
 The electronic state of the initial guess is 1-A.
 Requested convergence on RMS density matrix=1.00D-08 within 128 cycles.
 Requested convergence on MAX density matrix=1.00D-06.
 Requested convergence on             energy=1.00D-06.
 No special actions if energy rises.
 Keep R1 ints in memory in canonical form, NReq=1033211869.
 SCF Done:  E(RHF) =  -304.806053160     A.U. after   14 cycles
             Convg  =    0.4013D-08             -V/T =  2.0019
 ExpMin= 1.03D-01 ExpMax= 1.53D+04 ExpMxC= 5.22D+02 IAcc=1 IRadAn=         1 AccDes= 0.00D+00
 HarFok:  IExCor=  205 AccDes= 0.00D+00 IRadAn=         1 IDoV=-2
 ScaDFX=  1.000000  1.000000  1.000000  1.000000
 Range of M.O.s used for correlation:     7   264
 NBasis=   264 NAE=    23 NBE=    23 NFC=     6 NFV=     0
 NROrb=    258 NOA=    17 NOB=    17 NVA=   241 NVB=   241

 **** Warning!!: The largest alpha MO coefficient is  0.13298676D+02

 Fully direct method using O(OVN) memory.
 JobTyp=1 Pass  1:  I=   1 to  17 NPSUse=  8 ParTrn=T ParDer=T DoDerP=F.
 Spin components of T(2) and E(2):
     alpha-alpha T2 =       0.4189816224D-01 E2=     -0.1389153688D+00
     alpha-beta  T2 =       0.2394893798D+00 E2=     -0.8425868796D+00
     beta-beta   T2 =       0.4189816224D-01 E2=     -0.1389153688D+00
 ANorm=    0.1150341560D+01
 E2 =    -0.1120417617D+01 EUMP2 =    -0.30592647077695D+03

 **********************************************************************

            Population analysis using the SCF density.

 **********************************************************************

 Orbital symmetries:
       Occupied  (A) (A) (A) (A) (A) (A) (A) (A) (A) (A) (A) (A)
                 (A) (A) (A) (A) (A) (A) (A) (A) (A) (A) (A)
       Virtual   (A) (A) (A) (A) (A) (A) (A) (A) (A) (A) (A) (A)
                 (A) (A) (A) (A) (A) (A) (A) (A) (A) (A) (A) (A)
                 (A) (A) (A) (A) (A) (A) (A) (A) (A) (A) (A) (A)
                 (A) (A) (A) (A) (A) (A) (A) (A) (A) (A) (A) (A)
                 (A) (A) (A) (A) (A) (A) (A) (A) (A) (A) (A) (A)
                 (A) (A) (A) (A) (A) (A) (A) (A) (A) (A) (A) (A)
                 (A) (A) (A) (A) (A) (A) (A) (A) (A) (A) (A) (A)
                 (A) (A) (A) (A) (A) (A) (A) (A) (A) (A) (A) (A)
                 (A) (A) (A) (A) (A) (A) (A) (A) (A) (A) (A) (A)
                 (A) (A) (A) (A) (A) (A) (A) (A) (A) (A) (A) (A)
                 (A) (A) (A) (A) (A) (A) (A) (A) (A) (A) (A) (A)
                 (A) (A) (A) (A) (A) (A) (A) (A) (A) (A) (A) (A)
                 (A) (A) (A) (A) (A) (A) (A) (A) (A) (A) (A) (A)
                 (A) (A) (A) (A) (A) (A) (A) (A) (A) (A) (A) (A)
                 (A) (A) (A) (A) (A) (A) (A) (A) (A) (A) (A) (A)
                 (A) (A) (A) (A) (A) (A) (A) (A) (A) (A) (A) (A)
                 (A) (A) (A) (A) (A) (A) (A) (A) (A) (A) (A) (A)
                 (A) (A) (A) (A) (A) (A) (A) (A) (A) (A) (A) (A)
                 (A) (A) (A) (A) (A) (A) (A) (A) (A) (A) (A) (A)
                 (A) (A) (A) (A) (A) (A) (A) (A) (A) (A) (A) (A)
                 (A)
 The electronic state is 1-A.
 Alpha  occ. eigenvalues --  -20.61142 -20.54261 -11.38837 -11.26066 -11.25149
 Alpha  occ. eigenvalues --  -11.23417  -1.45876  -1.35305  -1.10087  -0.95062
 Alpha  occ. eigenvalues --   -0.89201  -0.75535  -0.70170  -0.68128  -0.63295
 Alpha  occ. eigenvalues --   -0.60816  -0.59581  -0.57099  -0.55360  -0.52560
 Alpha  occ. eigenvalues --   -0.48643  -0.45039  -0.37855
 Alpha virt. eigenvalues --    0.09505   0.14214   0.15701   0.18431   0.20146
 Alpha virt. eigenvalues --    0.21152   0.23725   0.27381   0.28264   0.34686
 Alpha virt. eigenvalues --    0.37588   0.37774   0.39566   0.42222   0.44350
 Alpha virt. eigenvalues --    0.44455   0.48009   0.48683   0.51944   0.56171
 Alpha virt. eigenvalues --    0.58442   0.58996   0.59014   0.61016   0.61293
 Alpha virt. eigenvalues --    0.62833   0.64172   0.65541   0.68987   0.71531
 Alpha virt. eigenvalues --    0.72768   0.75630   0.76557   0.76721   0.78915
 Alpha virt. eigenvalues --    0.80567   0.83480   0.83935   0.86116   0.88139
 Alpha virt. eigenvalues --    0.92758   0.94036   0.95763   0.96147   0.99877
 Alpha virt. eigenvalues --    1.04096   1.05510   1.09628   1.10249   1.13502
 Alpha virt. eigenvalues --    1.15599   1.18651   1.22122   1.23231   1.23476
 Alpha virt. eigenvalues --    1.24804   1.28134   1.28228   1.36841   1.37176
 Alpha virt. eigenvalues --    1.38028   1.39518   1.43150   1.44221   1.46323
 Alpha virt. eigenvalues --    1.50197   1.53357   1.54413   1.54626   1.58892
 Alpha virt. eigenvalues --    1.60556   1.61973   1.69046   1.71406   1.71934
 Alpha virt. eigenvalues --    1.75928   1.79766   1.83026   1.85835   1.91199
 Alpha virt. eigenvalues --    1.98122   2.01175   2.05009   2.08223   2.25293
 Alpha virt. eigenvalues --    2.31726   2.32342   2.33592   2.36975   2.38583
 Alpha virt. eigenvalues --    2.44987   2.52033   2.54069   2.55605   2.59311
 Alpha virt. eigenvalues --    2.62026   2.66060   2.67855   2.76747   2.77348
 Alpha virt. eigenvalues --    2.81346   2.84150   2.84841   2.89224   2.91095
 Alpha virt. eigenvalues --    2.93849   2.95859   3.00317   3.05415   3.08938
 Alpha virt. eigenvalues --    3.11242   3.11360   3.13956   3.15848   3.16502
 Alpha virt. eigenvalues --    3.17638   3.20668   3.21175   3.23508   3.26661
 Alpha virt. eigenvalues --    3.29532   3.31519   3.31990   3.34775   3.35649
 Alpha virt. eigenvalues --    3.39670   3.40409   3.44919   3.45550   3.46265
 Alpha virt. eigenvalues --    3.50337   3.50782   3.52986   3.56297   3.58263
 Alpha virt. eigenvalues --    3.63268   3.63669   3.64078   3.64185   3.66775
 Alpha virt. eigenvalues --    3.69198   3.73423   3.74470   3.75913   3.76831
 Alpha virt. eigenvalues --    3.82495   3.84724   3.88669   3.88953   3.91266
 Alpha virt. eigenvalues --    3.94873   3.96949   3.99404   4.04152   4.05742
 Alpha virt. eigenvalues --    4.08683   4.12354   4.12661   4.14457   4.15106
 Alpha virt. eigenvalues --    4.18982   4.20024   4.22451   4.25920   4.27525
 Alpha virt. eigenvalues --    4.28183   4.34374   4.36287   4.37637   4.38867
 Alpha virt. eigenvalues --    4.40314   4.48350   4.51288   4.51739   4.55032
 Alpha virt. eigenvalues --    4.57108   4.58923   4.62170   4.67472   4.71501
 Alpha virt. eigenvalues --    4.73685   4.74020   4.83716   4.89913   4.93083
 Alpha virt. eigenvalues --    4.94968   5.02825   5.07924   5.14947   5.15749
 Alpha virt. eigenvalues --    5.22017   5.23554   5.28754   5.32697   5.37449
 Alpha virt. eigenvalues --    5.42812   5.45704   5.47387   5.54339   5.54470
 Alpha virt. eigenvalues --    5.56462   5.61362   5.63601   5.64393   5.66927
 Alpha virt. eigenvalues --    5.68491   5.73115   5.77902   5.83121   5.97171
 Alpha virt. eigenvalues --    5.98615   6.14831   6.17449   6.21082   6.23178
 Alpha virt. eigenvalues --    6.32050   6.37798   6.44057   6.59057   6.63830
 Alpha virt. eigenvalues --    6.77883   6.85068   6.93291   6.94681   7.04188
 Alpha virt. eigenvalues --    7.05889   7.19152   7.25116   7.32197   7.36900
 Alpha virt. eigenvalues --    7.43774   7.55623   7.68739   7.81689   7.95573
 Alpha virt. eigenvalues --    9.71190  11.13342  12.83214  13.60093  14.48371
 Alpha virt. eigenvalues --   14.88856
          Condensed to atoms (all electrons):
              1          2          3          4          5          6
     1  C    4.946667   0.592066  -0.043083  -0.058424   0.003271   0.005947
     2  C    0.592066   5.217264   0.331401   0.312166  -0.097509  -0.110912
     3  C   -0.043083   0.331401   4.720146  -0.027343   0.005288   0.003051
     4  C   -0.058424   0.312166  -0.027343   4.183927   0.440714   0.751275
     5  O    0.003271  -0.097509   0.005288   0.440714   7.736255  -0.085618
     6  O    0.005947  -0.110912   0.003051   0.751275  -0.085618   7.833791
     7  H    0.426908  -0.059346  -0.005850   0.004775  -0.000089   0.000389
     8  H    0.413913  -0.040913   0.003862  -0.007122   0.000612   0.010420
     9  H    0.001136  -0.037318   0.416228  -0.004305   0.001802  -0.000042
    10  H    0.001137  -0.037320   0.416229  -0.004304   0.001802  -0.000042
    11  H   -0.010506  -0.042551   0.426267   0.004098   0.000519  -0.000150
    12  H   -0.000694   0.017371  -0.001882  -0.036119   0.329688   0.008248
              7          8          9         10         11         12
     1  C    0.426908   0.413913   0.001136   0.001137  -0.010506  -0.000694
     2  C   -0.059346  -0.040913  -0.037318  -0.037320  -0.042551   0.017371
     3  C   -0.005850   0.003862   0.416228   0.416229   0.426267  -0.001882
     4  C    0.004775  -0.007122  -0.004305  -0.004304   0.004098  -0.036119
     5  O   -0.000089   0.000612   0.001802   0.001802   0.000519   0.329688
     6  O    0.000389   0.010420  -0.000042  -0.000042  -0.000150   0.008248
     7  H    0.506659  -0.025896   0.000150   0.000150   0.000513   0.000020
     8  H   -0.025896   0.472021  -0.000211  -0.000211   0.000092  -0.000091
     9  H    0.000150  -0.000211   0.579893  -0.035220  -0.027730  -0.000006
    10  H    0.000150  -0.000211  -0.035220   0.579895  -0.027731  -0.000006
    11  H    0.000513   0.000092  -0.027730  -0.027731   0.582578   0.000034
    12  H    0.000020  -0.000091  -0.000006  -0.000006   0.000034   0.434908
 Mulliken atomic charges:
              1
     1  C   -0.278337
     2  C   -0.044400
     3  C   -0.244313
     4  C    0.440661
     5  O   -0.336734
     6  O   -0.416358
     7  H    0.151615
     8  H    0.173526
     9  H    0.105624
    10  H    0.105622
    11  H    0.094566
    12  H    0.248528
 Sum of Mulliken atomic charges =   0.00000
 Mulliken charges with hydrogens summed into heavy atoms:
              1
     1  C    0.046804
     2  C   -0.044400
     3  C    0.061499
     4  C    0.440661
     5  O   -0.088206
     6  O   -0.416358
 Sum of Mulliken charges with hydrogens summed into heavy atoms =   0.00000
 Electronic spatial extent (au):  <R**2>=            571.8209
 Charge=              0.0000 electrons
 Dipole moment (field-independent basis, Debye):
    X=             -1.5495    Y=             -1.3303    Z=             -0.0001  Tot=              2.0422
 Quadrupole moment (field-independent basis, Debye-Ang):
   XX=            -31.9000   YY=            -36.9076   ZZ=            -36.6791
   XY=             -5.6742   XZ=             -0.0001   YZ=             -0.0004
 Traceless Quadrupole moment (field-independent basis, Debye-Ang):
   XX=              3.2623   YY=             -1.7454   ZZ=             -1.5169
   XY=             -5.6742   XZ=             -0.0001   YZ=             -0.0004
 Octapole moment (field-independent basis, Debye-Ang**2):
  XXX=             14.2655  YYY=              1.7061  ZZZ=              0.0001  XYY=             -2.2124
  XXY=            -11.3071  XXZ=             -0.0004  XZZ=              5.7166  YZZ=             -2.7180
  YYZ=             -0.0004  XYZ=             -0.0001
 Hexadecapole moment (field-independent basis, Debye-Ang**3):
 XXXX=           -349.6797 YYYY=           -276.4801 ZZZZ=            -42.8086 XXXY=            -40.5490
 XXXZ=             -0.0007 YYYX=            -11.0253 YYYZ=             -0.0006 ZZZX=              0.0000
 ZZZY=              0.0002 XXYY=           -110.2785 XXZZ=            -77.4926 YYZZ=            -54.8080
 XXYZ=             -0.0005 YYXZ=              0.0002 ZZXY=              1.4451
 N-N= 2.279785913984D+02 E-N=-1.171839296908D+03  KE= 3.042397131144D+02
 1\1\GINC-ROCK\SP\RMP2-FC\CC-pVTZ\C4H6O2\STYLIANAKIS\25-Mar-2016\0\\# m
 p2/cc-pVTZ\\2_methylpropenoic_acid_cis_single_point\\0,1\C\C,1,1.34099
 3\C,2,1.507541,1,124.022\C,2,1.49614,3,118.893,1,-180.,0\O,4,1.360721,
 2,112.235,3,0.004,0\O,4,1.21615,2,126.088,1,0.004,0\H,1,1.085654,2,121
 .147,4,179.999,0\H,1,1.08485,2,120.664,4,0.001,0\H,3,1.095147,2,111.22
 8,1,120.625,0\H,3,1.095148,2,111.228,1,-120.628,0\H,3,1.092951,2,110.4
 32,1,-0.002,0\H,5,0.971931,4,106.602,2,-179.999,0\\Version=EM64L-G09Re
 vA.01\State=1-A\HF=-304.8060532\MP2=-305.9264708\RMSD=4.013e-09\PG=C01
  [X(C4H6O2)]\\@


 HE THAT RISETH LATE MUST TROT ALL DAY.

                  -- BENJAMIN FRANKLIN
 Job cpu time:  0 days  0 hours 23 minutes 45.4 seconds.
 File lengths (MBytes):  RWF=     30 Int=      0 D2E=      0 Chk=      4 Scr=      1
 Normal termination of Gaussian 09 at Fri Mar 25 19:58:20 2016.
