 Entering Gaussian System, Link 0=g09
 Input=acrolein_t.gjf
 Output=acrolein_t.out
 Initial command:
 /usr/local/g09/l1.exe /home/scratch/stylianakis/Gau-19822.inp -scrdir=/home/scratch/stylianakis/
 Entering Link 1 = /usr/local/g09/l1.exe PID=     19823.
  
 Copyright (c) 1988,1990,1992,1993,1995,1998,2003,2009, Gaussian, Inc.
                  All Rights Reserved.
  
 This is part of the Gaussian(R) 09 program.  It is based on
 the Gaussian(R) 03 system (copyright 2003, Gaussian, Inc.),
 the Gaussian(R) 98 system (copyright 1998, Gaussian, Inc.),
 the Gaussian(R) 94 system (copyright 1995, Gaussian, Inc.),
 the Gaussian 92(TM) system (copyright 1992, Gaussian, Inc.),
 the Gaussian 90(TM) system (copyright 1990, Gaussian, Inc.),
 the Gaussian 88(TM) system (copyright 1988, Gaussian, Inc.),
 the Gaussian 86(TM) system (copyright 1986, Carnegie Mellon
 University), and the Gaussian 82(TM) system (copyright 1983,
 Carnegie Mellon University). Gaussian is a federally registered
 trademark of Gaussian, Inc.
  
 This software contains proprietary and confidential information,
 including trade secrets, belonging to Gaussian, Inc.
  
 This software is provided under written license and may be
 used, copied, transmitted, or stored only in accord with that
 written license.
  
 The following legend is applicable only to US Government
 contracts under FAR:
  
                    RESTRICTED RIGHTS LEGEND
  
 Use, reproduction and disclosure by the US Government is
 subject to restrictions as set forth in subparagraphs (a)
 and (c) of the Commercial Computer Software - Restricted
 Rights clause in FAR 52.227-19.
  
 Gaussian, Inc.
 340 Quinnipiac St., Bldg. 40, Wallingford CT 06492
  
  
 ---------------------------------------------------------------
 Warning -- This program may not be used in any manner that
 competes with the business of Gaussian, Inc. or will provide
 assistance to any competitor of Gaussian, Inc.  The licensee
 of this program is prohibited from giving any competitor of
 Gaussian, Inc. access to this program.  By using this program,
 the user acknowledges that Gaussian, Inc. is engaged in the
 business of creating and licensing software in the field of
 computational chemistry and represents and warrants to the
 licensee that it is not a competitor of Gaussian, Inc. and that
 it will not use this program in any manner prohibited above.
 ---------------------------------------------------------------
  

 Cite this work as:
 Gaussian 09, Revision A.01,
 M. J. Frisch, G. W. Trucks, H. B. Schlegel, G. E. Scuseria, 
 M. A. Robb, J. R. Cheeseman, G. Scalmani, V. Barone, B. Mennucci, 
 G. A. Petersson, H. Nakatsuji, M. Caricato, X. Li, H. P. Hratchian, 
 A. F. Izmaylov, J. Bloino, G. Zheng, J. L. Sonnenberg, M. Hada, 
 M. Ehara, K. Toyota, R. Fukuda, J. Hasegawa, M. Ishida, T. Nakajima, 
 Y. Honda, O. Kitao, H. Nakai, T. Vreven, J. A. Montgomery, Jr., 
 J. E. Peralta, F. Ogliaro, M. Bearpark, J. J. Heyd, E. Brothers, 
 K. N. Kudin, V. N. Staroverov, R. Kobayashi, J. Normand, 
 K. Raghavachari, A. Rendell, J. C. Burant, S. S. Iyengar, J. Tomasi, 
 M. Cossi, N. Rega, J. M. Millam, M. Klene, J. E. Knox, J. B. Cross, 
 V. Bakken, C. Adamo, J. Jaramillo, R. Gomperts, R. E. Stratmann, 
 O. Yazyev, A. J. Austin, R. Cammi, C. Pomelli, J. W. Ochterski, 
 R. L. Martin, K. Morokuma, V. G. Zakrzewski, G. A. Voth, 
 P. Salvador, J. J. Dannenberg, S. Dapprich, A. D. Daniels, 
 O. Farkas, J. B. Foresman, J. V. Ortiz, J. Cioslowski, 
 and D. J. Fox, Gaussian, Inc., Wallingford CT, 2009.
 
 ******************************************
 Gaussian 09:  EM64L-G09RevA.01  8-May-2009
                25-Mar-2016 
 ******************************************
 %mem=16000Mb
 %nproc=8
 Will use up to    8 processors via shared memory.
 -------------
 # mp2/cc-pVTZ
 -------------
 1/38=1/1;
 2/12=2,17=6,18=5,40=1/2;
 3/5=16,6=1,11=9,16=1,25=1,30=1/1,2,3;
 4//1;
 5/5=2,38=5/2;
 8/10=1/1;
 9/16=-3/6;
 6/7=2,8=2,9=2,10=2/1;
 99/5=1,9=1/99;
 -----------------------
 acrolein_t_single_point
 -----------------------
 Symbolic Z-matrix:
 Charge =  0 Multiplicity = 1
 c
 c                    1    cc2
 c                    2    cc3      1    ccc3
 o                    3    oc4      2    occ4     1    dih4     0
 h                    3    hc5      2    hcc5     1    dih5     0
 h                    2    hc6      3    hcc6     4    dih6     0
 h                    1    hc7      2    hcc7     3    dih7     0
 h                    1    hc8      2    hcc8     3    dih8     0
       Variables:
  cc2                   1.34048                  
  cc3                   1.47451                  
  ccc3                121.079                    
  oc4                   1.21847                  
  occ4                124.14                     
  dih4               -179.975                    
  hc5                   1.11184                  
  hcc5                115.188                    
  dih5                 -0.01                     
  hc6                   1.08736                  
  hcc6                116.567                    
  dih6                  0.025                    
  hc7                   1.08542                  
  hcc7                122.129                    
  dih7                179.997                    
  hc8                   1.08819                  
  hcc8                121.065                    
  dih8                  0.006                    
 
                          Input orientation:                          
 ---------------------------------------------------------------------
 Center     Atomic      Atomic             Coordinates (Angstroms)
 Number     Number       Type             X           Y           Z
 ---------------------------------------------------------------------
      1          6           0        0.000000    0.000000    0.000000
      2          6           0        0.000000    0.000000    1.340479
      3          6           0        1.262850    0.000000    2.101648
      4          8           0        1.327915   -0.000440    3.318382
      5          1           0        2.187491   -0.000176    1.484219
      6          1           0       -0.918558    0.000000    1.922379
      7          1           0       -0.919187   -0.000048   -0.577253
      8          1           0        0.932128   -0.000098   -0.561519
 ---------------------------------------------------------------------
                    Distance matrix (angstroms):
                    1          2          3          4          5
     1  C    0.000000
     2  C    1.340479   0.000000
     3  C    2.451880   1.474506   0.000000
     4  O    3.574216   2.382323   1.218473   0.000000
     5  H    2.643487   2.192209   1.111836   2.025592   0.000000
     6  H    2.130561   1.087362   2.188761   2.644894   3.136801
     7  H    1.085415   2.126641   3.455111   4.497271   3.728420
     8  H    1.088194   2.118126   2.683623   3.900036   2.400204
                    6          7          8
     6  H    0.000000
     7  H    2.499633   0.000000
     8  H    3.097546   1.851382   0.000000
 Stoichiometry    C3H4O
 Framework group  C1[X(C3H4O)]
 Deg. of freedom    18
 Full point group                 C1      NOp   1
 Largest Abelian subgroup         C1      NOp   1
 Largest concise Abelian subgroup C1      NOp   1
                         Standard orientation:                         
 ---------------------------------------------------------------------
 Center     Atomic      Atomic             Coordinates (Angstroms)
 Number     Number       Type             X           Y           Z
 ---------------------------------------------------------------------
      1          6           0        1.766611    0.140578    0.000052
      2          6           0        0.562270   -0.448020   -0.000075
      3          6           0       -0.676106    0.352349   -0.000193
      4          8           0       -1.797840   -0.123457    0.000129
      5          1           0       -0.527390    1.454194    0.000008
      6          1           0        0.442802   -1.528799   -0.000098
      7          1           0        2.688849   -0.431786    0.000188
      8          1           0        1.861809    1.224600    0.000170
 ---------------------------------------------------------------------
 Rotational constants (GHZ):     47.8775168      4.6221323      4.2151943
 Standard basis: CC-pVTZ (5D, 7F)
 There are   176 symmetry adapted basis functions of A   symmetry.
 Integral buffers will be    131072 words long.
 Raffenetti 1 integral format.
 Two-electron integral symmetry is turned on.
   176 basis functions,   276 primitive gaussians,   200 cartesian basis functions
    15 alpha electrons       15 beta electrons
       nuclear repulsion energy       102.7358285533 Hartrees.
 NAtoms=    8 NActive=    8 NUniq=    8 SFac= 7.50D-01 NAtFMM=   80 NAOKFM=F Big=F
 One-electron integrals computed using PRISM.
 NBasis=   176 RedAO= T  NBF=   176
 NBsUse=   176 1.00D-06 NBFU=   176
 Harris functional with IExCor=  205 diagonalized for initial guess.
 ExpMin= 1.03D-01 ExpMax= 1.53D+04 ExpMxC= 5.22D+02 IAcc=1 IRadAn=         1 AccDes= 0.00D+00
 HarFok:  IExCor=  205 AccDes= 0.00D+00 IRadAn=         1 IDoV= 1
 ScaDFX=  1.000000  1.000000  1.000000  1.000000
 FoFCou: FMM=F IPFlag=           0 FMFlag=      100000 FMFlg1=           0
         NFxFlg=           0 DoJE=T BraDBF=F KetDBF=T FulRan=T
         Omega=  0.000000  0.000000  1.000000  0.000000  0.000000 ICntrl=     500 IOpCl=  0
         NMat0=    1 NMatS0=    1 NMatT0=    0 NMatD0=    1 NMtDS0=    0 NMtDT0=    0
         I1Cent=           4 NGrid=           0.
 Petite list used in FoFCou.
 Initial guess orbital symmetries:
       Occupied  (A) (A) (A) (A) (A) (A) (A) (A) (A) (A) (A) (A)
                 (A) (A) (A)
       Virtual   (A) (A) (A) (A) (A) (A) (A) (A) (A) (A) (A) (A)
                 (A) (A) (A) (A) (A) (A) (A) (A) (A) (A) (A) (A)
                 (A) (A) (A) (A) (A) (A) (A) (A) (A) (A) (A) (A)
                 (A) (A) (A) (A) (A) (A) (A) (A) (A) (A) (A) (A)
                 (A) (A) (A) (A) (A) (A) (A) (A) (A) (A) (A) (A)
                 (A) (A) (A) (A) (A) (A) (A) (A) (A) (A) (A) (A)
                 (A) (A) (A) (A) (A) (A) (A) (A) (A) (A) (A) (A)
                 (A) (A) (A) (A) (A) (A) (A) (A) (A) (A) (A) (A)
                 (A) (A) (A) (A) (A) (A) (A) (A) (A) (A) (A) (A)
                 (A) (A) (A) (A) (A) (A) (A) (A) (A) (A) (A) (A)
                 (A) (A) (A) (A) (A) (A) (A) (A) (A) (A) (A) (A)
                 (A) (A) (A) (A) (A) (A) (A) (A) (A) (A) (A) (A)
                 (A) (A) (A) (A) (A) (A) (A) (A) (A) (A) (A) (A)
                 (A) (A) (A) (A) (A)
 The electronic state of the initial guess is 1-A.
 Requested convergence on RMS density matrix=1.00D-08 within 128 cycles.
 Requested convergence on MAX density matrix=1.00D-06.
 Requested convergence on             energy=1.00D-06.
 No special actions if energy rises.
 Keep R1 ints in memory in canonical form, NReq=206216466.
 SCF Done:  E(RHF) =  -190.831967382     A.U. after   13 cycles
             Convg  =    0.2687D-08             -V/T =  2.0019
 ExpMin= 1.03D-01 ExpMax= 1.53D+04 ExpMxC= 5.22D+02 IAcc=1 IRadAn=         1 AccDes= 0.00D+00
 HarFok:  IExCor=  205 AccDes= 0.00D+00 IRadAn=         1 IDoV=-2
 ScaDFX=  1.000000  1.000000  1.000000  1.000000
 Range of M.O.s used for correlation:     5   176
 NBasis=   176 NAE=    15 NBE=    15 NFC=     4 NFV=     0
 NROrb=    172 NOA=    11 NOB=    11 NVA=   161 NVB=   161

 **** Warning!!: The largest alpha MO coefficient is  0.10215942D+02

 Fully in-core method, ICMem=   428044600.
 JobTyp=1 Pass  1 fully in-core, NPsUse=  8.
 Spin components of T(2) and E(2):
     alpha-alpha T2 =       0.2716377653D-01 E2=     -0.8538783053D-01
     alpha-beta  T2 =       0.1639004116D+00 E2=     -0.5382657659D+00
     beta-beta   T2 =       0.2716377653D-01 E2=     -0.8538783053D-01
 ANorm=    0.1103733648D+01
 E2 =    -0.7090414269D+00 EUMP2 =    -0.19154100880924D+03

 **********************************************************************

            Population analysis using the SCF density.

 **********************************************************************

 Orbital symmetries:
       Occupied  (A) (A) (A) (A) (A) (A) (A) (A) (A) (A) (A) (A)
                 (A) (A) (A)
       Virtual   (A) (A) (A) (A) (A) (A) (A) (A) (A) (A) (A) (A)
                 (A) (A) (A) (A) (A) (A) (A) (A) (A) (A) (A) (A)
                 (A) (A) (A) (A) (A) (A) (A) (A) (A) (A) (A) (A)
                 (A) (A) (A) (A) (A) (A) (A) (A) (A) (A) (A) (A)
                 (A) (A) (A) (A) (A) (A) (A) (A) (A) (A) (A) (A)
                 (A) (A) (A) (A) (A) (A) (A) (A) (A) (A) (A) (A)
                 (A) (A) (A) (A) (A) (A) (A) (A) (A) (A) (A) (A)
                 (A) (A) (A) (A) (A) (A) (A) (A) (A) (A) (A) (A)
                 (A) (A) (A) (A) (A) (A) (A) (A) (A) (A) (A) (A)
                 (A) (A) (A) (A) (A) (A) (A) (A) (A) (A) (A) (A)
                 (A) (A) (A) (A) (A) (A) (A) (A) (A) (A) (A) (A)
                 (A) (A) (A) (A) (A) (A) (A) (A) (A) (A) (A) (A)
                 (A) (A) (A) (A) (A) (A) (A) (A) (A) (A) (A) (A)
                 (A) (A) (A) (A) (A)
 The electronic state is 1-A.
 Alpha  occ. eigenvalues --  -20.55620 -11.33649 -11.27203 -11.25800  -1.38626
 Alpha  occ. eigenvalues --   -1.08658  -0.88666  -0.78595  -0.67067  -0.66525
 Alpha  occ. eigenvalues --   -0.60358  -0.55836  -0.53963  -0.43133  -0.39948
 Alpha virt. eigenvalues --    0.07808   0.14568   0.15911   0.19709   0.20425
 Alpha virt. eigenvalues --    0.21856   0.29049   0.34819   0.38986   0.41995
 Alpha virt. eigenvalues --    0.43716   0.47697   0.48101   0.51344   0.54810
 Alpha virt. eigenvalues --    0.55480   0.57323   0.61098   0.61900   0.62101
 Alpha virt. eigenvalues --    0.65511   0.69986   0.71451   0.73405   0.77367
 Alpha virt. eigenvalues --    0.80455   0.83295   0.84137   0.87935   0.90433
 Alpha virt. eigenvalues --    0.95180   0.98202   1.04132   1.08385   1.14609
 Alpha virt. eigenvalues --    1.15766   1.16773   1.17498   1.21970   1.26037
 Alpha virt. eigenvalues --    1.29437   1.32700   1.36289   1.39766   1.43706
 Alpha virt. eigenvalues --    1.47648   1.47675   1.54676   1.58829   1.60214
 Alpha virt. eigenvalues --    1.62094   1.69551   1.71655   1.87282   1.92409
 Alpha virt. eigenvalues --    1.98083   1.98516   2.20014   2.23081   2.32180
 Alpha virt. eigenvalues --    2.34064   2.41456   2.43739   2.45095   2.51882
 Alpha virt. eigenvalues --    2.56094   2.64605   2.68608   2.70026   2.75674
 Alpha virt. eigenvalues --    2.77833   2.84895   2.85544   2.93745   3.00853
 Alpha virt. eigenvalues --    3.02071   3.05431   3.06929   3.11497   3.13694
 Alpha virt. eigenvalues --    3.16405   3.21283   3.22176   3.23669   3.25624
 Alpha virt. eigenvalues --    3.25960   3.31282   3.36572   3.37287   3.40275
 Alpha virt. eigenvalues --    3.43382   3.47044   3.48715   3.53658   3.54880
 Alpha virt. eigenvalues --    3.59668   3.61701   3.67648   3.71983   3.76658
 Alpha virt. eigenvalues --    3.79866   3.80134   3.89785   3.92014   3.92781
 Alpha virt. eigenvalues --    3.99167   4.00583   4.07696   4.10712   4.13292
 Alpha virt. eigenvalues --    4.17633   4.18426   4.22284   4.24644   4.28936
 Alpha virt. eigenvalues --    4.32976   4.37454   4.45855   4.50834   4.54113
 Alpha virt. eigenvalues --    4.55601   4.57296   4.67055   4.72352   4.75952
 Alpha virt. eigenvalues --    4.78479   4.86260   4.94860   4.96243   5.06533
 Alpha virt. eigenvalues --    5.08009   5.18731   5.22274   5.25557   5.26100
 Alpha virt. eigenvalues --    5.39807   5.43056   5.47230   5.57479   5.66791
 Alpha virt. eigenvalues --    5.67441   5.73869   5.81077   5.91615   6.08046
 Alpha virt. eigenvalues --    6.19714   6.27634   6.35750   6.51598   6.63759
 Alpha virt. eigenvalues --    6.78856   6.88048   6.95371   7.32585   7.40669
 Alpha virt. eigenvalues --    7.54134   7.56223  10.98360  11.63497  13.49560
 Alpha virt. eigenvalues --   14.72355
          Condensed to atoms (all electrons):
              1          2          3          4          5          6
     1  C    4.986128   0.495260  -0.033882   0.005097   0.024895  -0.029974
     2  C    0.495260   5.275213   0.302158  -0.091190  -0.137176   0.387781
     3  C   -0.033882   0.302158   4.379900   0.703409   0.446738  -0.015814
     4  O    0.005097  -0.091190   0.703409   7.805562  -0.066178   0.003112
     5  H    0.024895  -0.137176   0.446738  -0.066178   0.644926   0.005620
     6  H   -0.029974   0.387781  -0.015814   0.003112   0.005620   0.468709
     7  H    0.415165  -0.036387   0.002788  -0.000198  -0.000368  -0.003900
     8  H    0.415750  -0.051984  -0.000007   0.000096   0.003354   0.003732
              7          8
     1  C    0.415165   0.415750
     2  C   -0.036387  -0.051984
     3  C    0.002788  -0.000007
     4  O   -0.000198   0.000096
     5  H   -0.000368   0.003354
     6  H   -0.003900   0.003732
     7  H    0.491103  -0.027432
     8  H   -0.027432   0.507535
 Mulliken atomic charges:
              1
     1  C   -0.278437
     2  C   -0.143674
     3  C    0.214711
     4  O   -0.359710
     5  H    0.078190
     6  H    0.180733
     7  H    0.159231
     8  H    0.148957
 Sum of Mulliken atomic charges =   0.00000
 Mulliken charges with hydrogens summed into heavy atoms:
              1
     1  C    0.029750
     2  C    0.037059
     3  C    0.292901
     4  O   -0.359710
 Sum of Mulliken charges with hydrogens summed into heavy atoms =   0.00000
 Electronic spatial extent (au):  <R**2>=            300.5988
 Charge=              0.0000 electrons
 Dipole moment (field-independent basis, Debye):
    X=              3.6572    Y=              0.8966    Z=             -0.0003  Tot=              3.7655
 Quadrupole moment (field-independent basis, Debye-Ang):
   XX=            -27.4812   YY=            -21.4310   ZZ=            -25.3220
   XY=             -0.8828   XZ=              0.0013   YZ=              0.0002
 Traceless Quadrupole moment (field-independent basis, Debye-Ang):
   XX=             -2.7365   YY=              3.3138   ZZ=             -0.5773
   XY=             -0.8828   XZ=              0.0013   YZ=              0.0002
 Octapole moment (field-independent basis, Debye-Ang**2):
  XXX=             15.9816  YYY=              0.2702  ZZZ=              0.0005  XYY=             -0.3827
  XXY=              0.8344  XXZ=              0.0008  XZZ=             -4.5765  YZZ=              0.2516
  YYZ=              0.0006  XYZ=              0.0002
 Hexadecapole moment (field-independent basis, Debye-Ang**3):
 XXXX=           -300.4342 YYYY=            -52.8809 ZZZZ=            -26.6365 XXXY=             -3.0346
 XXXZ=              0.0046 YYYX=              0.7422 YYYZ=              0.0012 ZZZX=             -0.0004
 ZZZY=             -0.0001 XXYY=            -57.6510 XXZZ=            -57.4136 YYZZ=            -15.1820
 XXYZ=             -0.0001 YYXZ=              0.0004 ZZXY=              0.4874
 N-N= 1.027358285533D+02 E-N=-6.527292280870D+02  KE= 1.904665602285D+02
 1\1\GINC-ROCK\SP\RMP2-FC\CC-pVTZ\C3H4O1\STYLIANAKIS\25-Mar-2016\0\\# m
 p2/cc-pVTZ\\acrolein_t_single_point\\0,1\C\C,1,1.340479\C,2,1.474506,1
 ,121.079\O,3,1.218473,2,124.14,1,-179.975,0\H,3,1.111836,2,115.188,1,-
 0.01,0\H,2,1.087362,3,116.567,4,0.025,0\H,1,1.085415,2,122.129,3,179.9
 97,0\H,1,1.088194,2,121.065,3,0.006,0\\Version=EM64L-G09RevA.01\State=
 1-A\HF=-190.8319674\MP2=-191.5410088\RMSD=2.687e-09\PG=C01 [X(C3H4O1)]
 \\@


 ONE THORN OF EXPERIENCE IS WORTH A WHOLE WILDERNESS OF
 WARNING....  LOWELL - AMONG MY BOOKS
 Job cpu time:  0 days  0 hours  8 minutes  9.0 seconds.
 File lengths (MBytes):  RWF=     14 Int=      0 D2E=      0 Chk=      2 Scr=      1
 Normal termination of Gaussian 09 at Fri Mar 25 20:03:16 2016.
