 Entering Gaussian System, Link 0=g09
 Input=propenoic_acid_cis.gjf
 Output=propenoic_acid_cis.out
 Initial command:
 /usr/local/g09/l1.exe /home/scratch/stylianakis/Gau-20150.inp -scrdir=/home/scratch/stylianakis/
 Entering Link 1 = /usr/local/g09/l1.exe PID=     20151.
  
 Copyright (c) 1988,1990,1992,1993,1995,1998,2003,2009, Gaussian, Inc.
                  All Rights Reserved.
  
 This is part of the Gaussian(R) 09 program.  It is based on
 the Gaussian(R) 03 system (copyright 2003, Gaussian, Inc.),
 the Gaussian(R) 98 system (copyright 1998, Gaussian, Inc.),
 the Gaussian(R) 94 system (copyright 1995, Gaussian, Inc.),
 the Gaussian 92(TM) system (copyright 1992, Gaussian, Inc.),
 the Gaussian 90(TM) system (copyright 1990, Gaussian, Inc.),
 the Gaussian 88(TM) system (copyright 1988, Gaussian, Inc.),
 the Gaussian 86(TM) system (copyright 1986, Carnegie Mellon
 University), and the Gaussian 82(TM) system (copyright 1983,
 Carnegie Mellon University). Gaussian is a federally registered
 trademark of Gaussian, Inc.
  
 This software contains proprietary and confidential information,
 including trade secrets, belonging to Gaussian, Inc.
  
 This software is provided under written license and may be
 used, copied, transmitted, or stored only in accord with that
 written license.
  
 The following legend is applicable only to US Government
 contracts under FAR:
  
                    RESTRICTED RIGHTS LEGEND
  
 Use, reproduction and disclosure by the US Government is
 subject to restrictions as set forth in subparagraphs (a)
 and (c) of the Commercial Computer Software - Restricted
 Rights clause in FAR 52.227-19.
  
 Gaussian, Inc.
 340 Quinnipiac St., Bldg. 40, Wallingford CT 06492
  
  
 ---------------------------------------------------------------
 Warning -- This program may not be used in any manner that
 competes with the business of Gaussian, Inc. or will provide
 assistance to any competitor of Gaussian, Inc.  The licensee
 of this program is prohibited from giving any competitor of
 Gaussian, Inc. access to this program.  By using this program,
 the user acknowledges that Gaussian, Inc. is engaged in the
 business of creating and licensing software in the field of
 computational chemistry and represents and warrants to the
 licensee that it is not a competitor of Gaussian, Inc. and that
 it will not use this program in any manner prohibited above.
 ---------------------------------------------------------------
  

 Cite this work as:
 Gaussian 09, Revision A.01,
 M. J. Frisch, G. W. Trucks, H. B. Schlegel, G. E. Scuseria, 
 M. A. Robb, J. R. Cheeseman, G. Scalmani, V. Barone, B. Mennucci, 
 G. A. Petersson, H. Nakatsuji, M. Caricato, X. Li, H. P. Hratchian, 
 A. F. Izmaylov, J. Bloino, G. Zheng, J. L. Sonnenberg, M. Hada, 
 M. Ehara, K. Toyota, R. Fukuda, J. Hasegawa, M. Ishida, T. Nakajima, 
 Y. Honda, O. Kitao, H. Nakai, T. Vreven, J. A. Montgomery, Jr., 
 J. E. Peralta, F. Ogliaro, M. Bearpark, J. J. Heyd, E. Brothers, 
 K. N. Kudin, V. N. Staroverov, R. Kobayashi, J. Normand, 
 K. Raghavachari, A. Rendell, J. C. Burant, S. S. Iyengar, J. Tomasi, 
 M. Cossi, N. Rega, J. M. Millam, M. Klene, J. E. Knox, J. B. Cross, 
 V. Bakken, C. Adamo, J. Jaramillo, R. Gomperts, R. E. Stratmann, 
 O. Yazyev, A. J. Austin, R. Cammi, C. Pomelli, J. W. Ochterski, 
 R. L. Martin, K. Morokuma, V. G. Zakrzewski, G. A. Voth, 
 P. Salvador, J. J. Dannenberg, S. Dapprich, A. D. Daniels, 
 O. Farkas, J. B. Foresman, J. V. Ortiz, J. Cioslowski, 
 and D. J. Fox, Gaussian, Inc., Wallingford CT, 2009.
 
 ******************************************
 Gaussian 09:  EM64L-G09RevA.01  8-May-2009
                25-Mar-2016 
 ******************************************
 %mem=16000Mb
 %nproc=8
 Will use up to    8 processors via shared memory.
 -------------
 # mp2/cc-pVTZ
 -------------
 1/38=1/1;
 2/12=2,17=6,18=5,40=1/2;
 3/5=16,6=1,11=9,16=1,25=1,30=1/1,2,3;
 4//1;
 5/5=2,38=5/2;
 8/10=1/1;
 9/16=-3/6;
 6/7=2,8=2,9=2,10=2/1;
 99/5=1,9=1/99;
 -------------------------------
 propenoic_acid_cis_single_point
 -------------------------------
 Symbolic Z-matrix:
 Charge =  0 Multiplicity = 1
 c
 c                    1    cc2
 c                    2    cc3      1    ccc3
 o                    3    oc4      2    occ4     1    dih4     0
 o                    3    oc5      2    occ5     1    dih5     0
 h                    1    hc6      2    hcc6     3    dih6     0
 h                    1    hc7      2    hcc7     3    dih7     0
 h                    4    ho8      3    hoc8     2    dih8     0
 h                    2    hc9      3    hcc9     5    dih9     0
       Variables:
  cc2                   1.33679                  
  cc3                   1.48339                  
  ccc3                120.906                    
  oc4                   1.35926                  
  occ4                111.345                    
  dih4                179.99                     
  oc5                   1.21584                  
  occ5                126.265                    
  dih5                  0.01                     
  hc6                   1.08514                  
  hcc6                121.331                    
  dih6                179.993                    
  hc7                   1.08616                  
  hcc7                120.549                    
  dih7                  0.005                    
  ho8                   0.97213                  
  hoc8                107.033                    
  dih8               -179.99                     
  hc9                   1.08547                  
  hcc9                116.783                    
  dih9               -179.99                     
 
                          Input orientation:                          
 ---------------------------------------------------------------------
 Center     Atomic      Atomic             Coordinates (Angstroms)
 Number     Number       Type             X           Y           Z
 ---------------------------------------------------------------------
      1          6           0        0.000000    0.000000    0.000000
      2          6           0        0.000000    0.000000    1.336792
      3          6           0        1.272769    0.000000    2.098709
      4          8           0        1.046998    0.000221    3.439092
      5          8           0        2.393366    0.000171    1.626986
      6          1           0       -0.926902   -0.000113   -0.564253
      7          1           0        0.935396   -0.000082   -0.552069
      8          1           0        1.916278    0.000370    3.874281
      9          1           0       -0.917399    0.000000    1.916994
 ---------------------------------------------------------------------
                    Distance matrix (angstroms):
                    1          2          3          4          5
     1  C    0.000000
     2  C    1.336792   0.000000
     3  C    2.454490   1.483394   0.000000
     4  O    3.594935   2.348589   1.359264   0.000000
     5  O    2.894008   2.410895   1.215838   2.257529   0.000000
     6  H    1.085140   2.114975   3.453971   4.463525   3.978154
     7  H    1.086161   2.107786   2.672161   3.992721   2.621823
     8  H    4.322288   3.179776   1.888587   0.972130   2.297379
     9  H    2.125203   1.085475   2.197693   2.485083   3.323443
                    6          7          8          9
     6  H    0.000000
     7  H    1.862338   0.000000
     8  H    5.271077   4.533729   0.000000
     9  H    2.481265   3.086928   3.443936   0.000000
 Stoichiometry    C3H4O2
 Framework group  C1[X(C3H4O2)]
 Deg. of freedom    21
 Full point group                 C1      NOp   1
 Largest Abelian subgroup         C1      NOp   1
 Largest concise Abelian subgroup C1      NOp   1
                         Standard orientation:                         
 ---------------------------------------------------------------------
 Center     Atomic      Atomic             Coordinates (Angstroms)
 Number     Number       Type             X           Y           Z
 ---------------------------------------------------------------------
      1          6           0       -1.975913    0.038637    0.000053
      2          6           0       -0.817163   -0.627929   -0.000022
      3          6           0        0.477920    0.095409   -0.000122
      4          8           0        1.527207   -0.768648    0.000034
      5          8           0        0.627789    1.301975    0.000024
      6          1           0       -2.927198   -0.483461    0.000013
      7          1           0       -1.988036    1.124731   -0.000041
      8          1           0        2.337885   -0.232143    0.000120
      9          1           0       -0.771679   -1.712450   -0.000012
 ---------------------------------------------------------------------
 Rotational constants (GHZ):     11.0057541      4.2188878      3.0497953
 Standard basis: CC-pVTZ (5D, 7F)
 There are   206 symmetry adapted basis functions of A   symmetry.
 Integral buffers will be    131072 words long.
 Raffenetti 1 integral format.
 Two-electron integral symmetry is turned on.
   206 basis functions,   328 primitive gaussians,   235 cartesian basis functions
    19 alpha electrons       19 beta electrons
       nuclear repulsion energy       161.7727165983 Hartrees.
 NAtoms=    9 NActive=    9 NUniq=    9 SFac= 7.50D-01 NAtFMM=   80 NAOKFM=F Big=F
 One-electron integrals computed using PRISM.
 NBasis=   206 RedAO= T  NBF=   206
 NBsUse=   206 1.00D-06 NBFU=   206
 Harris functional with IExCor=  205 diagonalized for initial guess.
 ExpMin= 1.03D-01 ExpMax= 1.53D+04 ExpMxC= 5.22D+02 IAcc=1 IRadAn=         1 AccDes= 0.00D+00
 HarFok:  IExCor=  205 AccDes= 0.00D+00 IRadAn=         1 IDoV= 1
 ScaDFX=  1.000000  1.000000  1.000000  1.000000
 FoFCou: FMM=F IPFlag=           0 FMFlag=      100000 FMFlg1=           0
         NFxFlg=           0 DoJE=T BraDBF=F KetDBF=T FulRan=T
         Omega=  0.000000  0.000000  1.000000  0.000000  0.000000 ICntrl=     500 IOpCl=  0
         NMat0=    1 NMatS0=    1 NMatT0=    0 NMatD0=    1 NMtDS0=    0 NMtDT0=    0
         I1Cent=           4 NGrid=           0.
 Petite list used in FoFCou.
 Initial guess orbital symmetries:
       Occupied  (A) (A) (A) (A) (A) (A) (A) (A) (A) (A) (A) (A)
                 (A) (A) (A) (A) (A) (A) (A)
       Virtual   (A) (A) (A) (A) (A) (A) (A) (A) (A) (A) (A) (A)
                 (A) (A) (A) (A) (A) (A) (A) (A) (A) (A) (A) (A)
                 (A) (A) (A) (A) (A) (A) (A) (A) (A) (A) (A) (A)
                 (A) (A) (A) (A) (A) (A) (A) (A) (A) (A) (A) (A)
                 (A) (A) (A) (A) (A) (A) (A) (A) (A) (A) (A) (A)
                 (A) (A) (A) (A) (A) (A) (A) (A) (A) (A) (A) (A)
                 (A) (A) (A) (A) (A) (A) (A) (A) (A) (A) (A) (A)
                 (A) (A) (A) (A) (A) (A) (A) (A) (A) (A) (A) (A)
                 (A) (A) (A) (A) (A) (A) (A) (A) (A) (A) (A) (A)
                 (A) (A) (A) (A) (A) (A) (A) (A) (A) (A) (A) (A)
                 (A) (A) (A) (A) (A) (A) (A) (A) (A) (A) (A) (A)
                 (A) (A) (A) (A) (A) (A) (A) (A) (A) (A) (A) (A)
                 (A) (A) (A) (A) (A) (A) (A) (A) (A) (A) (A) (A)
                 (A) (A) (A) (A) (A) (A) (A) (A) (A) (A) (A) (A)
                 (A) (A) (A) (A) (A) (A) (A) (A) (A) (A) (A) (A)
                 (A) (A) (A) (A) (A) (A) (A)
 The electronic state of the initial guess is 1-A.
 Requested convergence on RMS density matrix=1.00D-08 within 128 cycles.
 Requested convergence on MAX density matrix=1.00D-06.
 Requested convergence on             energy=1.00D-06.
 No special actions if energy rises.
 Keep R1 ints in memory in canonical form, NReq=391249748.
 SCF Done:  E(RHF) =  -265.756065340     A.U. after   14 cycles
             Convg  =    0.4444D-08             -V/T =  2.0019
 ExpMin= 1.03D-01 ExpMax= 1.53D+04 ExpMxC= 5.22D+02 IAcc=1 IRadAn=         1 AccDes= 0.00D+00
 HarFok:  IExCor=  205 AccDes= 0.00D+00 IRadAn=         1 IDoV=-2
 ScaDFX=  1.000000  1.000000  1.000000  1.000000
 Range of M.O.s used for correlation:     6   206
 NBasis=   206 NAE=    19 NBE=    19 NFC=     5 NFV=     0
 NROrb=    201 NOA=    14 NOB=    14 NVA=   187 NVB=   187

 **** Warning!!: The largest alpha MO coefficient is  0.11402658D+02

 Fully in-core method, ICMem=   804625861.
 JobTyp=1 Pass  1 fully in-core, NPsUse=  8.
 Spin components of T(2) and E(2):
     alpha-alpha T2 =       0.3490077726D-01 E2=     -0.1184869786D+00
     alpha-beta  T2 =       0.1976736165D+00 E2=     -0.7061506352D+00
     beta-beta   T2 =       0.3490077726D-01 E2=     -0.1184869786D+00
 ANorm=    0.1125821998D+01
 E2 =    -0.9431245923D+00 EUMP2 =    -0.26669918993271D+03

 **********************************************************************

            Population analysis using the SCF density.

 **********************************************************************

 Orbital symmetries:
       Occupied  (A) (A) (A) (A) (A) (A) (A) (A) (A) (A) (A) (A)
                 (A) (A) (A) (A) (A) (A) (A)
       Virtual   (A) (A) (A) (A) (A) (A) (A) (A) (A) (A) (A) (A)
                 (A) (A) (A) (A) (A) (A) (A) (A) (A) (A) (A) (A)
                 (A) (A) (A) (A) (A) (A) (A) (A) (A) (A) (A) (A)
                 (A) (A) (A) (A) (A) (A) (A) (A) (A) (A) (A) (A)
                 (A) (A) (A) (A) (A) (A) (A) (A) (A) (A) (A) (A)
                 (A) (A) (A) (A) (A) (A) (A) (A) (A) (A) (A) (A)
                 (A) (A) (A) (A) (A) (A) (A) (A) (A) (A) (A) (A)
                 (A) (A) (A) (A) (A) (A) (A) (A) (A) (A) (A) (A)
                 (A) (A) (A) (A) (A) (A) (A) (A) (A) (A) (A) (A)
                 (A) (A) (A) (A) (A) (A) (A) (A) (A) (A) (A) (A)
                 (A) (A) (A) (A) (A) (A) (A) (A) (A) (A) (A) (A)
                 (A) (A) (A) (A) (A) (A) (A) (A) (A) (A) (A) (A)
                 (A) (A) (A) (A) (A) (A) (A) (A) (A) (A) (A) (A)
                 (A) (A) (A) (A) (A) (A) (A) (A) (A) (A) (A) (A)
                 (A) (A) (A) (A) (A) (A) (A) (A) (A) (A) (A) (A)
                 (A) (A) (A) (A) (A) (A) (A)
 The electronic state is 1-A.
 Alpha  occ. eigenvalues --  -20.61206 -20.54468 -11.39048 -11.26622 -11.25616
 Alpha  occ. eigenvalues --   -1.45915  -1.35493  -1.08044  -0.90556  -0.77184
 Alpha  occ. eigenvalues --   -0.71308  -0.69601  -0.62897  -0.62184  -0.59746
 Alpha  occ. eigenvalues --   -0.54887  -0.48796  -0.45590  -0.39933
 Alpha virt. eigenvalues --    0.08689   0.15341   0.15545   0.18804   0.21577
 Alpha virt. eigenvalues --    0.25310   0.31492   0.34448   0.37909   0.39713
 Alpha virt. eigenvalues --    0.42188   0.46329   0.48194   0.48502   0.54359
 Alpha virt. eigenvalues --    0.54426   0.57522   0.58897   0.59593   0.61793
 Alpha virt. eigenvalues --    0.64718   0.68786   0.69676   0.71666   0.72539
 Alpha virt. eigenvalues --    0.77764   0.79678   0.80711   0.81813   0.83689
 Alpha virt. eigenvalues --    0.84012   0.85458   0.92158   0.93540   0.97709
 Alpha virt. eigenvalues --    0.98436   1.05465   1.07419   1.09325   1.12995
 Alpha virt. eigenvalues --    1.17396   1.17583   1.24114   1.27564   1.31276
 Alpha virt. eigenvalues --    1.33694   1.38670   1.43727   1.46953   1.48927
 Alpha virt. eigenvalues --    1.50596   1.51663   1.56670   1.57636   1.61573
 Alpha virt. eigenvalues --    1.69540   1.69860   1.76509   1.80624   1.82309
 Alpha virt. eigenvalues --    1.93143   2.00819   2.02600   2.06646   2.19474
 Alpha virt. eigenvalues --    2.26436   2.28796   2.30898   2.38373   2.42406
 Alpha virt. eigenvalues --    2.43287   2.43565   2.52833   2.53877   2.57129
 Alpha virt. eigenvalues --    2.66084   2.71737   2.74606   2.78451   2.80679
 Alpha virt. eigenvalues --    2.83029   2.85494   2.92113   2.95068   3.01834
 Alpha virt. eigenvalues --    3.04443   3.06344   3.13410   3.14517   3.17368
 Alpha virt. eigenvalues --    3.19236   3.21167   3.23971   3.26027   3.28011
 Alpha virt. eigenvalues --    3.32305   3.35997   3.38357   3.40504   3.44782
 Alpha virt. eigenvalues --    3.48535   3.53248   3.54896   3.56018   3.56328
 Alpha virt. eigenvalues --    3.60140   3.62913   3.63783   3.66846   3.69955
 Alpha virt. eigenvalues --    3.78222   3.81311   3.82114   3.83817   3.92547
 Alpha virt. eigenvalues --    3.94259   3.96444   3.96710   4.03064   4.11495
 Alpha virt. eigenvalues --    4.11989   4.13437   4.15080   4.18537   4.21221
 Alpha virt. eigenvalues --    4.24469   4.26235   4.32579   4.36570   4.40617
 Alpha virt. eigenvalues --    4.44486   4.48184   4.52722   4.55048   4.61382
 Alpha virt. eigenvalues --    4.62261   4.64084   4.77736   4.82378   4.85797
 Alpha virt. eigenvalues --    4.87191   4.99016   5.01833   5.03653   5.16675
 Alpha virt. eigenvalues --    5.27717   5.28083   5.32559   5.35145   5.40630
 Alpha virt. eigenvalues --    5.48303   5.52962   5.61100   5.62331   5.65636
 Alpha virt. eigenvalues --    5.73275   5.77385   5.83963   5.96069   6.01218
 Alpha virt. eigenvalues --    6.15844   6.25195   6.31150   6.39163   6.49449
 Alpha virt. eigenvalues --    6.58962   6.63925   6.79740   6.84911   6.93082
 Alpha virt. eigenvalues --    6.93137   7.05328   7.07500   7.18480   7.24510
 Alpha virt. eigenvalues --    7.31779   7.36677   7.43244   7.55450   7.66855
 Alpha virt. eigenvalues --    7.80265   7.95184  10.08777  11.73992  12.69772
 Alpha virt. eigenvalues --   13.40296  14.88439
          Condensed to atoms (all electrons):
              1          2          3          4          5          6
     1  C    4.912357   0.569960  -0.060074   0.004716   0.013909   0.427784
     2  C    0.569960   5.176234   0.336396  -0.075532  -0.112300  -0.052509
     3  C   -0.060074   0.336396   4.145117   0.430202   0.751778   0.004334
     4  O    0.004716  -0.075532   0.430202   7.738110  -0.084483  -0.000078
     5  O    0.013909  -0.112300   0.751778  -0.084483   7.825308   0.000275
     6  H    0.427784  -0.052509   0.004334  -0.000078   0.000275   0.491574
     7  H    0.407463  -0.040375  -0.002472   0.000519   0.008816  -0.024688
     8  H   -0.001057   0.011955  -0.032992   0.329501   0.006727   0.000018
     9  H   -0.035169   0.402983  -0.015849   0.002520   0.002241  -0.004872
              7          8          9
     1  C    0.407463  -0.001057  -0.035169
     2  C   -0.040375   0.011955   0.402983
     3  C   -0.002472  -0.032992  -0.015849
     4  O    0.000519   0.329501   0.002520
     5  O    0.008816   0.006727   0.002241
     6  H   -0.024688   0.000018  -0.004872
     7  H    0.472086  -0.000075   0.003450
     8  H   -0.000075   0.433506  -0.000588
     9  H    0.003450  -0.000588   0.460837
 Mulliken atomic charges:
              1
     1  C   -0.239890
     2  C   -0.216813
     3  C    0.443560
     4  O   -0.345477
     5  O   -0.412271
     6  H    0.158162
     7  H    0.175276
     8  H    0.253006
     9  H    0.184446
 Sum of Mulliken atomic charges =   0.00000
 Mulliken charges with hydrogens summed into heavy atoms:
              1
     1  C    0.093549
     2  C   -0.032367
     3  C    0.443560
     4  O   -0.092470
     5  O   -0.412271
 Sum of Mulliken charges with hydrogens summed into heavy atoms =   0.00000
 Electronic spatial extent (au):  <R**2>=            399.5754
 Charge=              0.0000 electrons
 Dipole moment (field-independent basis, Debye):
    X=             -0.9133    Y=             -1.6094    Z=             -0.0002  Tot=              1.8504
 Quadrupole moment (field-independent basis, Debye-Ang):
   XX=            -20.5336   YY=            -33.0720   ZZ=            -30.4224
   XY=             -0.1524   XZ=              0.0003   YZ=             -0.0001
 Traceless Quadrupole moment (field-independent basis, Debye-Ang):
   XX=              7.4757   YY=             -5.0626   ZZ=             -2.4131
   XY=             -0.1524   XZ=              0.0003   YZ=             -0.0001
 Octapole moment (field-independent basis, Debye-Ang**2):
  XXX=             14.6386  YYY=             -4.5756  ZZZ=              0.0000  XYY=             -4.6142
  XXY=              1.5899  XXZ=              0.0012  XZZ=              5.6018  YZZ=              1.2808
  YYZ=              0.0001  XYZ=              0.0000
 Hexadecapole moment (field-independent basis, Debye-Ang**3):
 XXXX=           -250.8035 YYYY=           -136.3840 ZZZZ=            -29.7717 XXXY=              1.3535
 XXXZ=              0.0053 YYYX=             -3.6745 YYYZ=              0.0000 ZZZX=              0.0007
 ZZZY=              0.0001 XXYY=            -80.6688 XXZZ=            -65.4257 YYZZ=            -28.5445
 XXYZ=             -0.0007 YYXZ=              0.0005 ZZXY=             -1.3480
 N-N= 1.617727165983D+02 E-N=-9.487292355345D+02  KE= 2.652535918809D+02
 1\1\GINC-ROCK\SP\RMP2-FC\CC-pVTZ\C3H4O2\STYLIANAKIS\25-Mar-2016\0\\# m
 p2/cc-pVTZ\\propenoic_acid_cis_single_point\\0,1\C\C,1,1.336792\C,2,1.
 483394,1,120.906\O,3,1.359264,2,111.345,1,179.99,0\O,3,1.215838,2,126.
 265,1,0.01,0\H,1,1.08514,2,121.331,3,179.993,0\H,1,1.086161,2,120.549,
 3,0.005,0\H,4,0.97213,3,107.033,2,-179.99,0\H,2,1.085475,3,116.783,5,-
 179.99,0\\Version=EM64L-G09RevA.01\State=1-A\HF=-265.7560653\MP2=-266.
 6991899\RMSD=4.444e-09\PG=C01 [X(C3H4O2)]\\@


 HOW IS IT THAT THE SKY FEEDS THE STARS?

                           -- LUCRETIUS
 Job cpu time:  0 days  0 hours 16 minutes 38.0 seconds.
 File lengths (MBytes):  RWF=     21 Int=      0 D2E=      0 Chk=      3 Scr=      1
 Normal termination of Gaussian 09 at Fri Mar 25 20:11:21 2016.
