 Entering Link 1 = C:\G03W\l1.exe PID=      3144.
  
 Copyright (c) 1988,1990,1992,1993,1995,1998,2003,2004, Gaussian, Inc.
                  All Rights Reserved.
  
 This is the Gaussian(R) 03 program.  It is based on the
 the Gaussian(R) 98 system (copyright 1998, Gaussian, Inc.),
 the Gaussian(R) 94 system (copyright 1995, Gaussian, Inc.),
 the Gaussian 92(TM) system (copyright 1992, Gaussian, Inc.),
 the Gaussian 90(TM) system (copyright 1990, Gaussian, Inc.),
 the Gaussian 88(TM) system (copyright 1988, Gaussian, Inc.),
 the Gaussian 86(TM) system (copyright 1986, Carnegie Mellon
 University), and the Gaussian 82(TM) system (copyright 1983,
 Carnegie Mellon University). Gaussian is a federally registered
 trademark of Gaussian, Inc.
  
 This software contains proprietary and confidential information,
 including trade secrets, belonging to Gaussian, Inc.
  
 This software is provided under written license and may be
 used, copied, transmitted, or stored only in accord with that
 written license.
  
 The following legend is applicable only to US Government
 contracts under FAR:
  
                    RESTRICTED RIGHTS LEGEND
  
 Use, reproduction and disclosure by the US Government is
 subject to restrictions as set forth in subparagraphs (a)
 and (c) of the Commercial Computer Software - Restricted
 Rights clause in FAR 52.227-19.
  
 Gaussian, Inc.
 340 Quinnipiac St., Bldg. 40, Wallingford CT 06492
  
  
 ---------------------------------------------------------------
 Warning -- This program may not be used in any manner that
 competes with the business of Gaussian, Inc. or will provide
 assistance to any competitor of Gaussian, Inc.  The licensee
 of this program is prohibited from giving any competitor of
 Gaussian, Inc. access to this program.  By using this program,
 the user acknowledges that Gaussian, Inc. is engaged in the
 business of creating and licensing software in the field of
 computational chemistry and represents and warrants to the
 licensee that it is not a competitor of Gaussian, Inc. and that
 it will not use this program in any manner prohibited above.
 ---------------------------------------------------------------
  

 Cite this work as:
 Gaussian 03, Revision D.01,
 M. J. Frisch, G. W. Trucks, H. B. Schlegel, G. E. Scuseria, 
 M. A. Robb, J. R. Cheeseman, J. A. Montgomery, Jr., T. Vreven, 
 K. N. Kudin, J. C. Burant, J. M. Millam, S. S. Iyengar, J. Tomasi, 
 V. Barone, B. Mennucci, M. Cossi, G. Scalmani, N. Rega, 
 G. A. Petersson, H. Nakatsuji, M. Hada, M. Ehara, K. Toyota, 
 R. Fukuda, J. Hasegawa, M. Ishida, T. Nakajima, Y. Honda, O. Kitao, 
 H. Nakai, M. Klene, X. Li, J. E. Knox, H. P. Hratchian, J. B. Cross, 
 V. Bakken, C. Adamo, J. Jaramillo, R. Gomperts, R. E. Stratmann, 
 O. Yazyev, A. J. Austin, R. Cammi, C. Pomelli, J. W. Ochterski, 
 P. Y. Ayala, K. Morokuma, G. A. Voth, P. Salvador, J. J. Dannenberg, 
 V. G. Zakrzewski, S. Dapprich, A. D. Daniels, M. C. Strain, 
 O. Farkas, D. K. Malick, A. D. Rabuck, K. Raghavachari, 
 J. B. Foresman, J. V. Ortiz, Q. Cui, A. G. Baboul, S. Clifford, 
 J. Cioslowski, B. B. Stefanov, G. Liu, A. Liashenko, P. Piskorz, 
 I. Komaromi, R. L. Martin, D. J. Fox, T. Keith, M. A. Al-Laham, 
 C. Y. Peng, A. Nanayakkara, M. Challacombe, P. M. W. Gill, 
 B. Johnson, W. Chen, M. W. Wong, C. Gonzalez, and J. A. Pople, 
 Gaussian, Inc., Wallingford CT, 2004.
 
 ******************************************
 Gaussian 03:  IA32W-G03RevD.01 13-Oct-2005
                13-Dec-2007 
 ******************************************
 ---------
 # opt uff
 ---------
 1/6=10,10=10,14=-1,18=4000020,38=1,56=1,64=2/1,3;
 2/9=110,17=6,18=5,40=1/2;
 3/5=30,11=9,16=1,25=1,30=1/1;
 4/20=10,22=1001,24=3/2;
 7/44=-1/16;
 1/6=10,10=10,14=-1,18=4000020,64=2/3(2);
 2/9=110/2;
 99//99;
 2/9=110/2;
 3/5=30,11=9,16=1,25=1,30=1/1;
 4/16=2,20=10,22=1001,24=3/2;
 7/44=-1/16;
 1/6=10,10=10,14=-1,18=4000020,64=2/3(-4);
 2/9=110/2;
 99//99;
 -------------------------
 1,3-dichloropropane-g+,g+
 -------------------------
 Symbolic Z-matrix:
 Charge =  0 Multiplicity = 1
 C                     1.10386  -0.80745   0.0024 
 C                     1.02186   0.72655   0.0084 
 C                    -0.40114   1.30755   0.0034 
 Cl                   -1.28614   0.90255  -1.5096 
 Cl                    0.41486  -1.52245   1.5024 
 H                     0.55286  -1.25645  -0.8556 
 H                     2.16486  -1.14645  -0.0436 
 H                     1.56286   1.11355   0.9054 
 H                     1.57386   1.11955  -0.8786 
 H                    -1.01514   0.92755   0.8514 
 H                    -0.37514   2.42055   0.0584 
 
 Include all MM classes
 MMInit generated parameter data with length LenPar=  1129.

 GradGradGradGradGradGradGradGradGradGradGradGradGradGradGradGradGradGrad
 Berny optimization.
 Initialization pass.
 No Z-matrix variables, so optimization will use Cartesian coordinates.
 Trust Radius=1.00D-01 FncErr=1.00D-07 GrdErr=1.00D-07
 Number of steps in this run=   2 maximum allowed number of steps=   2.
 GradGradGradGradGradGradGradGradGradGradGradGradGradGradGradGradGradGrad

                          Input orientation:                          
 ---------------------------------------------------------------------
 Center     Atomic     Atomic              Coordinates (Angstroms)
 Number     Number      Type              X           Y           Z
 ---------------------------------------------------------------------
    1          6      10061003        1.103862   -0.807448    0.002397
    2          6      10061003        1.021862    0.726552    0.008397
    3          6      10061003       -0.401138    1.307552    0.003397
    4         17      10171000       -1.286138    0.902552   -1.509603
    5         17      10171000        0.414862   -1.522448    1.502397
    6          1      10011000        0.552862   -1.256448   -0.855603
    7          1      10011000        2.164862   -1.146448   -0.043603
    8          1      10011000        1.562862    1.113552    0.905397
    9          1      10011000        1.573862    1.119552   -0.878603
   10          1      10011000       -1.015138    0.927552    0.851397
   11          1      10011000       -0.375138    2.420552    0.058397
 ---------------------------------------------------------------------
                    Distance matrix (angstroms):
                    1          2          3          4          5
     1  C    0.000000
     2  C    1.536202   0.000000
     3  C    2.595814   1.537047   0.000000
     4  Cl   3.304897   2.768061   1.799005   0.000000
     5  Cl   1.798874   2.767397   3.304808   4.224473   0.000000
     6  H    1.114166   2.213311   2.867419   2.910484   2.376965
     7  H    1.114791   2.194831   3.550870   4.272816   2.365162
     8  H    2.171712   1.116718   2.169916   3.740795   2.936462
     9  H    2.170343   1.116209   2.171150   2.936809   3.740669
    10  H    2.867261   2.213689   1.113777   2.376634   2.910533
    11  H    3.551135   2.196303   1.114661   2.364925   4.272761
                    6          7          8          9         10
     6  H    0.000000
     7  H    1.808311   0.000000
     8  H    3.120596   2.524006   0.000000
     9  H    2.586184   2.486214   1.784044   0.000000
    10  H    3.184702   3.900628   2.585265   3.119725   0.000000
    11  H    3.900886   4.380125   2.486263   2.523722   1.807622
                   11
    11  H    0.000000
 Stoichiometry    C3H6Cl2
 Framework group  C1[X(C3H6Cl2)]
 Deg. of freedom    27
 Full point group                 C1
 Largest Abelian subgroup         C1      NOp   1
 Largest concise Abelian subgroup C1      NOp   1
                         Standard orientation:                         
 ---------------------------------------------------------------------
 Center     Atomic     Atomic              Coordinates (Angstroms)
 Number     Number      Type              X           Y           Z
 ---------------------------------------------------------------------
    1          6      10061003        0.999352    0.431198   -0.828163
    2          6      10061003        0.000451    1.253854   -0.000304
    3          6      10061003       -0.999321    0.431332    0.828206
    4         17      10171000       -2.101305   -0.534591   -0.215366
    5         17      10171000        2.101150   -0.534729    0.215375
    6          1      10011000        0.490837   -0.283758   -1.514905
    7          1      10011000        1.653731    1.098763   -1.435537
    8          1      10011000        0.568467    1.924975    0.688182
    9          1      10011000       -0.568241    1.925545   -0.686848
   10          1      10011000       -0.491166   -0.283595    1.514617
   11          1      10011000       -1.653891    1.098205    1.435896
 ---------------------------------------------------------------------
 Rotational constants (GHZ):      6.1389148      1.3701772      1.2874412
 Standard basis: Dummy (5D, 7F)
 There are    11 symmetry adapted basis functions of A   symmetry.
 Integral buffers will be    262144 words long.
 Raffenetti 1 integral format.
 Two-electron integral symmetry is turned on.
    11 basis functions,    11 primitive gaussians,    11 cartesian basis functions
     7 alpha electrons        7 beta electrons
       nuclear repulsion energy        22.3586306851 Hartrees.
 NAtoms=   11 NActive=   11 NUniq=   11 SFac= 7.50D-01 NAtFMM=   80 NAOKFM=F Big=F
 UFF calculation of energy and first derivatives.
 MO and density RWFs will be updated without deorthogonalization.
 NRF= 0 NRA=   0 NVA=  11 HaveQM=F
 Convergence limit is  0.750E-04 MaxStp=  5000 StMxLn= 1.00D-04 StpMin= 1.00D-06.
 Convergence criteria           0.00011250 0.00007500 0.00045000 0.00030000
  Step  NS  ND Rises OKQ   Scale  Max. Force  RMS Force Max. Disp.  RMS Disp.     Energy   Flag
     1   0   0   F    T  1.00D+00 0.01449749 0.00560394 0.01449749 0.00560394    0.0059162 ----
     2   0   0   F    F  2.92D-01 0.01449749 0.00560394 0.01449749 0.00560394    0.0052805 ----
     3   0   0   F    T  3.03D+00 0.00726119 0.00222046 0.00547303 0.00238842    0.0052462 ----
     4   0   0   F    F  2.80D-01 0.00726119 0.00222046 0.01658945 0.00723959    0.0049456 ----
     5   0   0   F    T  2.57D+00 0.00581909 0.00236833 0.00801082 0.00360181    0.0049305 ----
     6   0   0   F    F  4.95D-01 0.00581909 0.00236833 0.02060908 0.00926621    0.0046135 ----
     7   0   0   F    T  6.61D+00 0.00297960 0.00150372 0.00464745 0.00209370    0.0045745 ----
     8   0   0   T    F  3.68D-01 0.00297960 0.00150372 0.03074112 0.01384904    0.0047517 ----
     9   0   0   F    T  5.28D+00 0.00139181 0.00078244 0.00217640 0.00096485    0.0044837 ----
    10   0   0   F    T  7.01D+00 0.00123175 0.00055064 0.00142688 0.00072669    0.0044300 ----
    11   0   0   T    F  3.06D-01 0.00123175 0.00055064 0.01000359 0.00509473    0.0044747 ----
    12   0   0   F    T  1.97D+00 0.00101096 0.00050260 0.00188401 0.00078984    0.0044193 ----
    13   0   0   F    F  2.01D+00 0.00101096 0.00050260 0.00371557 0.00155770    0.0044055 ----
    14   0   0   F    T  7.06D+00 0.00100903 0.00041297 0.00165434 0.00066504    0.0043945 ----
    15   0   0   T    F  3.04D-01 0.00100903 0.00041297 0.01167320 0.00469262    0.0044200 ----
    16   0   0   F    T  3.18D+00 0.00069204 0.00029471 0.00096675 0.00044875    0.0043884 ----
    17   0   0   F    F  1.87D+00 0.00069204 0.00029471 0.00307809 0.00142882    0.0043809 ----
    18   0   0   F    T  3.83D+00 0.00142123 0.00043549 0.00199625 0.00107088    0.0043753 ----
    19   0   0   T    F  4.77D-01 0.00142123 0.00043549 0.00764969 0.00410362    0.0043765 ----
    20   0   0   F    T  5.98D+00 0.00054096 0.00021035 0.00064159 0.00032750    0.0043696 ----
    21   0   0   F    F -4.89D-01 0.00054096 0.00021035 0.00383539 0.00195776    0.0043694 ----
    22   0   0   F    T  3.76D+00 0.00030711 0.00016708 0.00062130 0.00026568    0.0043674 ---+
    23   0   0   F    F  1.74D+00 0.00030711 0.00016708 0.00233781 0.00099969    0.0043645 ----
    24   0   0   F    T  2.28D+00 0.00095605 0.00034763 0.00291589 0.00120174    0.0043626 ----
    25   0   0   F    F  7.66D-01 0.00095605 0.00034763 0.00663902 0.00273618    0.0043561 ----
    26   0   0   F    T  4.16D+00 0.00079893 0.00033446 0.00297409 0.00116095    0.0043546 ----
    27   0   0   F    F -6.27D-02 0.00079893 0.00033446 0.01237832 0.00483194    0.0043474 ----
    28   0   0   F    T  3.89D+00 0.00069186 0.00032715 0.00271360 0.00116302    0.0043474 ----
    29   0   0   F    F  1.16D+00 0.00069186 0.00032715 0.01056725 0.00452902    0.0043369 ----
    30   0   0   F    T  2.10D+00 0.00198473 0.00065033 0.01052337 0.00466556    0.0043326 ----
    31   0   0   F    F  1.91D+00 0.00198473 0.00065033 0.02210866 0.00980194    0.0043080 ----
    32   0   0   F    F -1.65D-02 0.00198473 0.00065033 0.04221541 0.01871632    0.0042891 ----
    33   0   0   F    T  1.62D+01 0.00082038 0.00039496 0.00402070 0.00173758    0.0042891 ----
    34   0   0   T    F  1.61D-01 0.00082038 0.00039496 0.06527661 0.02820981    0.0044683 ----
    35   0   0   F    T  2.36D+00 0.00100261 0.00041364 0.00446222 0.00192206    0.0042824 ----
    36   0   0   F    F  4.08D-01 0.00100261 0.00041364 0.01053441 0.00453761    0.0042738 ----
    37   0   0   F    T  3.20D+01 0.00025818 0.00011996 0.00049841 0.00019943    0.0042730 ---+
    38   0   0   T    F  9.40D-02 0.00025818 0.00011996 0.01596417 0.00638776    0.0043386 ----
    39   0   0   F    T  2.72D+00 0.00025981 0.00011620 0.00055511 0.00022040    0.0042723 ---+
    40   0   0   F    F  1.15D-01 0.00025981 0.00011620 0.00151255 0.00060053    0.0042716 ----
    41   0   0   F    T  5.15D+00 0.00022652 0.00007940 0.00025953 0.00012999    0.0042716 --++
    42   0   0   T    F  3.43D-01 0.00022652 0.00007940 0.00133741 0.00066989    0.0042721 ----
    43   0   0   F    T  7.12D+00 0.00005708 0.00002797 0.00005789 0.00003230    0.0042714 ====
 Energy=    0.004271429572 NIter=   0.
 Dipole moment=       0.000000       0.000000       0.000000
 ***** Axes restored to original set *****
 -------------------------------------------------------------------
 Center     Atomic                   Forces (Hartrees/Bohr)
 Number     Number              X              Y              Z
 -------------------------------------------------------------------
    1          6          -0.000014200   -0.000013584    0.000025682
    2          6          -0.000071596    0.000018618    0.000017895
    3          6          -0.000012585    0.000008016    0.000031597
    4         17           0.000033256   -0.000021263   -0.000006632
    5         17          -0.000014955    0.000019982    0.000032089
    6          1          -0.000034180   -0.000010344   -0.000058539
    7          1           0.000070899   -0.000033910   -0.000016943
    8          1           0.000031249   -0.000011812   -0.000020713
    9          1           0.000019368    0.000033359   -0.000001990
   10          1           0.000006384    0.000002827   -0.000000210
   11          1          -0.000013639    0.000008111   -0.000002235
 -------------------------------------------------------------------
 Cartesian Forces:  Max     0.000071596 RMS     0.000027973

 GradGradGradGradGradGradGradGradGradGradGradGradGradGradGradGradGradGrad
 Berny optimization.
 Search for a local minimum.
 Step number   1 out of a maximum of   2
 All quantities printed in internal units (Hartrees-Bohrs-Radians)
 Second derivative matrix not updated -- unit matrix used.
 RFO step:  Lambda=-2.58225895D-08.
 Linear search not attempted -- first point.
 TrRot=  0.000000  0.000000  0.000000  0.000000  0.000000  0.000000
 Variable       Old X    -DE/DX   Delta X   Delta X   Delta X     New X
                                 (Linear)    (Quad)   (Total)
    X1        2.03395  -0.00001   0.00000  -0.00001  -0.00001   2.03393
    Y1       -1.51714  -0.00001   0.00000  -0.00001  -0.00001  -1.51715
    Z1        0.04010   0.00003   0.00000   0.00003   0.00003   0.04012
    X2        1.93458  -0.00007   0.00000  -0.00007  -0.00007   1.93451
    Y2        1.37686   0.00002   0.00000   0.00002   0.00002   1.37688
    Z2        0.01598   0.00002   0.00000   0.00002   0.00002   0.01600
    X3       -0.76702  -0.00001   0.00000  -0.00001  -0.00001  -0.76703
    Y3        2.41893   0.00001   0.00000   0.00001   0.00001   2.41894
    Z3       -0.02954   0.00003   0.00000   0.00003   0.00003  -0.02951
    X4       -2.27897   0.00003   0.00000   0.00003   0.00003  -2.27893
    Y4        1.79045  -0.00002   0.00000  -0.00002  -0.00002   1.79043
    Z4       -2.97763  -0.00001   0.00000  -0.00001  -0.00001  -2.97763
    X5        0.91175  -0.00001   0.00000  -0.00001  -0.00001   0.91173
    Y5       -2.76257   0.00002   0.00000   0.00002   0.00002  -2.76255
    Z5        2.96601   0.00003   0.00000   0.00003   0.00003   2.96604
    X6        0.90746  -0.00003   0.00000  -0.00003  -0.00003   0.90743
    Y6       -2.31856  -0.00001   0.00000  -0.00001  -0.00001  -2.31857
    Z6       -1.53718  -0.00006   0.00000  -0.00006  -0.00006  -1.53723
    X7        4.02418   0.00007   0.00000   0.00007   0.00007   4.02425
    Y7       -2.13416  -0.00003   0.00000  -0.00003  -0.00003  -2.13419
    Z7       -0.20551  -0.00002   0.00000  -0.00002  -0.00002  -0.20552
    X8        2.92441   0.00003   0.00000   0.00003   0.00003   2.92444
    Y8        2.10981  -0.00001   0.00000  -0.00001  -0.00001   2.10979
    Z8        1.71766  -0.00002   0.00000  -0.00002  -0.00002   1.71764
    X9        2.96971   0.00002   0.00000   0.00002   0.00002   2.96973
    Y9        2.08535   0.00003   0.00000   0.00003   0.00003   2.08538
    Z9       -1.66890   0.00000   0.00000   0.00000   0.00000  -1.66890
   X10       -1.91052   0.00001   0.00000   0.00001   0.00001  -1.91052
   Y10        1.60417   0.00000   0.00000   0.00000   0.00000   1.60417
   Z10        1.52885   0.00000   0.00000   0.00000   0.00000   1.52885
   X11       -0.70095  -0.00001   0.00000  -0.00001  -0.00001  -0.70096
   Y11        4.49962   0.00001   0.00000   0.00001   0.00001   4.49963
   Z11        0.23399   0.00000   0.00000   0.00000   0.00000   0.23398
         Item               Value     Threshold  Converged?
 Maximum Force            0.000072     0.000450     YES
 RMS     Force            0.000028     0.000300     YES
 Maximum Displacement     0.000072     0.001800     YES
 RMS     Displacement     0.000028     0.001200     YES
 Predicted change in Energy=-1.291129D-08
 Optimization completed.
    -- Stationary point found.
 GradGradGradGradGradGradGradGradGradGradGradGradGradGradGradGradGradGrad

                          Input orientation:                          
 ---------------------------------------------------------------------
 Center     Atomic     Atomic              Coordinates (Angstroms)
 Number     Number      Type              X           Y           Z
 ---------------------------------------------------------------------
    1          6      10061003        1.076319   -0.802835    0.021219
    2          6      10061003        1.023736    0.728602    0.008457
    3          6      10061003       -0.405887    1.280042   -0.015635
    4         17      10171000       -1.205978    0.947464   -1.575692
    5         17      10171000        0.482475   -1.461891    1.569545
    6          1      10011000        0.480208   -1.226930   -0.813439
    7          1      10011000        2.129505   -1.129349   -0.108749
    8          1      10011000        1.547533    1.116461    0.908949
    9          1      10011000        1.571505    1.103519   -0.883144
   10          1      10011000       -1.011006    0.848890    0.809031
   11          1      10011000       -0.370927    2.381096    0.123820
 ---------------------------------------------------------------------
                    Distance matrix (angstroms):
                    1          2          3          4          5
     1  C    0.000000
     2  C    1.532393   0.000000
     3  C    2.556692   1.532478   0.000000
     4  Cl   3.289764   2.743911   1.784525   0.000000
     5  Cl   1.784466   2.743760   3.289404   4.306783   0.000000
     6  H    1.109891   2.189757   2.776070   2.855213   2.394540
     7  H    1.110272   2.165281   3.498864   4.194105   2.374860
     8  H    2.166519   1.111613   2.167363   3.712656   2.866816
     9  H    2.167318   1.111561   2.166521   2.866773   3.712546
    10  H    2.775927   2.189877   1.110015   2.394709   2.854571
    11  H    3.498923   2.165439   1.110400   2.375068   4.193681
                    6          7          8          9         10
     6  H    0.000000
     7  H    1.796187   0.000000
     8  H    3.097947   2.533389   0.000000
     9  H    2.574253   2.428323   1.792300   0.000000
    10  H    3.027400   3.823422   2.574431   3.098008   0.000000
    11  H    3.823706   4.316187   2.428212   2.533618   1.796349
                   11
    11  H    0.000000
 Stoichiometry    C3H6Cl2
 Framework group  C1[X(C3H6Cl2)]
 Deg. of freedom    27
 Full point group                 C1
 Largest Abelian subgroup         C1      NOp   1
 Largest concise Abelian subgroup C1      NOp   1
                         Standard orientation:                         
 ---------------------------------------------------------------------
 Center     Atomic     Atomic              Coordinates (Angstroms)
 Number     Number      Type              X           Y           Z
 ---------------------------------------------------------------------
    1          6      10061003        0.969477    0.364865   -0.833281
    2          6      10061003        0.000073    1.209664    0.000264
    3          6      10061003       -0.969274    0.364268    0.833427
    4         17      10171000       -2.143903   -0.490680   -0.202836
    5         17      10171000        2.143754   -0.490896    0.202608
    6          1      10011000        0.419500   -0.372169   -1.454702
    7          1      10011000        1.536837    1.032904   -1.514845
    8          1      10011000        0.584749    1.867202    0.679588
    9          1      10011000       -0.584707    1.867482   -0.678614
   10          1      10011000       -0.419092   -0.373316    1.454236
   11          1      10011000       -1.536411    1.031918    1.515767
 ---------------------------------------------------------------------
 Rotational constants (GHZ):      6.6505919      1.3329171      1.2741771
 1|1|UNPC-UNK|FOpt|UFF|ZDO|C3H6Cl2|PCUSER|13-Dec-2007|0||# opt uff||1,3
 -dichloropropane-g+,g+||0,1|C,1.076318918,-0.8028352272,0.0212187202|C
 ,1.0237356799,0.7286017272,0.0084570361|C,-0.4058873953,1.2800420551,-
 0.0156345364|Cl,-1.2059777936,0.9474644839,-1.5756916285|Cl,0.48247526
 56,-1.4618912556,1.569544702|H,0.4802081151,-1.2269296555,-0.813438659
 6|H,2.1295048337,-1.129348883,-0.1087489132|H,1.5475325009,1.116460800
 4,0.9089485725|H,1.5715048845,1.1035192494,-0.8831444042|H,-1.01100554
 19,0.8488900746,0.8090309743|H,-0.3709266971,2.3810955506,0.1238201868
 ||Version=IA32W-G03RevD.01|HF=0.0042714|RMSD=0.000e+000|RMSF=2.797e-00
 5|Thermal=0.|Dipole=0.,0.,0.|PG=C01 [X(C3H6Cl2)]||@


 In the race for quality, there is no finish line.
                               -- David T. Kearns
 Job cpu time:  0 days  0 hours  0 minutes  2.0 seconds.
 File lengths (MBytes):  RWF=     11 Int=      0 D2E=      0 Chk=      4 Scr=      1
 Normal termination of Gaussian 03 at Thu Dec 13 15:33:47 2007.
