 Entering Link 1 = C:\G03W\l1.exe PID=       828.
  
 Copyright (c) 1988,1990,1992,1993,1995,1998,2003,2004, Gaussian, Inc.
                  All Rights Reserved.
  
 This is the Gaussian(R) 03 program.  It is based on the
 the Gaussian(R) 98 system (copyright 1998, Gaussian, Inc.),
 the Gaussian(R) 94 system (copyright 1995, Gaussian, Inc.),
 the Gaussian 92(TM) system (copyright 1992, Gaussian, Inc.),
 the Gaussian 90(TM) system (copyright 1990, Gaussian, Inc.),
 the Gaussian 88(TM) system (copyright 1988, Gaussian, Inc.),
 the Gaussian 86(TM) system (copyright 1986, Carnegie Mellon
 University), and the Gaussian 82(TM) system (copyright 1983,
 Carnegie Mellon University). Gaussian is a federally registered
 trademark of Gaussian, Inc.
  
 This software contains proprietary and confidential information,
 including trade secrets, belonging to Gaussian, Inc.
  
 This software is provided under written license and may be
 used, copied, transmitted, or stored only in accord with that
 written license.
  
 The following legend is applicable only to US Government
 contracts under FAR:
  
                    RESTRICTED RIGHTS LEGEND
  
 Use, reproduction and disclosure by the US Government is
 subject to restrictions as set forth in subparagraphs (a)
 and (c) of the Commercial Computer Software - Restricted
 Rights clause in FAR 52.227-19.
  
 Gaussian, Inc.
 340 Quinnipiac St., Bldg. 40, Wallingford CT 06492
  
  
 ---------------------------------------------------------------
 Warning -- This program may not be used in any manner that
 competes with the business of Gaussian, Inc. or will provide
 assistance to any competitor of Gaussian, Inc.  The licensee
 of this program is prohibited from giving any competitor of
 Gaussian, Inc. access to this program.  By using this program,
 the user acknowledges that Gaussian, Inc. is engaged in the
 business of creating and licensing software in the field of
 computational chemistry and represents and warrants to the
 licensee that it is not a competitor of Gaussian, Inc. and that
 it will not use this program in any manner prohibited above.
 ---------------------------------------------------------------
  

 Cite this work as:
 Gaussian 03, Revision D.01,
 M. J. Frisch, G. W. Trucks, H. B. Schlegel, G. E. Scuseria, 
 M. A. Robb, J. R. Cheeseman, J. A. Montgomery, Jr., T. Vreven, 
 K. N. Kudin, J. C. Burant, J. M. Millam, S. S. Iyengar, J. Tomasi, 
 V. Barone, B. Mennucci, M. Cossi, G. Scalmani, N. Rega, 
 G. A. Petersson, H. Nakatsuji, M. Hada, M. Ehara, K. Toyota, 
 R. Fukuda, J. Hasegawa, M. Ishida, T. Nakajima, Y. Honda, O. Kitao, 
 H. Nakai, M. Klene, X. Li, J. E. Knox, H. P. Hratchian, J. B. Cross, 
 V. Bakken, C. Adamo, J. Jaramillo, R. Gomperts, R. E. Stratmann, 
 O. Yazyev, A. J. Austin, R. Cammi, C. Pomelli, J. W. Ochterski, 
 P. Y. Ayala, K. Morokuma, G. A. Voth, P. Salvador, J. J. Dannenberg, 
 V. G. Zakrzewski, S. Dapprich, A. D. Daniels, M. C. Strain, 
 O. Farkas, D. K. Malick, A. D. Rabuck, K. Raghavachari, 
 J. B. Foresman, J. V. Ortiz, Q. Cui, A. G. Baboul, S. Clifford, 
 J. Cioslowski, B. B. Stefanov, G. Liu, A. Liashenko, P. Piskorz, 
 I. Komaromi, R. L. Martin, D. J. Fox, T. Keith, M. A. Al-Laham, 
 C. Y. Peng, A. Nanayakkara, M. Challacombe, P. M. W. Gill, 
 B. Johnson, W. Chen, M. W. Wong, C. Gonzalez, and J. A. Pople, 
 Gaussian, Inc., Wallingford CT, 2004.
 
 ******************************************
 Gaussian 03:  IA32W-G03RevD.01 13-Oct-2005
                11-Mar-2008 
 ******************************************
 ---------
 # opt uff
 ---------
 1/6=10,10=10,14=-1,18=4000020,38=1,56=1,64=2/1,3;
 2/9=110,17=6,18=5,40=1/2;
 3/5=30,11=9,16=1,25=1,30=1/1;
 4/20=10,22=1001,24=3/2;
 7/44=-1/16;
 1/6=10,10=10,14=-1,18=4000020,64=2/3(2);
 2/9=110/2;
 99//99;
 2/9=110/2;
 3/5=30,11=9,16=1,25=1,30=1/1;
 4/16=2,20=10,22=1001,24=3/2;
 7/44=-1/16;
 1/6=10,10=10,14=-1,18=4000020,64=2/3(-4);
 2/9=110/2;
 99//99;
 ---------------
 chloropropane-a
 ---------------
 Symbolic Z-matrix:
 Charge =  0 Multiplicity = 1
 C                     0.17748  -0.48638  -0.2985 
 C                     0.17548   1.04662  -0.3025 
 Cl                   -0.67452  -1.13438   1.1485 
 H                    -0.35052  -0.89538  -1.1905 
 H                     1.21448  -0.89238  -0.2665 
 H                    -0.87452   1.42662  -0.2965 
 H                     0.67748   1.43062   0.6195 
 C                     0.90148   1.60162  -1.5355 
 H                     0.89848   2.71662  -1.5345 
 H                     1.96348   1.26562  -1.5605 
 H                     0.41148   1.26162  -2.4765 
 
 Include all MM classes
 MMInit generated parameter data with length LenPar=  1129.

 GradGradGradGradGradGradGradGradGradGradGradGradGradGradGradGradGradGrad
 Berny optimization.
 Initialization pass.
 No Z-matrix variables, so optimization will use Cartesian coordinates.
 Trust Radius=1.00D-01 FncErr=1.00D-07 GrdErr=1.00D-07
 Number of steps in this run=   2 maximum allowed number of steps=   2.
 GradGradGradGradGradGradGradGradGradGradGradGradGradGradGradGradGradGrad

                          Input orientation:                          
 ---------------------------------------------------------------------
 Center     Atomic     Atomic              Coordinates (Angstroms)
 Number     Number      Type              X           Y           Z
 ---------------------------------------------------------------------
    1          6      10061003        0.177476   -0.486381   -0.298500
    2          6      10061003        0.175476    1.046619   -0.302500
    3         17      10171000       -0.674524   -1.134381    1.148500
    4          1      10011000       -0.350524   -0.895381   -1.190500
    5          1      10011000        1.214476   -0.892381   -0.266500
    6          1      10011000       -0.874524    1.426619   -0.296500
    7          1      10011000        0.677476    1.430619    0.619500
    8          6      10061003        0.901476    1.601619   -1.535500
    9          1      10011000        0.898476    2.716619   -1.534500
   10          1      10011000        1.963476    1.265619   -1.560500
   11          1      10011000        0.411476    1.261619   -2.476500
 ---------------------------------------------------------------------
                    Distance matrix (angstroms):
                    1          2          3          4          5
     1  C    0.000000
     2  C    1.533007   0.000000
     3  Cl   1.799894   2.754027   0.000000
     4  H    1.114329   2.199223   2.373398   0.000000
     5  H    1.114105   2.200122   2.372575   1.817418   0.000000
     6  H    2.183180   1.116663   2.947329   2.542734   3.121311
     7  H    2.183486   1.117830   2.947367   3.121404   2.543559
     8  C    2.532605   1.534728   4.144071   2.814523   2.815735
     9  H    3.508097   2.197602   4.950052   3.837301   3.838302
    10  H    2.802132   2.197150   4.478585   3.187698   2.625338
    11  H    2.802489   2.197316   4.478933   2.624326   3.188828
                    6          7          8          9         10
     6  H    0.000000
     7  H    1.802159   0.000000
     8  C    2.172538   2.173348   0.000000
     9  H    2.517990   2.518403   1.115004   0.000000
    10  H    3.110926   2.536419   1.114166   1.800084   0.000000
    11  H    2.536419   3.111998   1.114083   1.800433   1.802159
                   11
    11  H    0.000000
 Stoichiometry    C3H7Cl
 Framework group  C1[X(C3H7Cl)]
 Deg. of freedom    27
 Full point group                 C1
 Largest Abelian subgroup         C1      NOp   1
 Largest concise Abelian subgroup C1      NOp   1
                         Standard orientation:                         
 ---------------------------------------------------------------------
 Center     Atomic     Atomic              Coordinates (Angstroms)
 Number     Number      Type              X           Y           Z
 ---------------------------------------------------------------------
    1          6      10061003        0.085025    0.591555    0.000155
    2          6      10061003       -0.975968   -0.514972   -0.000222
    3         17      10171000        1.746655   -0.100258   -0.000044
    4          1      10011000        0.004729    1.231313   -0.908686
    5          1      10011000        0.006031    1.231457    0.908732
    6          1      10011000       -0.850561   -1.163246   -0.900751
    7          1      10011000       -0.850180   -1.163651    0.901408
    8          6      10061003       -2.393815    0.072479   -0.000044
    9          1      10011000       -3.162507   -0.735201    0.000337
   10          1      10011000       -2.565860    0.704467    0.901265
   11          1      10011000       -2.566241    0.704871   -0.900893
 ---------------------------------------------------------------------
 Rotational constants (GHZ):     25.2046661      2.3507098      2.2444757
 Standard basis: Dummy (5D, 7F)
 There are    11 symmetry adapted basis functions of A   symmetry.
 Integral buffers will be    262144 words long.
 Raffenetti 1 integral format.
 Two-electron integral symmetry is turned on.
    11 basis functions,    11 primitive gaussians,    11 cartesian basis functions
     7 alpha electrons        7 beta electrons
       nuclear repulsion energy        23.1850793974 Hartrees.
 NAtoms=   11 NActive=   11 NUniq=   11 SFac= 7.50D-01 NAtFMM=   80 NAOKFM=F Big=F
 UFF calculation of energy and first derivatives.
 MO and density RWFs will be updated without deorthogonalization.
 NRF= 0 NRA=   0 NVA=  11 HaveQM=F
 Convergence limit is  0.750E-04 MaxStp=  5000 StMxLn= 1.00D-04 StpMin= 1.00D-06.
 Convergence criteria           0.00011250 0.00007500 0.00045000 0.00030000
  Step  NS  ND Rises OKQ   Scale  Max. Force  RMS Force Max. Disp.  RMS Disp.     Energy   Flag
     1   0   0   F    T  1.00D+00 0.01409392 0.00369392 0.01409392 0.00369392    0.0025850 ----
     2   0   0   F    F  5.59D-01 0.01409392 0.00369392 0.01409392 0.00369392    0.0022792 ----
     3   0   0   F    T  2.88D+00 0.00541143 0.00179894 0.00469630 0.00200093    0.0022341 ----
     4   0   0   F    F  3.91D-01 0.00541143 0.00179894 0.01351404 0.00575787    0.0020373 ----
     5   0   0   F    T  2.26D+00 0.00552859 0.00213539 0.00754604 0.00353856    0.0020204 ----
     6   0   0   F    F  2.24D-01 0.00552859 0.00213539 0.01707575 0.00800733    0.0018188 ----
     7   0   0   F    T  5.27D+00 0.00283951 0.00130772 0.00496829 0.00186118    0.0018118 ----
     8   0   0   F    F -3.08D-01 0.00283951 0.00130772 0.02616780 0.00980277    0.0017295 ----
     9   0   0   F    T  6.06D+00 0.00220960 0.00083052 0.00258505 0.00111780    0.0017091 ----
    10   0   0   T    F  4.61D-01 0.00220960 0.00083052 0.01567762 0.00677917    0.0017208 ----
    11   0   0   F    T  5.38D+00 0.00135689 0.00046458 0.00158400 0.00058111    0.0016773 ----
    12   0   0   T    F  3.56D-01 0.00135689 0.00046458 0.00851529 0.00312396    0.0016927 ----
    13   0   0   F    T  3.90D+00 0.00069288 0.00023985 0.00101980 0.00028545    0.0016704 ---+
    14   0   0   F    F -3.82D-01 0.00069288 0.00023985 0.00397816 0.00111353    0.0016690 ----
    15   0   0   F    T  3.15D+00 0.00042048 0.00016804 0.00065089 0.00021878    0.0016681 ---+
    16   0   0   F    F -1.28D-01 0.00042048 0.00016804 0.00204802 0.00068838    0.0016669 ----
    17   0   0   F    T  3.72D+00 0.00033319 0.00011880 0.00034529 0.00016145    0.0016669 --++
    18   0   0   F    F -1.18D-01 0.00033319 0.00011880 0.00128316 0.00059997    0.0016661 ----
    19   0   0   F    T  7.32D+00 0.00012908 0.00005971 0.00018105 0.00007233    0.0016661 -+++
    20   0   0   F    F -3.17D-01 0.00012908 0.00005971 0.00132521 0.00052941    0.0016659 -+--
    21   0   0   F    T  2.22D+00 0.00027019 0.00008310 0.00038468 0.00016288    0.0016658 --++
    22   0   0   F    F  2.54D-01 0.00027019 0.00008310 0.00085352 0.00036139    0.0016655 ----
    23   0   0   F    T  8.36D+00 0.00014947 0.00003966 0.00014645 0.00005424    0.0016655 -+++
    24   0   0   F    T  2.71D+00 0.00020230 0.00006638 0.00044732 0.00016711    0.0016653 -+++
    25   0   0   F    F -1.46D-01 0.00020230 0.00006638 0.00121345 0.00045333    0.0016651 -+--
    26   0   0   F    T  1.34D+01 0.00007607 0.00002717 0.00008448 0.00002883    0.0016651 ====
 Energy=    0.001665127505 NIter=   0.
 Dipole moment=       0.000000       0.000000       0.000000
 ***** Axes restored to original set *****
 -------------------------------------------------------------------
 Center     Atomic                   Forces (Hartrees/Bohr)
 Number     Number              X              Y              Z
 -------------------------------------------------------------------
    1          6          -0.000049411    0.000036884    0.000053839
    2          6           0.000049284   -0.000008313   -0.000051801
    3         17           0.000034160   -0.000025387   -0.000058597
    4          1          -0.000019302    0.000010988    0.000017988
    5          1           0.000007671    0.000011776    0.000023614
    6          1          -0.000039075    0.000000236   -0.000013930
    7          1           0.000024004   -0.000001064    0.000022527
    8          6          -0.000001482    0.000007286   -0.000032514
    9          1          -0.000012816   -0.000002295    0.000027381
   10          1           0.000014557   -0.000016415    0.000009506
   11          1          -0.000007590   -0.000013695    0.000001988
 -------------------------------------------------------------------
 Cartesian Forces:  Max     0.000058597 RMS     0.000027168

 GradGradGradGradGradGradGradGradGradGradGradGradGradGradGradGradGradGrad
 Berny optimization.
 Search for a local minimum.
 Step number   1 out of a maximum of   2
 All quantities printed in internal units (Hartrees-Bohrs-Radians)
 Second derivative matrix not updated -- unit matrix used.
 RFO step:  Lambda=-2.43572130D-08.
 Linear search not attempted -- first point.
 TrRot=  0.000000  0.000000  0.000000  0.000000  0.000000  0.000000
 Variable       Old X    -DE/DX   Delta X   Delta X   Delta X     New X
                                 (Linear)    (Quad)   (Total)
    X1        0.33666  -0.00005   0.00000  -0.00005  -0.00005   0.33661
    Y1       -0.91734   0.00004   0.00000   0.00004   0.00004  -0.91731
    Z1       -0.56678   0.00005   0.00000   0.00005   0.00005  -0.56672
    X2        0.33587   0.00005   0.00000   0.00005   0.00005   0.33592
    Y2        1.96935  -0.00001   0.00000  -0.00001  -0.00001   1.96934
    Z2       -0.57761  -0.00005   0.00000  -0.00005  -0.00005  -0.57766
    X3       -1.27019   0.00003   0.00000   0.00003   0.00003  -1.27016
    Y3       -2.06137  -0.00003   0.00000  -0.00003  -0.00003  -2.06140
    Z3        2.16159  -0.00006   0.00000  -0.00006  -0.00006   2.16153
    X4       -0.63791  -0.00002   0.00000  -0.00002  -0.00002  -0.63793
    Y4       -1.64814   0.00001   0.00000   0.00001   0.00001  -1.64813
    Z4       -2.27661   0.00002   0.00000   0.00002   0.00002  -2.27659
    X5        2.30717   0.00001   0.00000   0.00001   0.00001   2.30718
    Y5       -1.64089   0.00001   0.00000   0.00001   0.00001  -1.64088
    Z5       -0.53902   0.00002   0.00000   0.00002   0.00002  -0.53900
    X6       -1.64435  -0.00004   0.00000  -0.00004  -0.00004  -1.64439
    Y6        2.67014   0.00000   0.00000   0.00000   0.00000   2.67014
    Z6       -0.57885  -0.00001   0.00000  -0.00001  -0.00001  -0.57887
    X7        1.29234   0.00002   0.00000   0.00002   0.00002   1.29236
    Y7        2.67739   0.00000   0.00000   0.00000   0.00000   2.67739
    Z7        1.15338   0.00002   0.00000   0.00002   0.00002   1.15341
    X8        1.70133   0.00000   0.00000   0.00000   0.00000   1.70133
    Y8        3.00380   0.00001   0.00000   0.00001   0.00001   3.00381
    Z8       -2.89672  -0.00003   0.00000  -0.00003  -0.00003  -2.89675
    X9        1.67014  -0.00001   0.00000  -0.00001  -0.00001   1.67013
    Y9        5.10144   0.00000   0.00000   0.00000   0.00000   5.10144
    Z9       -2.85291   0.00003   0.00000   0.00003   0.00003  -2.85288
   X10        3.70022   0.00001   0.00000   0.00001   0.00001   3.70023
   Y10        2.36259  -0.00002   0.00000  -0.00002  -0.00002   2.36257
   Z10       -2.91259   0.00001   0.00000   0.00001   0.00001  -2.91258
   X11        0.75072  -0.00001   0.00000  -0.00001  -0.00001   0.75072
   Y11        2.35516  -0.00001   0.00000  -0.00001  -0.00001   2.35514
   Z11       -4.65249   0.00000   0.00000   0.00000   0.00000  -4.65249
         Item               Value     Threshold  Converged?
 Maximum Force            0.000059     0.000450     YES
 RMS     Force            0.000027     0.000300     YES
 Maximum Displacement     0.000059     0.001800     YES
 RMS     Displacement     0.000027     0.001200     YES
 Predicted change in Energy=-1.217861D-08
 Optimization completed.
    -- Stationary point found.
 GradGradGradGradGradGradGradGradGradGradGradGradGradGradGradGradGradGrad

                          Input orientation:                          
 ---------------------------------------------------------------------
 Center     Atomic     Atomic              Coordinates (Angstroms)
 Number     Number      Type              X           Y           Z
 ---------------------------------------------------------------------
    1          6      10061003        0.178155   -0.485437   -0.299926
    2          6      10061003        0.177736    1.042136   -0.305659
    3         17      10171000       -0.672156   -1.090832    1.143862
    4          1      10011000       -0.337567   -0.872160   -1.204729
    5          1      10011000        1.220903   -0.868322   -0.285237
    6          1      10011000       -0.870151    1.412979   -0.306315
    7          1      10011000        0.683875    1.416816    0.610345
    8          6      10061003        0.900307    1.589542   -1.532877
    9          1      10011000        0.883800    2.699565   -1.509692
   10          1      10011000        1.958071    1.250227   -1.541279
   11          1      10011000        0.397266    1.246296   -2.461992
 ---------------------------------------------------------------------
                    Distance matrix (angstroms):
                    1          2          3          4          5
     1  C    0.000000
     2  C    1.527583   0.000000
     3  Cl   1.781588   2.715323   0.000000
     4  H    1.110942   2.176785   2.382362   0.000000
     5  H    1.110919   2.176801   2.382333   1.809505   0.000000
     6  H    2.168633   1.111572   2.900222   2.512499   3.094719
     7  H    2.168620   1.111586   2.900303   3.094713   2.512433
     8  C    2.519367   1.525722   4.101460   2.774885   2.774974
     9  H    3.479325   2.166863   4.881543   3.787077   3.787182
    10  H    2.778774   2.177074   4.428164   3.144478   2.570858
    11  H    2.778747   2.177073   4.428094   2.570708   3.144558
                    6          7          8          9         10
     6  H    0.000000
     7  H    1.804239   0.000000
     8  C    2.161053   2.161036   0.000000
     9  H    2.485913   2.485955   1.110388   0.000000
    10  H    3.090382   2.506154   1.110887   1.804338   0.000000
    11  H    2.506206   3.090384   1.110910   1.804322   1.812137
                   11
    11  H    0.000000
 Stoichiometry    C3H7Cl
 Framework group  C1[X(C3H7Cl)]
 Deg. of freedom    27
 Full point group                 C1
 Largest Abelian subgroup         C1      NOp   1
 Largest concise Abelian subgroup C1      NOp   1
                         Standard orientation:                         
 ---------------------------------------------------------------------
 Center     Atomic     Atomic              Coordinates (Angstroms)
 Number     Number      Type              X           Y           Z
 ---------------------------------------------------------------------
    1          6      10061003        0.089485    0.601884    0.000032
    2          6      10061003       -0.959151   -0.508915    0.000032
    3         17      10171000        1.725670   -0.103067   -0.000016
    4          1      10011000       -0.024459    1.236410   -0.904725
    5          1      10011000       -0.024385    1.236396    0.904779
    6          1      10011000       -0.826319   -1.144696   -0.902038
    7          1      10011000       -0.826385   -1.144594    0.902201
    8          6      10061003       -2.372292    0.066289   -0.000024
    9          1      10011000       -3.111109   -0.762632   -0.000081
   10          1      10011000       -2.536040    0.687855    0.906018
   11          1      10011000       -2.535955    0.687842   -0.906118
 ---------------------------------------------------------------------
 Rotational constants (GHZ):     25.1766152      2.4047481      2.2936123
 1|1|UNPC-UNK|FOpt|UFF|ZDO|C3H7Cl1|PCUSER|11-Mar-2008|0||# opt uff||chl
 oropropane-a||0,1|C,0.1781547991,-0.4854369343,-0.2999261314|C,0.17773
 62706,1.0421356231,-0.3056585667|Cl,-0.6721563747,-1.0908319497,1.1438
 621565|H,-0.3375665967,-0.8721597641,-1.2047293613|H,1.2209026858,-0.8
 683221476,-0.2852372336|H,-0.87015084,1.4129791923,-0.3063153935|H,0.6
 838749687,1.4168159315,0.6103446698|C,0.9003065007,1.5895416145,-1.532
 8774473|H,0.8837998172,2.6995647053,-1.509692415|H,1.9580707326,1.2502
 274827,-1.5412785551|H,0.3972661268,1.2462957963,-2.4619917224||Versio
 n=IA32W-G03RevD.01|HF=0.0016651|RMSD=0.000e+000|RMSF=2.717e-005|Therma
 l=0.|Dipole=0.,0.,0.|PG=C01 [X(C3H7Cl1)]||@


 IT IS A SIMPLE TASK TO MAKE THINGS COMPLEX,
 BUT A COMPLEX TASK TO MAKE THEM SIMPLE.
 Job cpu time:  0 days  0 hours  0 minutes  2.0 seconds.
 File lengths (MBytes):  RWF=     11 Int=      0 D2E=      0 Chk=      4 Scr=      1
 Normal termination of Gaussian 03 at Tue Mar 11 14:05:08 2008.
