 Entering Link 1 = C:\G03W\l1.exe PID=      3428.
  
 Copyright (c) 1988,1990,1992,1993,1995,1998,2003,2004, Gaussian, Inc.
                  All Rights Reserved.
  
 This is the Gaussian(R) 03 program.  It is based on the
 the Gaussian(R) 98 system (copyright 1998, Gaussian, Inc.),
 the Gaussian(R) 94 system (copyright 1995, Gaussian, Inc.),
 the Gaussian 92(TM) system (copyright 1992, Gaussian, Inc.),
 the Gaussian 90(TM) system (copyright 1990, Gaussian, Inc.),
 the Gaussian 88(TM) system (copyright 1988, Gaussian, Inc.),
 the Gaussian 86(TM) system (copyright 1986, Carnegie Mellon
 University), and the Gaussian 82(TM) system (copyright 1983,
 Carnegie Mellon University). Gaussian is a federally registered
 trademark of Gaussian, Inc.
  
 This software contains proprietary and confidential information,
 including trade secrets, belonging to Gaussian, Inc.
  
 This software is provided under written license and may be
 used, copied, transmitted, or stored only in accord with that
 written license.
  
 The following legend is applicable only to US Government
 contracts under FAR:
  
                    RESTRICTED RIGHTS LEGEND
  
 Use, reproduction and disclosure by the US Government is
 subject to restrictions as set forth in subparagraphs (a)
 and (c) of the Commercial Computer Software - Restricted
 Rights clause in FAR 52.227-19.
  
 Gaussian, Inc.
 340 Quinnipiac St., Bldg. 40, Wallingford CT 06492
  
  
 ---------------------------------------------------------------
 Warning -- This program may not be used in any manner that
 competes with the business of Gaussian, Inc. or will provide
 assistance to any competitor of Gaussian, Inc.  The licensee
 of this program is prohibited from giving any competitor of
 Gaussian, Inc. access to this program.  By using this program,
 the user acknowledges that Gaussian, Inc. is engaged in the
 business of creating and licensing software in the field of
 computational chemistry and represents and warrants to the
 licensee that it is not a competitor of Gaussian, Inc. and that
 it will not use this program in any manner prohibited above.
 ---------------------------------------------------------------
  

 Cite this work as:
 Gaussian 03, Revision D.01,
 M. J. Frisch, G. W. Trucks, H. B. Schlegel, G. E. Scuseria, 
 M. A. Robb, J. R. Cheeseman, J. A. Montgomery, Jr., T. Vreven, 
 K. N. Kudin, J. C. Burant, J. M. Millam, S. S. Iyengar, J. Tomasi, 
 V. Barone, B. Mennucci, M. Cossi, G. Scalmani, N. Rega, 
 G. A. Petersson, H. Nakatsuji, M. Hada, M. Ehara, K. Toyota, 
 R. Fukuda, J. Hasegawa, M. Ishida, T. Nakajima, Y. Honda, O. Kitao, 
 H. Nakai, M. Klene, X. Li, J. E. Knox, H. P. Hratchian, J. B. Cross, 
 V. Bakken, C. Adamo, J. Jaramillo, R. Gomperts, R. E. Stratmann, 
 O. Yazyev, A. J. Austin, R. Cammi, C. Pomelli, J. W. Ochterski, 
 P. Y. Ayala, K. Morokuma, G. A. Voth, P. Salvador, J. J. Dannenberg, 
 V. G. Zakrzewski, S. Dapprich, A. D. Daniels, M. C. Strain, 
 O. Farkas, D. K. Malick, A. D. Rabuck, K. Raghavachari, 
 J. B. Foresman, J. V. Ortiz, Q. Cui, A. G. Baboul, S. Clifford, 
 J. Cioslowski, B. B. Stefanov, G. Liu, A. Liashenko, P. Piskorz, 
 I. Komaromi, R. L. Martin, D. J. Fox, T. Keith, M. A. Al-Laham, 
 C. Y. Peng, A. Nanayakkara, M. Challacombe, P. M. W. Gill, 
 B. Johnson, W. Chen, M. W. Wong, C. Gonzalez, and J. A. Pople, 
 Gaussian, Inc., Wallingford CT, 2004.
 
 ******************************************
 Gaussian 03:  IA32W-G03RevD.01 13-Oct-2005
                11-Mar-2008 
 ******************************************
 ---------
 # opt uff
 ---------
 1/6=10,10=10,14=-1,18=4000020,38=1,56=1,64=2/1,3;
 2/9=110,17=6,18=5,40=1/2;
 3/5=30,11=9,16=1,25=1,30=1/1;
 4/20=10,22=1001,24=3/2;
 7/44=-1/16;
 1/6=10,10=10,14=-1,18=4000020,64=2/3(2);
 2/9=110/2;
 99//99;
 2/9=110/2;
 3/5=30,11=9,16=1,25=1,30=1/1;
 4/16=2,20=10,22=1001,24=3/2;
 7/44=-1/16;
 1/6=10,10=10,14=-1,18=4000020,64=2/3(-4);
 2/9=110/2;
 99//99;
 ---------------
 fluoropropane-g
 ---------------
 Symbolic Z-matrix:
 Charge =  0 Multiplicity = 1
 C                    -0.50997  -0.79338   0.33379 
 C                    -0.48897   0.74162   0.30779 
 F                     0.79003  -1.29438   0.37479 
 H                    -1.06797  -1.15238   1.22879 
 H                    -1.03197  -1.18638  -0.56921 
 H                    -1.53697   1.12662   0.33479 
 H                     0.02603   1.11962   1.22279 
 C                     0.21603   1.29062  -0.94021 
 H                     0.20803   2.40462  -0.94521 
 H                     1.27903   0.96062  -0.98221 
 H                    -0.28897   0.94362  -1.87121 
 
 Include all MM classes
 MMInit generated parameter data with length LenPar=  1129.

 GradGradGradGradGradGradGradGradGradGradGradGradGradGradGradGradGradGrad
 Berny optimization.
 Initialization pass.
 No Z-matrix variables, so optimization will use Cartesian coordinates.
 Trust Radius=1.00D-01 FncErr=1.00D-07 GrdErr=1.00D-07
 Number of steps in this run=   2 maximum allowed number of steps=   2.
 GradGradGradGradGradGradGradGradGradGradGradGradGradGradGradGradGradGrad

                          Input orientation:                          
 ---------------------------------------------------------------------
 Center     Atomic     Atomic              Coordinates (Angstroms)
 Number     Number      Type              X           Y           Z
 ---------------------------------------------------------------------
    1          6      10061003       -0.509971   -0.793382    0.333794
    2          6      10061003       -0.488971    0.741618    0.307794
    3          9      10091000        0.790029   -1.294382    0.374794
    4          1      10011000       -1.067971   -1.152382    1.228794
    5          1      10011000       -1.031971   -1.186382   -0.569206
    6          1      10011000       -1.536971    1.126618    0.334794
    7          1      10011000        0.026029    1.119618    1.222794
    8          6      10061003        0.216029    1.290618   -0.940206
    9          1      10011000        0.208029    2.404618   -0.945206
   10          1      10011000        1.279029    0.960618   -0.982206
   11          1      10011000       -0.288971    0.943618   -1.871206
 ---------------------------------------------------------------------
                    Distance matrix (angstroms):
                    1          2          3          4          5
     1  C    0.000000
     2  C    1.535364   0.000000
     3  F    1.393801   2.405333   0.000000
     4  H    1.114123   2.184197   2.049791   0.000000
     5  H    1.114604   2.186587   2.054868   1.798682   0.000000
     6  H    2.177414   1.116807   3.358239   2.492597   2.534208
     7  H    2.176508   1.115945   2.670243   2.521677   3.106165
     8  C    2.548177   1.534904   2.956506   3.510195   2.798334
     9  H    3.518319   2.195766   3.970356   4.359668   3.817625
    10  H    2.829999   2.199519   2.676863   3.855087   3.181336
    11  H    2.815677   2.197463   3.349239   3.822310   2.604641
                    6          7          8          9         10
     6  H    0.000000
     7  H    1.797655   0.000000
     8  C    2.173828   2.178052   0.000000
     9  H    2.513306   2.526771   1.114040   0.000000
    10  H    3.113182   2.541125   1.113837   1.798206   0.000000
    11  H    2.541147   3.114970   1.114538   1.799724   1.802563
                   11
    11  H    0.000000
 Stoichiometry    C3H7F
 Framework group  C1[X(C3H7F)]
 Deg. of freedom    27
 Full point group                 C1
 Largest Abelian subgroup         C1      NOp   1
 Largest concise Abelian subgroup C1      NOp   1
                         Standard orientation:                         
 ---------------------------------------------------------------------
 Center     Atomic     Atomic              Coordinates (Angstroms)
 Number     Number      Type              X           Y           Z
 ---------------------------------------------------------------------
    1          6      10061003        0.807336    0.509497    0.299273
    2          6      10061003       -0.602144    0.660980   -0.290438
    3          9      10091000        1.406634   -0.656849   -0.173125
    4          1      10011000        1.436153    1.384097    0.014785
    5          1      10011000        0.757364    0.477764    1.412304
    6          1      10011000       -1.044209    1.628086    0.050944
    7          1      10011000       -0.534396    0.702813   -1.403539
    8          6      10061003       -1.530228   -0.489485    0.123108
    9          1      10011000       -2.549880   -0.352688   -0.304305
   10          1      10011000       -1.142869   -1.470328   -0.235407
   11          1      10011000       -1.631655   -0.544056    1.231679
 ---------------------------------------------------------------------
 Rotational constants (GHZ):     14.2538668      5.0211080      4.2415715
 Standard basis: Dummy (5D, 7F)
 There are    11 symmetry adapted basis functions of A   symmetry.
 Integral buffers will be    262144 words long.
 Raffenetti 1 integral format.
 Two-electron integral symmetry is turned on.
    11 basis functions,    11 primitive gaussians,    11 cartesian basis functions
     7 alpha electrons        7 beta electrons
       nuclear repulsion energy        23.5935812885 Hartrees.
 NAtoms=   11 NActive=   11 NUniq=   11 SFac= 7.50D-01 NAtFMM=   80 NAOKFM=F Big=F
 UFF calculation of energy and first derivatives.
 MO and density RWFs will be updated without deorthogonalization.
 NRF= 0 NRA=   0 NVA=  11 HaveQM=F
 Convergence limit is  0.750E-04 MaxStp=  5000 StMxLn= 1.00D-04 StpMin= 1.00D-06.
 Convergence criteria           0.00011250 0.00007500 0.00045000 0.00030000
  Step  NS  ND Rises OKQ   Scale  Max. Force  RMS Force Max. Disp.  RMS Disp.     Energy   Flag
     1   0   0   F    T  1.00D+00 0.00631699 0.00239133 0.00631699 0.00239133    0.0026268 ----
     2   0   0   F    F  6.77D-01 0.00631699 0.00239133 0.00631699 0.00239133    0.0024944 ----
     3   0   0   F    T  1.82D+00 0.00490908 0.00177120 0.00392949 0.00220413    0.0024686 ----
     4   0   0   F    F  9.76D-01 0.00490908 0.00177120 0.00714800 0.00400946    0.0023281 ----
     5   0   0   F    T  6.56D+00 0.00213227 0.00098931 0.00228460 0.00120736    0.0022828 ----
     6   0   0   F    F -3.36D-01 0.00213227 0.00098931 0.01498917 0.00792144    0.0022304 ----
     7   0   0   F    T  2.95D+00 0.00203408 0.00107523 0.00375659 0.00178516    0.0022124 ----
     8   0   0   F    F -8.39D-02 0.00203408 0.00107523 0.01107658 0.00526366    0.0021613 ----
     9   0   0   F    T  5.15D+00 0.00187272 0.00065727 0.00176304 0.00093615    0.0021608 ----
    10   0   0   T    F  3.61D-01 0.00187272 0.00065727 0.00908126 0.00482202    0.0021890 ----
    11   0   0   F    T  6.34D+00 0.00058852 0.00024286 0.00068610 0.00027480    0.0021476 ---+
    12   0   0   T    F  4.04D-01 0.00058852 0.00024286 0.00434925 0.00174197    0.0021505 ----
    13   0   0   F    T  2.62D+00 0.00052871 0.00019763 0.00053054 0.00026864    0.0021451 ---+
    14   0   0   F    F  1.87D-01 0.00052871 0.00019763 0.00138894 0.00070330    0.0021431 ----
    15   0   0   F    T  4.46D+00 0.00041797 0.00013652 0.00047198 0.00018725    0.0021431 ---+
    16   0   0   F    F -3.27D-01 0.00041797 0.00013652 0.00210371 0.00083460    0.0021424 ----
    17   0   0   F    T  2.59D+00 0.00036153 0.00013117 0.00052686 0.00021704    0.0021422 ---+
    18   0   0   F    F  3.48D-01 0.00036153 0.00013117 0.00136272 0.00056137    0.0021412 ----
    19   0   0   F    T  2.87D+00 0.00035352 0.00013416 0.00059670 0.00026377    0.0021412 ---+
    20   0   0   F    F  7.07D-01 0.00035352 0.00013416 0.00171222 0.00075689    0.0021400 ----
    21   0   0   F    T  4.14D+00 0.00029444 0.00013826 0.00068616 0.00031235    0.0021397 ----
    22   0   0   F    F -3.82D-01 0.00029444 0.00013826 0.00283833 0.00129206    0.0021392 ----
    23   0   0   F    T  5.55D+00 0.00018796 0.00008455 0.00031529 0.00014386    0.0021389 --++
    24   0   0   F    F  2.97D-01 0.00018796 0.00008455 0.00175021 0.00079857    0.0021381 ----
    25   0   0   F    T  8.02D+00 0.00018196 0.00007288 0.00029110 0.00012919    0.0021381 -+++
    26   0   0   T    F  2.41D-01 0.00018196 0.00007288 0.00233455 0.00103610    0.0021396 -+--
    27   0   0   F    T  2.89D+00 0.00013383 0.00005303 0.00020874 0.00008656    0.0021379 -+++
    28   0   0   F    F  2.13D+00 0.00013383 0.00005303 0.00060273 0.00024994    0.0021377 -+-+
    29   0   0   F    T  1.92D+00 0.00046234 0.00011296 0.00095422 0.00040864    0.0021375 ----
    30   0   0   F    F  5.06D-01 0.00046234 0.00011296 0.00182917 0.00078334    0.0021369 ----
    31   0   0   F    T  6.77D+00 0.00020825 0.00007047 0.00041729 0.00017411    0.0021369 -+++
    32   0   0   F    F  1.10D+00 0.00020825 0.00007047 0.00282709 0.00117958    0.0021360 -+--
    33   0   0   F    T  3.88D+00 0.00031921 0.00013336 0.00148121 0.00063759    0.0021357 ----
    34   0   0   F    F -2.61D-01 0.00031921 0.00013336 0.00574746 0.00247400    0.0021350 ----
    35   0   0   F    T  6.87D+00 0.00021352 0.00008391 0.00058117 0.00026618    0.0021349 ---+
    36   0   0   T    F  3.06D-01 0.00021352 0.00008391 0.00399026 0.00182758    0.0021359 ----
    37   0   0   F    T  3.52D+00 0.00014390 0.00006211 0.00035080 0.00015877    0.0021346 -+++
    38   0   0   F    F  4.54D-01 0.00014390 0.00006211 0.00123390 0.00055845    0.0021343 -+--
    39   0   0   F    T  5.65D+00 0.00020296 0.00005664 0.00031608 0.00014377    0.0021343 -+++
    40   0   0   T    F  2.99D-01 0.00020296 0.00005664 0.00178482 0.00081186    0.0021347 -+--
    41   0   0   F    T  8.13D+00 0.00005334 0.00002149 0.00006641 0.00002982    0.0021342 ====
 Energy=    0.002134201402 NIter=   0.
 Dipole moment=       0.000000       0.000000       0.000000
 ***** Axes restored to original set *****
 -------------------------------------------------------------------
 Center     Atomic                   Forces (Hartrees/Bohr)
 Number     Number              X              Y              Z
 -------------------------------------------------------------------
    1          6          -0.000009703   -0.000030522    0.000001573
    2          6           0.000013785    0.000043373   -0.000038003
    3          9           0.000017248    0.000015136    0.000008468
    4          1          -0.000009265   -0.000013111    0.000016460
    5          1           0.000023703    0.000025408    0.000014443
    6          1          -0.000000679    0.000006088    0.000020639
    7          1          -0.000045461   -0.000021906   -0.000027969
    8          6           0.000020599   -0.000010875   -0.000022384
    9          1           0.000010091   -0.000029399    0.000029303
   10          1          -0.000004746   -0.000008306   -0.000018198
   11          1          -0.000015572    0.000024115    0.000015669
 -------------------------------------------------------------------
 Cartesian Forces:  Max     0.000045461 RMS     0.000021490

 GradGradGradGradGradGradGradGradGradGradGradGradGradGradGradGradGradGrad
 Berny optimization.
 Search for a local minimum.
 Step number   1 out of a maximum of   2
 All quantities printed in internal units (Hartrees-Bohrs-Radians)
 Second derivative matrix not updated -- unit matrix used.
 RFO step:  Lambda=-1.52395991D-08.
 Linear search not attempted -- first point.
 TrRot=  0.000000  0.000000  0.000000  0.000000  0.000000  0.000000
 Variable       Old X    -DE/DX   Delta X   Delta X   Delta X     New X
                                 (Linear)    (Quad)   (Total)
    X1       -0.95879  -0.00001   0.00000  -0.00001  -0.00001  -0.95880
    Y1       -1.48011  -0.00003   0.00000  -0.00003  -0.00003  -1.48014
    Z1        0.61214   0.00000   0.00000   0.00000   0.00000   0.61214
    X2       -0.91259   0.00001   0.00000   0.00001   0.00001  -0.91258
    Y2        1.40566   0.00004   0.00000   0.00004   0.00004   1.40570
    Z2        0.57943  -0.00004   0.00000  -0.00004  -0.00004   0.57939
    X3        1.47508   0.00002   0.00000   0.00002   0.00002   1.47509
    Y3       -2.42817   0.00002   0.00000   0.00002   0.00002  -2.42816
    Z3        0.73193   0.00001   0.00000   0.00001   0.00001   0.73194
    X4       -2.02365  -0.00001   0.00000  -0.00001  -0.00001  -2.02366
    Y4       -2.14023  -0.00001   0.00000  -0.00001  -0.00001  -2.14025
    Z4        2.29530   0.00002   0.00000   0.00002   0.00002   2.29531
    X5       -1.91040   0.00002   0.00000   0.00002   0.00002  -1.91037
    Y5       -2.21587   0.00003   0.00000   0.00003   0.00003  -2.21584
    Z5       -1.10853   0.00001   0.00000   0.00001   0.00001  -1.10851
    X6       -2.88565   0.00000   0.00000   0.00000   0.00000  -2.88565
    Y6        2.12394   0.00001   0.00000   0.00001   0.00001   2.12395
    Z6        0.62630   0.00002   0.00000   0.00002   0.00002   0.62632
    X7        0.08428  -0.00005   0.00000  -0.00005  -0.00005   0.08424
    Y7        2.10723  -0.00002   0.00000  -0.00002  -0.00002   2.10720
    Z7        2.28999  -0.00003   0.00000  -0.00003  -0.00003   2.28996
    X8        0.40186   0.00002   0.00000   0.00002   0.00002   0.40188
    Y8        2.42267  -0.00001   0.00000  -0.00001  -0.00001   2.42266
    Z8       -1.77841  -0.00002   0.00000  -0.00002  -0.00002  -1.77843
    X9        0.36097   0.00001   0.00000   0.00001   0.00001   0.36098
    Y9        4.52054  -0.00003   0.00000  -0.00003  -0.00003   4.52051
    Z9       -1.75415   0.00003   0.00000   0.00003   0.00003  -1.75412
   X10        2.40379   0.00000   0.00000   0.00000   0.00000   2.40378
   Y10        1.79395  -0.00001   0.00000  -0.00001  -0.00001   1.79394
   Z10       -1.83009  -0.00002   0.00000  -0.00002  -0.00002  -1.83011
   X11       -0.58096  -0.00002   0.00000  -0.00002  -0.00002  -0.58098
   Y11        1.75316   0.00002   0.00000   0.00002   0.00002   1.75319
   Z11       -3.50845   0.00002   0.00000   0.00002   0.00002  -3.50843
         Item               Value     Threshold  Converged?
 Maximum Force            0.000045     0.000450     YES
 RMS     Force            0.000021     0.000300     YES
 Maximum Displacement     0.000045     0.001800     YES
 RMS     Displacement     0.000021     0.001200     YES
 Predicted change in Energy=-7.619799D-09
 Optimization completed.
    -- Stationary point found.
 GradGradGradGradGradGradGradGradGradGradGradGradGradGradGradGradGradGrad

                          Input orientation:                          
 ---------------------------------------------------------------------
 Center     Atomic     Atomic              Coordinates (Angstroms)
 Number     Number      Type              X           Y           Z
 ---------------------------------------------------------------------
    1          6      10061003       -0.507372   -0.783242    0.323930
    2          6      10061003       -0.482922    0.743841    0.306620
    3          9      10091000        0.780577   -1.284932    0.387322
    4          1      10011000       -1.070869   -1.132563    1.214619
    5          1      10011000       -1.010938   -1.172586   -0.586606
    6          1      10011000       -1.527021    1.123940    0.331424
    7          1      10011000        0.044601    1.115096    1.211809
    8          6      10061003        0.212655    1.282022   -0.941094
    9          1      10011000        0.191016    2.392168   -0.928257
   10          1      10011000        1.272029    0.949318   -0.968442
   11          1      10011000       -0.307432    0.927734   -1.856592
 ---------------------------------------------------------------------
                    Distance matrix (angstroms):
                    1          2          3          4          5
     1  C    0.000000
     2  C    1.527377   0.000000
     3  F    1.383663   2.391414   0.000000
     4  H    1.110352   2.165880   2.033590   0.000000
     5  H    1.110966   2.179300   2.042225   1.802667   0.000000
     6  H    2.162657   1.111411   3.336285   2.465749   2.526491
     7  H    2.167185   1.111521   2.642267   2.509234   3.095473
     8  C    2.526667   1.526519   2.945587   3.482063   2.765492
     9  H    3.484100   2.167048   3.949607   4.313700   3.777419
    10  H    2.799689   2.178958   2.659228   3.819576   3.140098
    11  H    2.778865   2.178096   3.333887   3.776241   2.553258
                    6          7          8          9         10
     6  H    0.000000
     7  H    1.801431   0.000000
     8  C    2.161196   2.165895   0.000000
     9  H    2.479284   2.496445   1.110431   0.000000
    10  H    3.091089   2.507500   1.110727   1.803336   0.000000
    11  H    2.512630   3.094207   1.110922   1.804113   1.812174
                   11
    11  H    0.000000
 Stoichiometry    C3H7F
 Framework group  C1[X(C3H7F)]
 Deg. of freedom    27
 Full point group                 C1
 Largest Abelian subgroup         C1      NOp   1
 Largest concise Abelian subgroup C1      NOp   1
                         Standard orientation:                         
 ---------------------------------------------------------------------
 Center     Atomic     Atomic              Coordinates (Angstroms)
 Number     Number      Type              X           Y           Z
 ---------------------------------------------------------------------
    1          6      10061003        0.794914    0.503270    0.304590
    2          6      10061003       -0.601620    0.651772   -0.295841
    3          9      10091000        1.405697   -0.642329   -0.174024
    4          1      10011000        1.412563    1.381748    0.022335
    5          1      10011000        0.736519    0.455088    1.412973
    6          1      10011000       -1.042118    1.614171    0.043253
    7          1      10011000       -0.526485    0.674471   -1.404587
    8          6      10061003       -1.520702   -0.491745    0.125959
    9          1      10011000       -2.529725   -0.337306   -0.311165
   10          1      10011000       -1.122904   -1.463102   -0.237272
   11          1      10011000       -1.614676   -0.523897    1.232433
 ---------------------------------------------------------------------
 Rotational constants (GHZ):     14.4962388      5.0651016      4.3019880
 1|1|UNPC-UNK|FOpt|UFF|ZDO|C3H7F1|PCUSER|11-Mar-2008|0||# opt uff||fluo
 ropropane-g||0,1|C,-0.5073715994,-0.7832422546,0.3239304518|C,-0.48292
 21675,0.7438406107,0.3066204275|F,0.7805766124,-1.2849323222,0.3873219
 701|H,-1.0708694151,-1.1325633096,1.2146194187|H,-1.0109378863,-1.1725
 86417,-0.5866064417|H,-1.5270212751,1.1239403473,0.3314244287|H,0.0446
 009287,1.1150956648,1.2118094529|C,0.2126552897,1.2820224656,-0.941093
 9318|H,0.1910161159,2.3921682024,-0.92825692|H,1.2720292057,0.94931764
 36,-0.9684418346|H,-0.3074322989,0.927733519,-1.8565917015||Version=IA
 32W-G03RevD.01|HF=0.0021342|RMSD=0.000e+000|RMSF=2.149e-005|Thermal=0.
 |Dipole=0.,0.,0.|PG=C01 [X(C3H7F1)]||@


 IT IS A SIMPLE TASK TO MAKE THINGS COMPLEX,
 BUT A COMPLEX TASK TO MAKE THEM SIMPLE.
 Job cpu time:  0 days  0 hours  0 minutes  3.0 seconds.
 File lengths (MBytes):  RWF=     11 Int=      0 D2E=      0 Chk=      4 Scr=      1
 Normal termination of Gaussian 03 at Tue Mar 11 14:05:28 2008.
