 Entering Link 1 = C:\G03W\l1.exe PID=      2696.
  
 Copyright (c) 1988,1990,1992,1993,1995,1998,2003,2004, Gaussian, Inc.
                  All Rights Reserved.
  
 This is the Gaussian(R) 03 program.  It is based on the
 the Gaussian(R) 98 system (copyright 1998, Gaussian, Inc.),
 the Gaussian(R) 94 system (copyright 1995, Gaussian, Inc.),
 the Gaussian 92(TM) system (copyright 1992, Gaussian, Inc.),
 the Gaussian 90(TM) system (copyright 1990, Gaussian, Inc.),
 the Gaussian 88(TM) system (copyright 1988, Gaussian, Inc.),
 the Gaussian 86(TM) system (copyright 1986, Carnegie Mellon
 University), and the Gaussian 82(TM) system (copyright 1983,
 Carnegie Mellon University). Gaussian is a federally registered
 trademark of Gaussian, Inc.
  
 This software contains proprietary and confidential information,
 including trade secrets, belonging to Gaussian, Inc.
  
 This software is provided under written license and may be
 used, copied, transmitted, or stored only in accord with that
 written license.
  
 The following legend is applicable only to US Government
 contracts under FAR:
  
                    RESTRICTED RIGHTS LEGEND
  
 Use, reproduction and disclosure by the US Government is
 subject to restrictions as set forth in subparagraphs (a)
 and (c) of the Commercial Computer Software - Restricted
 Rights clause in FAR 52.227-19.
  
 Gaussian, Inc.
 340 Quinnipiac St., Bldg. 40, Wallingford CT 06492
  
  
 ---------------------------------------------------------------
 Warning -- This program may not be used in any manner that
 competes with the business of Gaussian, Inc. or will provide
 assistance to any competitor of Gaussian, Inc.  The licensee
 of this program is prohibited from giving any competitor of
 Gaussian, Inc. access to this program.  By using this program,
 the user acknowledges that Gaussian, Inc. is engaged in the
 business of creating and licensing software in the field of
 computational chemistry and represents and warrants to the
 licensee that it is not a competitor of Gaussian, Inc. and that
 it will not use this program in any manner prohibited above.
 ---------------------------------------------------------------
  

 Cite this work as:
 Gaussian 03, Revision D.01,
 M. J. Frisch, G. W. Trucks, H. B. Schlegel, G. E. Scuseria, 
 M. A. Robb, J. R. Cheeseman, J. A. Montgomery, Jr., T. Vreven, 
 K. N. Kudin, J. C. Burant, J. M. Millam, S. S. Iyengar, J. Tomasi, 
 V. Barone, B. Mennucci, M. Cossi, G. Scalmani, N. Rega, 
 G. A. Petersson, H. Nakatsuji, M. Hada, M. Ehara, K. Toyota, 
 R. Fukuda, J. Hasegawa, M. Ishida, T. Nakajima, Y. Honda, O. Kitao, 
 H. Nakai, M. Klene, X. Li, J. E. Knox, H. P. Hratchian, J. B. Cross, 
 V. Bakken, C. Adamo, J. Jaramillo, R. Gomperts, R. E. Stratmann, 
 O. Yazyev, A. J. Austin, R. Cammi, C. Pomelli, J. W. Ochterski, 
 P. Y. Ayala, K. Morokuma, G. A. Voth, P. Salvador, J. J. Dannenberg, 
 V. G. Zakrzewski, S. Dapprich, A. D. Daniels, M. C. Strain, 
 O. Farkas, D. K. Malick, A. D. Rabuck, K. Raghavachari, 
 J. B. Foresman, J. V. Ortiz, Q. Cui, A. G. Baboul, S. Clifford, 
 J. Cioslowski, B. B. Stefanov, G. Liu, A. Liashenko, P. Piskorz, 
 I. Komaromi, R. L. Martin, D. J. Fox, T. Keith, M. A. Al-Laham, 
 C. Y. Peng, A. Nanayakkara, M. Challacombe, P. M. W. Gill, 
 B. Johnson, W. Chen, M. W. Wong, C. Gonzalez, and J. A. Pople, 
 Gaussian, Inc., Wallingford CT, 2004.
 
 ******************************************
 Gaussian 03:  IA32W-G03RevD.01 13-Oct-2005
                13-Dec-2007 
 ******************************************
 ---------
 # opt uff
 ---------
 1/6=10,10=10,14=-1,18=4000020,38=1,56=1,64=2/1,3;
 2/9=110,17=6,18=5,40=1/2;
 3/5=30,11=9,16=1,25=1,30=1/1;
 4/20=10,22=1001,24=3/2;
 7/44=-1/16;
 1/6=10,10=10,14=-1,18=4000020,64=2/3(2);
 2/9=110/2;
 99//99;
 2/9=110/2;
 3/5=30,11=9,16=1,25=1,30=1/1;
 4/16=2,20=10,22=1001,24=3/2;
 7/44=-1/16;
 1/6=10,10=10,14=-1,18=4000020,64=2/3(-4);
 2/9=110/2;
 99//99;
 ------------
 adrenaline-B
 ------------
 Symbolic Z-matrix:
 Charge =  1 Multiplicity = 1
 C                    -0.94534  -1.96756  -0.9019 
 C                    -1.02534  -1.13556   0.3861 
 H                    -2.06234  -0.74056   0.5141 
 O                    -0.77134  -1.96456   1.5011 
 C                    -0.04034   0.01544   0.3571 
 N                    -2.04634  -2.98856  -0.8109 
 H                    -1.11534  -1.32056  -1.7939 
 H                     0.03866  -2.48256  -0.9949 
 C                     1.33666  -0.21456   0.4041 
 C                     2.23266   0.85344   0.3731 
 C                     1.79066   2.17744   0.2931 
 C                     0.40966   2.42444   0.2421 
 C                    -0.47534   1.34144   0.2741 
 O                    -0.06134   3.70144   0.1611 
 O                     2.67466   3.21344   0.2631 
 H                     0.70366   4.24944   0.1251 
 H                     3.52266   2.82344   0.1451 
 H                    -0.78034  -1.41756   2.2681 
 H                    -1.92234  -3.56556   0.0511 
 H                    -2.96434  -2.50756  -0.6839 
 C                    -2.10534  -3.88456  -2.0159 
 H                     1.72566  -1.24456   0.4661 
 H                     3.31566   0.64844   0.4121 
 H                    -1.55634   1.55344   0.2291 
 H                    -1.15034  -4.44656  -2.1229 
 H                    -2.29634  -3.28256  -2.9329 
 H                    -2.93734  -4.60956  -1.8799 
 
 I=    6 IAn=  7 Valence= 4.
          JB=  1 J=    1 IAn=  6 IBT= 1 Dist= 1.50D+00
          JB=  2 J=   19 IAn=  1 IBT= 1 Dist= 1.04D+00
          JB=  3 J=   20 IAn=  1 IBT= 1 Dist= 1.04D+00
          JB=  4 J=   21 IAn=  6 IBT= 1 Dist= 1.50D+00
 I=    9 IAn=  6 Valence=36.
          JB=  1 J=    5 IAn=  6 IBT=12 Dist= 1.40D+00
          JB=  2 J=   10 IAn=  6 IBT=12 Dist= 1.39D+00
          JB=  3 J=   22 IAn=  1 IBT= 1 Dist= 1.10D+00
 I=   10 IAn=  6 Valence=36.
          JB=  1 J=    9 IAn=  6 IBT=12 Dist= 1.39D+00
          JB=  2 J=   11 IAn=  6 IBT=12 Dist= 1.40D+00
          JB=  3 J=   23 IAn=  1 IBT= 1 Dist= 1.10D+00
 I=   11 IAn=  6 Valence=36.
          JB=  1 J=   10 IAn=  6 IBT=12 Dist= 1.40D+00
          JB=  2 J=   12 IAn=  6 IBT=12 Dist= 1.40D+00
          JB=  3 J=   15 IAn=  8 IBT=12 Dist= 1.36D+00
 I=   12 IAn=  6 Valence=36.
          JB=  1 J=   11 IAn=  6 IBT=12 Dist= 1.40D+00
          JB=  2 J=   13 IAn=  6 IBT=12 Dist= 1.40D+00
          JB=  3 J=   14 IAn=  8 IBT=12 Dist= 1.36D+00
 I=   13 IAn=  6 Valence=36.
          JB=  1 J=    5 IAn=  6 IBT=12 Dist= 1.40D+00
          JB=  2 J=   12 IAn=  6 IBT=12 Dist= 1.40D+00
          JB=  3 J=   24 IAn=  1 IBT= 1 Dist= 1.10D+00
 I=   14 IAn=  8 Valence=24.
          JB=  1 J=   12 IAn=  6 IBT=12 Dist= 1.36D+00
          JB=  2 J=   16 IAn=  1 IBT= 1 Dist= 9.42D-01
 I=   15 IAn=  8 Valence=24.
          JB=  1 J=   11 IAn=  6 IBT=12 Dist= 1.36D+00
          JB=  2 J=   17 IAn=  1 IBT= 1 Dist= 9.41D-01
 Include all MM classes
 MMInit generated parameter data with length LenPar=  2936.

 GradGradGradGradGradGradGradGradGradGradGradGradGradGradGradGradGradGrad
 Berny optimization.
 Initialization pass.
 No Z-matrix variables, so optimization will use Cartesian coordinates.
 Trust Radius=1.00D-01 FncErr=1.00D-07 GrdErr=1.00D-07
 Number of steps in this run=   2 maximum allowed number of steps=   2.
 GradGradGradGradGradGradGradGradGradGradGradGradGradGradGradGradGradGrad

                          Input orientation:                          
 ---------------------------------------------------------------------
 Center     Atomic     Atomic              Coordinates (Angstroms)
 Number     Number      Type              X           Y           Z
 ---------------------------------------------------------------------
    1          6      10061003       -0.945343   -1.967556   -0.901899
    2          6      10061003       -1.025343   -1.135556    0.386101
    3          1      10011000       -2.062343   -0.740556    0.514101
    4          8      10081003       -0.771343   -1.964556    1.501101
    5          6      10061000       -0.040343    0.015444    0.357101
    6          7      10071000       -2.046343   -2.988556   -0.810899
    7          1      10011000       -1.115343   -1.320556   -1.793899
    8          1      10011000        0.038657   -2.482556   -0.994899
    9          6      10061000        1.336657   -0.214556    0.404101
   10          6      10061000        2.232657    0.853444    0.373101
   11          6      10061000        1.790657    2.177444    0.293101
   12          6      10061000        0.409657    2.424444    0.242101
   13          6      10061000       -0.475343    1.341444    0.274101
   14          8      10081000       -0.061343    3.701444    0.161101
   15          8      10081000        2.674657    3.213444    0.263101
   16          1      10011000        0.703657    4.249444    0.125101
   17          1      10011000        3.522657    2.823444    0.145101
   18          1      10011000       -0.780343   -1.417556    2.268101
   19          1      10011000       -1.922343   -3.565556    0.051101
   20          1      10011000       -2.964343   -2.507556   -0.683899
   21          6      10061003       -2.105343   -3.884556   -2.015899
   22          1      10011000        1.725657   -1.244556    0.466101
   23          1      10011000        3.315657    0.648444    0.412101
   24          1      10011000       -1.556343    1.553444    0.229101
   25          1      10011000       -1.150343   -4.446556   -2.122899
   26          1      10011000       -2.296343   -3.282556   -2.932899
   27          1      10011000       -2.937343   -4.609556   -1.879899
 ---------------------------------------------------------------------
                    Distance matrix (angstroms):
                    1          2          3          4          5
     1  C    0.000000
     2  C    1.535437   0.000000
     3  H    2.181347   1.117040   0.000000
     4  O    2.409293   1.412438   2.034460   0.000000
     5  C    2.517220   1.515212   2.164410   2.400728   0.000000
     6  N    1.504301   2.430814   2.609480   2.831880   3.796350
     7  H    1.114977   2.189686   2.561264   3.374922   2.750877
     8  H    1.114509   2.203104   3.118629   2.674778   2.841505
     9  C    3.160090   2.535273   3.441217   2.951199   1.396867
    10  C    4.436592   3.817179   4.583420   4.270541   2.422608
    11  C    5.108302   4.349077   4.838303   5.017895   2.833884
    12  C    4.736499   3.841036   4.025170   4.716266   2.453366
    13  C    3.543072   2.539798   2.628858   3.538754   1.397995
    14  O    5.835151   4.937255   4.884667   5.865429   3.691267
    15  O    6.426849   5.711298   6.175458   6.341864   4.196101
    16  H    6.513449   5.661783   5.718582   6.533207   4.305127
    17  H    6.634223   6.034573   6.635547   6.572832   4.541451
    18  H    3.221587   1.918716   2.275603   0.942114   2.500602
    19  H    2.101509   2.611845   2.866111   2.447550   4.056984
    20  H    2.101306   2.605188   2.317563   3.142980   3.999873
    21  C    2.502296   3.806968   4.035776   4.223179   5.010524
    22  H    3.086810   2.754321   3.821683   2.797255   2.172150
    23  H    5.169736   4.693358   5.555413   4.971646   3.415619
    24  H    3.748323   2.745420   2.366368   3.822373   2.163350
    25  H    2.770976   4.156131   4.638960   4.408780   5.224169
    26  H    2.771171   4.152206   4.289327   4.870637   5.175948
    27  H    3.450321   4.567185   4.633144   4.808195   5.898085
                    6          7          8          9         10
     6  N    0.000000
     7  H    2.148319   0.000000
     8  H    2.153397   1.822186   0.000000
     9  C    4.540483   3.473722   2.964090   0.000000
    10  C    5.871342   4.542166   4.220658   1.394418   0.000000
    11  C    6.529084   5.003640   5.142378   2.437232   1.398120
    12  C    6.036664   4.527245   5.074097   2.801766   2.410089
    13  C    4.732247   3.431103   4.061716   2.391941   2.753400
    14  O    7.045645   5.491213   6.291915   4.165154   3.663125
    15  O    7.868044   6.257196   6.401209   3.682568   2.403552
    16  H    7.799182   6.165730   6.856854   4.517281   3.732581
    17  H    8.105988   6.514868   6.449147   3.751682   2.365795
    18  H    3.681173   4.076945   3.528761   3.066495   4.222160
    19  H    1.044677   3.015841   2.472352   4.687738   6.074148
    20  H    1.044133   2.461680   3.019165   4.994016   6.278724
    21  C    1.502771   2.757441   2.757677   5.583249   6.853773
    22  H    4.347442   3.631068   2.552084   1.102753   2.160394
    23  H    6.593523   5.327021   4.745686   2.158998   1.102921
    24  H    4.685239   3.542158   4.509046   3.394981   3.855808
    25  H    2.156368   3.143460   2.558007   5.520935   6.764962
    26  H    2.156808   2.557641   3.138163   5.809207   6.967638
    27  H    2.136418   3.760931   3.763500   6.542152   7.851705
                   11         12         13         14         15
    11  C    0.000000
    12  C    1.403842   0.000000
    13  C    2.415370   1.398977   0.000000
    14  O    2.402062   1.363500   2.398701   0.000000
    15  O    1.362223   2.398580   3.664288   2.781051   0.000000
    16  H    2.345842   1.852228   3.141450   0.941714   2.230960
    17  H    1.854466   3.139965   4.265791   3.690013   0.940812
    18  H    4.840939   4.503525   3.417769   5.582165   6.115816
    19  H    6.843024   6.430770   5.120760   7.502314   8.193424
    20  H    6.746390   6.046981   4.682701   6.906020   8.088570
    21  C    7.566911   7.157323   5.933976   8.152586   8.855724
    22  H    3.426987   3.904304   3.401273   5.267761   4.562409
    23  H    2.162782   3.409972   3.856290   4.559379   2.648076
    24  H    3.405273   2.150341   1.102511   2.617929   4.545120
    25  H    7.639628   7.432191   6.300966   8.531851   8.888151
    26  H    7.544683   7.069152   5.914581   7.958914   8.781986
    27  H    8.552151   8.073565   6.790844   9.028277   9.863383
                   16         17         18         19         20
    16  H    0.000000
    17  H    3.159215   0.000000
    18  H    6.237756   6.403828   0.000000
    19  H    8.244730   8.395009   3.291376   0.000000
    20  H    7.730831   8.437296   3.830439   1.656911   0.000000
    21  C    8.867712   9.018956   5.118044   2.099462   2.099579
    22  H    5.598643   4.458797   3.091467   4.343636   4.991369
    23  H    4.457815   2.201082   4.948768   6.732367   7.113364
    24  H    3.519493   5.236048   3.685992   5.135153   4.394059
    25  H    9.171218   8.934968   5.347207   2.469498   3.020106
    26  H    8.665009   8.978757   5.729475   3.020633   2.470799
    27  H    9.785642  10.053940   5.661044   2.418454   2.418584
                   21         22         23         24         25
    21  C    0.000000
    22  H    5.273185   0.000000
    23  H    7.471982   2.472744   0.000000
    24  H    5.908745   4.319317   4.958719   0.000000
    25  H    1.113247   5.022659   7.233976   6.457301   0.000000
    26  H    1.113451   5.646515   7.624718   5.825182   1.823270
    27  H    1.111911   6.210516   8.485272   6.658649   1.810797
                   26         27
    26  H    0.000000
    27  H    1.811248   0.000000
 Stoichiometry    C9H14NO3(1+)
 Framework group  C1[X(C9H14NO3)]
 Deg. of freedom    75
 Full point group                 C1
 Largest Abelian subgroup         C1      NOp   1
 Largest concise Abelian subgroup C1      NOp   1
                         Standard orientation:                         
 ---------------------------------------------------------------------
 Center     Atomic     Atomic              Coordinates (Angstroms)
 Number     Number      Type              X           Y           Z
 ---------------------------------------------------------------------
    1          6      10061003       -2.301543   -0.041649   -0.528713
    2          6      10061003       -1.403011    0.212455    0.690155
    3          1      10011000       -1.542036    1.261855    1.046819
    4          8      10081003       -1.799493   -0.628494    1.753447
    5          6      10061000        0.055546   -0.023918    0.354584
    6          7      10071000       -3.693719    0.347052   -0.111965
    7          1      10011000       -1.982249    0.594949   -1.386599
    8          1      10011000       -2.285077   -1.114063   -0.831678
    9          6      10061000        0.530556   -1.307279    0.074252
   10          6      10061000        1.874556   -1.510748   -0.236658
   11          6      10061000        2.784343   -0.450027   -0.280238
   12          6      10061000        2.321309    0.846093   -0.003753
   13          6      10061000        0.969909    1.032489    0.306266
   14          8      10081000        3.176573    1.907435   -0.038505
   15          8      10081000        4.095249   -0.659892   -0.585415
   16          1      10011000        4.009997    1.550123   -0.292589
   17          1      10011000        4.149108   -1.549706   -0.886180
   18          1      10011000       -1.201515   -0.483400    2.466854
   19          1      10011000       -3.980288   -0.209699    0.724250
   20          1      10011000       -3.701657    1.340409    0.209582
   21          6      10061003       -4.699919    0.161925   -1.212698
   22          1      10011000       -0.155466   -2.170372    0.096817
   23          1      10011000        2.227800   -2.532756   -0.453804
   24          1      10011000        0.622603    2.057486    0.516718
   25          1      10011000       -4.740223   -0.907477   -1.519414
   26          1      10011000       -4.433720    0.797852   -2.087060
   27          1      10011000       -5.700361    0.466998   -0.835350
 ---------------------------------------------------------------------
 Rotational constants (GHZ):      1.8183507      0.3370233      0.3223578
 Standard basis: Dummy (5D, 7F)
 There are    27 symmetry adapted basis functions of A   symmetry.
 Integral buffers will be    262144 words long.
 Raffenetti 1 integral format.
 Two-electron integral symmetry is turned on.
    27 basis functions,    27 primitive gaussians,    27 cartesian basis functions
    19 alpha electrons       19 beta electrons
       nuclear repulsion energy       123.3093890697 Hartrees.
 NAtoms=   27 NActive=   27 NUniq=   27 SFac= 7.50D-01 NAtFMM=   80 NAOKFM=F Big=F
 UFF calculation of energy and first derivatives.
 MO and density RWFs will be updated without deorthogonalization.
 NRF= 0 NRA=   0 NVA=  27 HaveQM=F
 Convergence limit is  0.750E-04 MaxStp=  5000 StMxLn= 1.00D-04 StpMin= 1.00D-06.
 Convergence criteria           0.00011250 0.00007500 0.00045000 0.00030000
  Step  NS  ND Rises OKQ   Scale  Max. Force  RMS Force Max. Disp.  RMS Disp.     Energy   Flag
     1   0   0   F    T  1.00D+00 0.08919055 0.02429681 0.08919055 0.02429681    0.0914006 ----
     2   0   0   F    F -1.44D-01 0.08919055 0.02429681 0.08919055 0.02429681    0.0714708 ----
     3   0   0   F    T  2.13D+00 0.03207575 0.00913734 0.03441283 0.00976213    0.0708829 ----
     4   0   0   F    F -1.83D-01 0.03207575 0.00913734 0.07328760 0.02079000    0.0652895 ----
     5   0   0   F    T  1.70D+00 0.03108534 0.00755407 0.04792946 0.00999480    0.0649919 ----
     6   0   0   F    F -1.76D-01 0.03108534 0.00755407 0.08143098 0.01698092    0.0619293 ----
     7   0   0   F    T  1.86D+00 0.02089774 0.00540325 0.03433742 0.00750582    0.0617854 ----
     8   0   0   F    F -2.87D-01 0.02089774 0.00540325 0.06398212 0.01398586    0.0604740 ----
     9   0   0   F    T  2.22D+00 0.01085992 0.00331669 0.01676791 0.00449559    0.0602242 ----
    10   0   0   F    F -2.40D-01 0.01085992 0.00331669 0.03717325 0.00996639    0.0595492 ----
    11   0   0   F    T  2.04D+00 0.00643006 0.00254454 0.01190164 0.00370691    0.0594745 ----
    12   0   0   F    F -6.49D-02 0.00643006 0.00254454 0.02431244 0.00757240    0.0589756 ----
    13   0   0   F    T  1.61D+00 0.00790228 0.00251239 0.01273178 0.00440092    0.0589732 ----
    14   0   0   F    F -1.17D-01 0.00790228 0.00251239 0.02048403 0.00708060    0.0586163 ----
    15   0   0   F    T  1.82D+00 0.00687395 0.00200871 0.00795013 0.00344275    0.0586099 ----
    16   0   0   F    F -5.96D-02 0.00687395 0.00200871 0.01443623 0.00625151    0.0583319 ----
    17   0   0   F    T  2.59D+00 0.00396831 0.00143878 0.00594561 0.00227349    0.0583308 ----
    18   0   0   F    F -3.27D-01 0.00396831 0.00143878 0.01537474 0.00587901    0.0582194 ----
    19   0   0   F    T  1.95D+00 0.00442660 0.00121502 0.00537634 0.00202708    0.0581849 ----
    20   0   0   F    F  2.75D-01 0.00442660 0.00121502 0.01049238 0.00395602    0.0580431 ----
    21   0   0   F    T  2.06D+00 0.00318425 0.00123814 0.00725414 0.00244181    0.0580362 ----
    22   0   0   F    F -3.94D-02 0.00318425 0.00123814 0.01497958 0.00504227    0.0579132 ----
    23   0   0   F    T  2.19D+00 0.00358836 0.00109962 0.00682518 0.00221616    0.0579130 ----
    24   0   0   F    F -2.03D-01 0.00358836 0.00109962 0.01491670 0.00484351    0.0578333 ----
    25   0   0   F    T  1.51D+00 0.00472796 0.00111883 0.00803297 0.00255395    0.0578278 ----
    26   0   0   F    F  2.40D-01 0.00472796 0.00111883 0.01213893 0.00385937    0.0577364 ----
    27   0   0   F    T  2.24D+00 0.00317891 0.00096285 0.00675167 0.00213267    0.0577328 ----
    28   0   0   F    F -2.30D-01 0.00317891 0.00096285 0.01515288 0.00478638    0.0576737 ----
    29   0   0   F    T  2.09D+00 0.00281145 0.00082479 0.00498258 0.00176277    0.0576678 ----
    30   0   0   F    F  1.56D-01 0.00281145 0.00082479 0.01041236 0.00368375    0.0576025 ----
    31   0   0   F    T  1.62D+00 0.00362100 0.00097180 0.00665044 0.00262279    0.0576013 ----
    32   0   0   F    F -2.10D-01 0.00362100 0.00097180 0.01079825 0.00425861    0.0575557 ----
    33   0   0   F    T  2.54D+00 0.00169338 0.00064544 0.00383078 0.00132719    0.0575522 ----
    34   0   0   F    F -1.62D-01 0.00169338 0.00064544 0.00971502 0.00336582    0.0575177 ----
    35   0   0   F    T  2.08D+00 0.00215756 0.00061593 0.00401222 0.00135741    0.0575164 ----
    36   0   0   F    F  1.24D-01 0.00215756 0.00061593 0.00833509 0.00281992    0.0574809 ----
    37   0   0   F    T  2.15D+00 0.00211213 0.00061273 0.00503258 0.00147448    0.0574805 ----
    38   0   0   F    F -1.48D-01 0.00211213 0.00061273 0.01081686 0.00316919    0.0574535 ----
    39   0   0   F    T  2.77D+00 0.00137671 0.00046699 0.00365945 0.00097659    0.0574526 ----
    40   0   0   F    F  3.18D-02 0.00137671 0.00046699 0.01011949 0.00270056    0.0574275 ----
    41   0   0   F    T  1.24D+00 0.00256743 0.00068950 0.00814079 0.00224093    0.0574275 ----
    42   0   0   F    F  9.13D-01 0.00256743 0.00068950 0.01012219 0.00278636    0.0573921 ----
    43   0   0   F    T  2.25D+00 0.00289667 0.00069186 0.00866447 0.00237031    0.0573816 ----
    44   0   0   F    F -4.37D-01 0.00289667 0.00069186 0.01948554 0.00533060    0.0573719 ----
    45   0   0   F    T  2.91D+00 0.00145975 0.00043626 0.00415679 0.00103078    0.0573571 ----
    46   0   0   F    F -2.58D-01 0.00145975 0.00043626 0.01211167 0.00300338    0.0573424 ----
    47   0   0   F    T  1.66D+00 0.00143795 0.00048149 0.00524897 0.00134610    0.0573404 ----
    48   0   0   F    F  2.12D-01 0.00143795 0.00048149 0.00868829 0.00222811    0.0573222 ----
    49   0   0   F    T  1.93D+00 0.00148167 0.00047475 0.00510784 0.00139669    0.0573216 ----
    50   0   0   F    F -6.57D-02 0.00148167 0.00047475 0.00987422 0.00270000    0.0573052 ----
    51   0   0   F    T  1.65D+00 0.00153372 0.00048366 0.00580968 0.00152517    0.0573051 ----
    52   0   0   F    F -1.46D-02 0.00153372 0.00048366 0.00960950 0.00252270    0.0572896 ----
    53   0   0   F    T  3.54D+00 0.00091380 0.00031220 0.00300192 0.00070275    0.0572896 ----
    54   0   0   F    F -4.89D-01 0.00091380 0.00031220 0.01061927 0.00248595    0.0572890 ----
    55   0   0   F    T  2.85D+00 0.00094881 0.00022960 0.00151136 0.00044587    0.0572825 ----
    56   0   0   F    F  1.39D-01 0.00094881 0.00022960 0.00430361 0.00126962    0.0572757 ----
    57   0   0   F    T  1.79D+00 0.00079437 0.00029759 0.00277804 0.00080670    0.0572756 ----
    58   0   0   F    F  1.85D-01 0.00079437 0.00029759 0.00497944 0.00144595    0.0572681 ----
    59   0   0   F    T  1.46D+00 0.00153916 0.00035101 0.00435547 0.00117145    0.0572680 ----
    60   0   0   F    F  4.43D-01 0.00153916 0.00035101 0.00636889 0.00171299    0.0572584 ----
    61   0   0   F    T  2.56D+00 0.00120839 0.00031037 0.00353264 0.00096622    0.0572574 ----
    62   0   0   F    F -4.60D-01 0.00120839 0.00031037 0.00903812 0.00247205    0.0572559 ----
    63   0   0   F    T  1.97D+00 0.00076858 0.00025031 0.00218858 0.00067953    0.0572521 ----
    64   0   0   F    F  4.31D-01 0.00076858 0.00025031 0.00430086 0.00133537    0.0572456 ----
    65   0   0   F    T  2.03D+00 0.00127948 0.00028701 0.00308372 0.00093917    0.0572449 ----
    66   0   0   F    F -1.45D-01 0.00127948 0.00028701 0.00627481 0.00191104    0.0572393 ----
    67   0   0   F    T  1.57D+00 0.00101873 0.00029639 0.00351441 0.00104297    0.0572391 ----
    68   0   0   F    F  1.14D-01 0.00101873 0.00029639 0.00550322 0.00163319    0.0572330 ----
    69   0   0   F    T  2.77D+00 0.00060527 0.00022822 0.00249136 0.00065787    0.0572329 ----
    70   0   0   F    F -3.54D-01 0.00060527 0.00022822 0.00689152 0.00181977    0.0572303 ----
    71   0   0   F    T  1.84D+00 0.00080181 0.00021786 0.00268061 0.00063821    0.0572291 ----
    72   0   0   F    F  6.44D-01 0.00080181 0.00021786 0.00493678 0.00117536    0.0572242 ----
    73   0   0   F    T  2.79D+00 0.00060581 0.00022069 0.00305999 0.00069218    0.0572233 ----
    74   0   0   F    F -2.51D-01 0.00060581 0.00022069 0.00854005 0.00193180    0.0572197 ----
    75   0   0   F    T  2.41D+00 0.00052813 0.00019980 0.00259640 0.00060066    0.0572192 ----
    76   0   0   F    F -2.04D-01 0.00052813 0.00019980 0.00625744 0.00144761    0.0572163 ----
    77   0   0   F    T  1.39D+00 0.00066641 0.00022996 0.00345242 0.00082767    0.0572161 ----
    78   0   0   F    F  1.03D+00 0.00066641 0.00022996 0.00480751 0.00115253    0.0572116 ----
    79   0   0   F    T  1.63D+00 0.00115561 0.00029965 0.00583499 0.00143645    0.0572100 ----
    80   0   0   F    F  2.35D-01 0.00115561 0.00029965 0.00949710 0.00233798    0.0572030 ----
    81   0   0   F    T  2.19D+00 0.00082517 0.00028332 0.00520720 0.00131532    0.0572027 ----
    82   0   0   F    F -1.38D-01 0.00082517 0.00028332 0.01142891 0.00288690    0.0571967 ----
    83   0   0   F    T  2.36D+00 0.00087640 0.00025002 0.00399823 0.00105428    0.0571966 ----
    84   0   0   F    F -3.20D-01 0.00087640 0.00025002 0.00944286 0.00248995    0.0571934 ----
    85   0   0   F    T  1.94D+00 0.00069098 0.00022362 0.00308237 0.00087240    0.0571925 ----
    86   0   0   F    F -6.51D-02 0.00069098 0.00022362 0.00597844 0.00169207    0.0571889 ----
    87   0   0   F    T  1.62D+00 0.00064939 0.00023340 0.00328373 0.00097877    0.0571888 ----
    88   0   0   F    F  5.45D-01 0.00064939 0.00023340 0.00530727 0.00158191    0.0571840 ----
    89   0   0   F    T  2.79D+00 0.00065248 0.00021758 0.00307269 0.00087698    0.0571833 ----
    90   0   0   F    F -6.81D-02 0.00065248 0.00021758 0.00856418 0.00244430    0.0571784 ----
    91   0   0   F    T  3.10D+00 0.00058065 0.00019541 0.00274939 0.00073499    0.0571784 ----
    92   0   0   F    F -4.07D-01 0.00058065 0.00019541 0.00852035 0.00227774    0.0571769 ----
    93   0   0   F    T  2.01D+00 0.00046683 0.00018318 0.00271981 0.00067226    0.0571755 ----
    94   0   0   F    F -6.37D-02 0.00046683 0.00018318 0.00546053 0.00134969    0.0571730 ----
    95   0   0   F    T  1.90D+00 0.00060250 0.00017887 0.00293211 0.00066573    0.0571730 ----
    96   0   0   F    F -9.88D-02 0.00060250 0.00017887 0.00556572 0.00126368    0.0571708 ----
    97   0   0   F    T  2.56D+00 0.00042769 0.00014244 0.00210422 0.00044542    0.0571707 ----
    98   0   0   F    F -3.16D-01 0.00042769 0.00014244 0.00537978 0.00113879    0.0571696 ----
    99   0   0   F    T  1.74D+00 0.00044834 0.00013916 0.00218892 0.00044711    0.0571693 ----
   100   0   0   F    F  7.37D-01 0.00044834 0.00013916 0.00381261 0.00077877    0.0571674 ----
   101   0   0   F    T  1.57D+00 0.00051014 0.00019105 0.00431698 0.00086424    0.0571669 ----
   102   0   0   F    F  1.67D-01 0.00051014 0.00019105 0.00675721 0.00135275    0.0571643 ----
   103   0   0   F    T  2.10D+00 0.00062630 0.00017565 0.00376019 0.00075146    0.0571642 ----
   104   0   0   F    F -3.03D-01 0.00062630 0.00017565 0.00789828 0.00157844    0.0571627 ----
   105   0   0   F    T  2.15D+00 0.00044826 0.00014208 0.00247903 0.00051122    0.0571624 ----
   106   0   0   F    F  3.52D-01 0.00044826 0.00014208 0.00533637 0.00110045    0.0571602 ----
   107   0   0   F    T  1.81D+00 0.00051097 0.00017789 0.00383139 0.00082034    0.0571600 ----
   108   0   0   F    F  2.49D-01 0.00051097 0.00017789 0.00694860 0.00148777    0.0571572 ----
   109   0   0   F    T  3.70D+00 0.00041573 0.00013654 0.00229732 0.00050264    0.0571571 ----
   110   0   0   F    F -4.38D-01 0.00041573 0.00013654 0.00849641 0.00185896    0.0571565 ----
   111   0   0   F    T  1.96D+00 0.00048394 0.00013831 0.00232226 0.00053448    0.0571555 ----
   112   0   0   F    T  1.61D+00 0.00067386 0.00014990 0.00266356 0.00064746    0.0571540 ----
   113   0   0   F    F  3.37D-01 0.00067386 0.00014990 0.00430064 0.00104539    0.0571522 ----
   114   0   0   F    T  2.38D+00 0.00053122 0.00014140 0.00225130 0.00058716    0.0571521 ----
   115   0   0   F    F -3.94D-01 0.00053122 0.00014140 0.00535798 0.00139742    0.0571514 ----
   116   0   0   F    T  2.50D+00 0.00036431 0.00010461 0.00113755 0.00033898    0.0571509 ----
   117   0   0   F    T  1.68D+00 0.00047191 0.00012471 0.00162219 0.00050314    0.0571498 ----
   118   0   0   F    F  9.40D-02 0.00047191 0.00012471 0.00272967 0.00084664    0.0571487 ----
   119   0   0   F    T  1.82D+00 0.00044338 0.00012602 0.00168005 0.00050966    0.0571487 ----
   120   0   0   F    F -2.01D-01 0.00044338 0.00012602 0.00305319 0.00092621    0.0571478 ----
   121   0   0   F    T  2.96D+00 0.00026542 0.00008420 0.00078846 0.00024959    0.0571478 ---+
   122   0   0   F    F -2.11D-01 0.00026542 0.00008420 0.00233771 0.00074001    0.0571471 ----
   123   0   0   F    T  2.45D+00 0.00020684 0.00007989 0.00072324 0.00023849    0.0571471 ---+
   124   0   0   F    F -1.43D-01 0.00020684 0.00007989 0.00177139 0.00058412    0.0571466 ----
   125   0   0   F    T  2.06D+00 0.00017944 0.00007852 0.00065181 0.00024338    0.0571465 ---+
   126   0   0   F    T  3.20D+00 0.00022033 0.00006171 0.00042769 0.00015652    0.0571460 -+++
   127   0   0   T    F  3.72D-01 0.00022033 0.00006171 0.00136780 0.00050058    0.0571464 -+--
   128   0   0   F    T  2.15D+00 0.00014325 0.00004133 0.00025039 0.00008665    0.0571458 -+++
   129   0   0   F    F  2.07D-01 0.00014325 0.00004133 0.00053822 0.00018626    0.0571457 -+-+
   130   0   0   F    T  1.47D+00 0.00015642 0.00005361 0.00044924 0.00015272    0.0571456 -+++
   131   0   0   F    F  5.01D-01 0.00015642 0.00005361 0.00066121 0.00022477    0.0571454 -+-+
   132   0   0   F    T  3.78D+00 0.00014332 0.00003888 0.00027394 0.00008921    0.0571454 -+++
   133   0   0   F    F -4.61D-01 0.00014332 0.00003888 0.00103633 0.00033748    0.0571454 -+--
   134   0   0   F    T  1.91D+00 0.00015495 0.00003842 0.00028924 0.00009517    0.0571453 -+++
   135   0   0   F    T  4.18D+00 0.00005626 0.00002375 0.00011739 0.00004346    0.0571451 ====
 Energy=    0.057145148618 NIter=   0.
 Dipole moment=       0.000000       0.000000       0.000000
 ***** Axes restored to original set *****
 -------------------------------------------------------------------
 Center     Atomic                   Forces (Hartrees/Bohr)
 Number     Number              X              Y              Z
 -------------------------------------------------------------------
    1          6          -0.000004234   -0.000023856    0.000000590
    2          6           0.000009781   -0.000018616    0.000015098
    3          1           0.000005551    0.000012236    0.000012435
    4          8          -0.000028868    0.000009349    0.000004830
    5          6          -0.000010982   -0.000001484    0.000016012
    6          7          -0.000015362   -0.000013761   -0.000004196
    7          1           0.000002336    0.000020243    0.000009186
    8          1          -0.000012392    0.000030936    0.000005651
    9          6           0.000037092    0.000032266    0.000004173
   10          6          -0.000047055    0.000012518   -0.000011991
   11          6           0.000003657   -0.000044996   -0.000001736
   12          6          -0.000037502    0.000049637    0.000021353
   13          6           0.000019661   -0.000070715    0.000020144
   14          8           0.000043037    0.000018534   -0.000004878
   15          8          -0.000003103   -0.000023697    0.000006120
   16          1           0.000006809    0.000008636   -0.000024879
   17          1           0.000029425    0.000035872    0.000005698
   18          1           0.000046115    0.000011890    0.000010849
   19          1          -0.000042749   -0.000011509    0.000015288
   20          1          -0.000001358    0.000010523   -0.000030703
   21          6          -0.000021310    0.000011132   -0.000026532
   22          1          -0.000031378   -0.000005524   -0.000031051
   23          1          -0.000036234   -0.000008478   -0.000013976
   24          1           0.000006190    0.000025892    0.000016299
   25          1           0.000027424   -0.000025381   -0.000020630
   26          1           0.000014246   -0.000048653    0.000013819
   27          1           0.000041201    0.000007008   -0.000006971
 -------------------------------------------------------------------
 Cartesian Forces:  Max     0.000070715 RMS     0.000023751

 GradGradGradGradGradGradGradGradGradGradGradGradGradGradGradGradGradGrad
 Berny optimization.
 Search for a local minimum.
 Step number   1 out of a maximum of   2
 All quantities printed in internal units (Hartrees-Bohrs-Radians)
 Second derivative matrix not updated -- unit matrix used.
 RFO step:  Lambda=-4.56916409D-08.
 Linear search not attempted -- first point.
 TrRot=  0.000000  0.000000  0.000000  0.000000  0.000000  0.000000
 Variable       Old X    -DE/DX   Delta X   Delta X   Delta X     New X
                                 (Linear)    (Quad)   (Total)
    X1       -1.84815   0.00000   0.00000   0.00000   0.00000  -1.84816
    Y1       -3.74178  -0.00002   0.00000  -0.00002  -0.00002  -3.74180
    Z1       -1.56275   0.00000   0.00000   0.00000   0.00000  -1.56274
    X2       -1.94658   0.00001   0.00000   0.00001   0.00001  -1.94657
    Y2       -2.13016  -0.00002   0.00000  -0.00002  -0.00002  -2.13017
    Z2        0.85825   0.00002   0.00000   0.00002   0.00002   0.85827
    X3       -3.90298   0.00001   0.00000   0.00001   0.00001  -3.90297
    Y3       -1.36559   0.00001   0.00000   0.00001   0.00001  -1.36558
    Z3        1.03714   0.00001   0.00000   0.00001   0.00001   1.03716
    X4       -1.40580  -0.00003   0.00000  -0.00003  -0.00003  -1.40583
    Y4       -3.64627   0.00001   0.00000   0.00001   0.00001  -3.64626
    Z4        2.96810   0.00000   0.00000   0.00000   0.00000   2.96811
    X5       -0.07156  -0.00001   0.00000  -0.00001  -0.00001  -0.07157
    Y5        0.02661   0.00000   0.00000   0.00000   0.00000   0.02661
    Z5        0.70424   0.00002   0.00000   0.00002   0.00002   0.70425
    X6       -3.83367  -0.00002   0.00000  -0.00002  -0.00002  -3.83369
    Y6       -5.67927  -0.00001   0.00000  -0.00001  -0.00001  -5.67928
    Z6       -1.57310   0.00000   0.00000   0.00000   0.00000  -1.57311
    X7       -2.09842   0.00000   0.00000   0.00000   0.00000  -2.09842
    Y7       -2.48309   0.00002   0.00000   0.00002   0.00002  -2.48307
    Z7       -3.23065   0.00001   0.00000   0.00001   0.00001  -3.23064
    X8        0.03423  -0.00001   0.00000  -0.00001  -0.00001   0.03422
    Y8       -4.66656   0.00003   0.00000   0.00003   0.00003  -4.66653
    Z8       -1.72245   0.00001   0.00000   0.00001   0.00001  -1.72244
    X9        2.53690   0.00004   0.00000   0.00004   0.00004   2.53694
    Y9       -0.45220   0.00003   0.00000   0.00003   0.00003  -0.45216
    Z9        0.70939   0.00000   0.00000   0.00000   0.00000   0.70940
   X10        4.26178  -0.00005   0.00000  -0.00005  -0.00005   4.26174
   Y10        1.53833   0.00001   0.00000   0.00001   0.00001   1.53834
   Z10        0.57221  -0.00001   0.00000  -0.00001  -0.00001   0.57220
   X11        3.41289   0.00000   0.00000   0.00000   0.00000   3.41289
   Y11        4.05510  -0.00004   0.00000  -0.00004  -0.00004   4.05505
   Z11        0.43015   0.00000   0.00000   0.00000   0.00000   0.43015
   X12        0.78601  -0.00004   0.00000  -0.00004  -0.00004   0.78597
   Y12        4.55084   0.00005   0.00000   0.00005   0.00005   4.55089
   Z12        0.43077   0.00002   0.00000   0.00002   0.00002   0.43080
   X13       -0.92483   0.00002   0.00000   0.00002   0.00002  -0.92481
   Y13        2.53519  -0.00007   0.00000  -0.00007  -0.00007   2.53512
   Z13        0.56955   0.00002   0.00000   0.00002   0.00002   0.56957
   X14       -0.13694   0.00004   0.00000   0.00004   0.00004  -0.13690
   Y14        6.87273   0.00002   0.00000   0.00002   0.00002   6.87275
   Z14        0.30464   0.00000   0.00000   0.00000   0.00000   0.30463
   X15        5.04001   0.00000   0.00000   0.00000   0.00000   5.04000
   Y15        5.95023  -0.00002   0.00000  -0.00002  -0.00002   5.95021
   Z15        0.29841   0.00001   0.00000   0.00001   0.00001   0.29842
   X16        1.17867   0.00001   0.00000   0.00001   0.00001   1.17868
   Y16        8.25979   0.00001   0.00000   0.00001   0.00001   8.25980
   Z16        0.20887  -0.00002   0.00000  -0.00002  -0.00002   0.20885
   X17        6.87908   0.00003   0.00000   0.00003   0.00003   6.87911
   Y17        5.40933   0.00004   0.00000   0.00004   0.00004   5.40936
   Z17        0.30966   0.00001   0.00000   0.00001   0.00001   0.30967
   X18       -1.94852   0.00005   0.00000   0.00005   0.00005  -1.94848
   Y18       -2.67811   0.00001   0.00000   0.00001   0.00001  -2.67809
   Z18        4.48140   0.00001   0.00000   0.00001   0.00001   4.48141
   X19       -3.63445  -0.00004   0.00000  -0.00004  -0.00004  -3.63450
   Y19       -6.85292  -0.00001   0.00000  -0.00001  -0.00001  -6.85293
   Z19        0.00438   0.00002   0.00000   0.00002   0.00002   0.00439
   X20       -5.60281   0.00000   0.00000   0.00000   0.00000  -5.60281
   Y20       -4.82600   0.00001   0.00000   0.00001   0.00001  -4.82599
   Z20       -1.35045  -0.00003   0.00000  -0.00003  -0.00003  -1.35048
   X21       -3.89259  -0.00002   0.00000  -0.00002  -0.00002  -3.89261
   Y21       -7.25394   0.00001   0.00000   0.00001   0.00001  -7.25393
   Z21       -3.84104  -0.00003   0.00000  -0.00003  -0.00003  -3.84107
   X22        3.23789  -0.00003   0.00000  -0.00003  -0.00003   3.23785
   Y22       -2.37105  -0.00001   0.00000  -0.00001  -0.00001  -2.37105
   Z22        0.82884  -0.00003   0.00000  -0.00003  -0.00003   0.82881
   X23        6.26411  -0.00004   0.00000  -0.00004  -0.00004   6.26407
   Y23        1.11486  -0.00001   0.00000  -0.00001  -0.00001   1.11485
   Z23        0.57973  -0.00001   0.00000  -0.00001  -0.00001   0.57972
   X24       -2.93338   0.00001   0.00000   0.00001   0.00001  -2.93338
   Y24        2.93371   0.00003   0.00000   0.00003   0.00003   2.93374
   Z24        0.56570   0.00002   0.00000   0.00002   0.00002   0.56572
   X25       -2.07350   0.00003   0.00000   0.00003   0.00003  -2.07348
   Y25       -8.28091  -0.00003   0.00000  -0.00003  -0.00003  -8.28093
   Z25       -4.06189  -0.00002   0.00000  -0.00002  -0.00002  -4.06191
   X26       -4.22767   0.00001   0.00000   0.00001   0.00001  -4.22765
   Y26       -6.06817  -0.00005   0.00000  -0.00005  -0.00005  -6.06822
   Z26       -5.54258   0.00001   0.00000   0.00001   0.00001  -5.54257
   X27       -5.44291   0.00004   0.00000   0.00004   0.00004  -5.44287
   Y27       -8.66387   0.00001   0.00000   0.00001   0.00001  -8.66386
   Z27       -3.69370  -0.00001   0.00000  -0.00001  -0.00001  -3.69371
         Item               Value     Threshold  Converged?
 Maximum Force            0.000071     0.000450     YES
 RMS     Force            0.000024     0.000300     YES
 Maximum Displacement     0.000071     0.001800     YES
 RMS     Displacement     0.000024     0.001200     YES
 Predicted change in Energy=-2.284582D-08
 Optimization completed.
    -- Stationary point found.
 GradGradGradGradGradGradGradGradGradGradGradGradGradGradGradGradGradGrad

                          Input orientation:                          
 ---------------------------------------------------------------------
 Center     Atomic     Atomic              Coordinates (Angstroms)
 Number     Number      Type              X           Y           Z
 ---------------------------------------------------------------------
    1          6      10061003       -0.978001   -1.980063   -0.826969
    2          6      10061003       -1.030083   -1.127230    0.454168
    3          1      10011000       -2.065366   -0.722638    0.548833
    4          8      10081003       -0.743916   -1.929523    1.570651
    5          6      10061000       -0.037867    0.014081    0.372667
    6          7      10071000       -2.028693   -3.005340   -0.832450
    7          1      10011000       -1.110437   -1.313994   -1.709584
    8          1      10011000        0.018114   -2.469439   -0.911480
    9          6      10061000        1.342471   -0.239292    0.375394
   10          6      10061000        2.255239    0.814049    0.302801
   11          6      10061000        1.806024    2.145866    0.227628
   12          6      10061000        0.415936    2.408202    0.227956
   13          6      10061000       -0.489397    1.341567    0.301392
   14          8      10081000       -0.072467    3.636891    0.161208
   15          8      10081000        2.667056    3.148727    0.157912
   16          1      10011000        0.623728    4.370894    0.110530
   17          1      10011000        3.640252    2.862494    0.163868
   18          1      10011000       -1.031114   -1.417193    2.371456
   19          1      10011000       -1.923270   -3.626410    0.002317
   20          1      10011000       -2.964878   -2.553812   -0.714628
   21          6      10061003       -2.059868   -3.838622   -2.032592
   22          1      10011000        1.713416   -1.254704    0.438605
   23          1      10011000        3.314824    0.589959    0.306782
   24          1      10011000       -1.552279    1.552454    0.299356
   25          1      10011000       -1.097250   -4.382066   -2.149459
   26          1      10011000       -2.237185   -3.211136   -2.933009
   27          1      10011000       -2.880262   -4.584722   -1.954624
 ---------------------------------------------------------------------
                    Distance matrix (angstroms):
                    1          2          3          4          5
     1  C    0.000000
     2  C    1.539919   0.000000
     3  H    2.157849   1.115557   0.000000
     4  O    2.409550   1.404315   2.060805   0.000000
     5  C    2.509898   1.514505   2.164381   2.389826   0.000000
     6  N    1.468053   2.485942   2.668336   2.929664   3.812165
     7  H    1.113641   2.173283   2.522308   3.357552   2.692575
     8  H    1.113048   2.182942   3.086214   2.652013   2.796433
     9  C    3.140151   2.534493   3.446312   2.939138   1.403402
    10  C    4.420100   3.819007   4.592338   4.257883   2.429643
    11  C    5.087854   4.336817   4.828991   4.991463   2.822318
    12  C    4.723643   3.826411   4.007741   4.686571   2.441044
    13  C    3.541914   2.531924   2.608802   3.517929   1.403986
    14  O    5.774656   4.868234   4.809095   5.781206   3.629141
    15  O    6.368745   5.660425   6.126672   6.278470   4.145929
    16  H    6.616577   5.751743   5.776453   6.610421   4.414549
    17  H    6.764641   6.149325   6.749478   6.645555   4.656781
    18  H    3.248010   1.939091   2.207723   0.993103   2.651461
    19  H    2.071645   2.692184   2.958169   2.594219   4.116441
    20  H    2.071108   2.672948   2.399719   3.247293   4.042731
    21  C    2.465401   3.820481   4.046373   4.284827   4.971627
    22  H    3.061298   2.746503   3.817648   2.788438   2.163598
    23  H    5.130179   4.674256   5.543279   4.941510   3.402427
    24  H    3.751944   2.734477   2.345537   3.793918   2.159956
    25  H    2.744598   4.168614   4.648596   4.469791   5.177791
    26  H    2.745267   4.156047   4.283149   4.914808   5.115322
    27  H    3.416790   4.602140   4.674082   4.903225   5.885956
                    6          7          8          9         10
     6  N    0.000000
     7  H    2.114997   0.000000
     8  H    2.117276   1.801569   0.000000
     9  C    4.524894   3.393947   2.895432   0.000000
    10  C    5.850522   4.461618   4.154576   1.395687   0.000000
    11  C    6.508744   4.922313   5.078901   2.434275   1.407544
    12  C    6.033831   4.465268   5.024735   2.808813   2.435151
    13  C    4.748751   3.388468   4.031425   2.420812   2.794871
    14  O    6.995242   5.393376   6.200494   4.131914   3.661515
    15  O    7.804064   6.137823   6.302720   3.644241   2.375143
    16  H    7.895150   6.215955   6.942725   4.673388   3.917900
    17  H    8.219554   6.597114   6.534965   3.865956   2.476629
    18  H    3.712464   4.083116   3.603578   3.317472   4.478604
    19  H    1.045791   2.989745   2.437741   4.719833   6.104745
    20  H    1.046041   2.442547   2.990671   5.009831   6.295019
    21  C    1.461393   2.716523   2.729389   5.507221   6.761771
    22  H    4.322463   3.548573   2.484423   1.082894   2.142839
    23  H    6.540428   5.222422   4.659653   2.140686   1.083029
    24  H    4.720323   3.528114   4.484181   3.405248   3.878459
    25  H    2.120725   3.099473   2.536685   5.430443   6.652246
    26  H    2.120888   2.522990   3.118183   5.708882   6.845031
    27  H    2.116339   3.726928   3.736731   6.491781   7.785632
                   11         12         13         14         15
    11  C    0.000000
    12  C    1.414625   0.000000
    13  C    2.433371   1.400975   0.000000
    14  O    2.399228   1.323884   2.337091   0.000000
    15  O    1.323618   2.370828   3.640001   2.782679   0.000000
    16  H    2.522357   1.977151   3.233002   1.012924   2.381414
    17  H    1.970283   3.256794   4.402969   3.792622   1.014433
    18  H    5.033959   4.617596   3.491329   5.598925   6.278842
    19  H    6.875869   6.476060   5.179405   7.497084   8.185218
    20  H    6.762864   6.077825   4.725915   6.888972   8.062193
    21  C    7.474477   7.089605   5.894761   8.040262   8.715799
    22  H    3.408368   3.891621   3.407614   5.214790   4.514247
    23  H    2.168776   3.422831   3.877762   4.558368   2.643682
    24  H    3.411082   2.147387   1.083603   2.560040   4.513411
    25  H    7.529505   7.351842   6.255888   8.407915   8.729651
    26  H    7.418534   6.971924   5.851770   7.820209   8.605419
    27  H    8.486714   8.033030   6.776927   8.941777   9.748937
                   16         17         18         19         20
    16  H    0.000000
    17  H    3.373061   0.000000
    18  H    6.430571   6.709011   0.000000
    19  H    8.393795   8.548962   3.359971   0.000000
    20  H    7.842865   8.586959   3.815136   1.658139   0.000000
    21  C    8.898922   9.067566   5.130038   2.050499   2.051051
    22  H    5.739548   4.554064   3.360767   4.363579   4.990396
    23  H    4.644996   2.300162   5.213320   6.731129   7.096564
    24  H    3.565707   5.356953   3.658417   5.200625   4.459262
    25  H    9.202371   8.959858   5.406803   2.425586   2.981491
    26  H    8.656508   9.001328   5.728018   2.981130   2.425453
    27  H    9.835948  10.122556   5.671645   2.379877   2.381039
                   21         22         23         24         25
    21  C    0.000000
    22  H    5.198183   0.000000
    23  H    7.346584   2.446358   0.000000
    24  H    5.895704   4.308630   4.961365   0.000000
    25  H    1.111585   4.937440   7.086646   6.436014   0.000000
    26  H    1.111724   5.550014   7.467889   5.797333   1.812313
    27  H    1.111661   6.157795   8.382742   6.671499   1.805038
                   26         27
    26  H    0.000000
    27  H    1.804861   0.000000
 Stoichiometry    C9H14NO3(1+)
 Framework group  C1[X(C9H14NO3)]
 Deg. of freedom    75
 Full point group                 C1
 Largest Abelian subgroup         C1      NOp   1
 Largest concise Abelian subgroup C1      NOp   1
                         Standard orientation:                         
 ---------------------------------------------------------------------
 Center     Atomic     Atomic              Coordinates (Angstroms)
 Number     Number      Type              X           Y           Z
 ---------------------------------------------------------------------
    1          6      10061003       -2.302990   -0.058126   -0.458385
    2          6      10061003       -1.383983    0.266258    0.733903
    3          1      10011000       -1.522709    1.344578    0.983800
    4          8      10081003       -1.749779   -0.515310    1.841805
    5          6      10061000        0.063789    0.004209    0.374718
    6          7      10071000       -3.693828    0.322788   -0.183335
    7          1      10011000       -1.941013    0.495629   -1.354222
    8          1      10011000       -2.254393   -1.146991   -0.683966
    9          6      10061000        0.515764   -1.304183    0.143709
   10          6      10061000        1.850939   -1.543804   -0.184670
   11          6      10061000        2.764621   -0.478059   -0.287400
   12          6      10061000        2.316123    0.842837   -0.052352
   13          6      10061000        0.973273    1.069286    0.276598
   14          8      10081000        3.123626    1.888990   -0.130912
   15          8      10081000        4.031835   -0.699293   -0.599154
   16          1      10011000        4.083162    1.670605   -0.370941
   17          1      10011000        4.258752   -1.676597   -0.749020
   18          1      10011000       -1.316598   -0.105334    2.635863
   19          1      10011000       -4.038161   -0.179499    0.666854
   20          1      10011000       -3.740374    1.337372    0.066978
   21          6      10061003       -4.623015    0.069913   -1.282579
   22          1      10011000       -0.166085   -2.141754    0.222552
   23          1      10011000        2.172781   -2.563335   -0.357659
   24          1      10011000        0.638814    2.084737    0.453212
   25          1      10011000       -4.642442   -1.013817   -1.529103
   26          1      10011000       -4.318876    0.644643   -2.184308
   27          1      10011000       -5.648638    0.385150   -0.991866
 ---------------------------------------------------------------------
 Rotational constants (GHZ):      1.7599697      0.3416273      0.3282465
 1|1|UNPC-UNK|FOpt|UFF|ZDO|C9H14N1O3(1+)|PCUSER|13-Dec-2007|0||# opt uf
 f||adrenaline-B||1,1|C,-0.9780005419,-1.9800628755,-0.8269692879|C,-1.
 0300831643,-1.1272297123,0.454167708|H,-2.0653664786,-0.7226382911,0.5
 488327031|O,-0.7439160073,-1.9295231912,1.5706511173|C,-0.0378667579,0
 .0140811828,0.3726665296|N,-2.0286931603,-3.0053403978,-0.8324500371|H
 ,-1.1104366118,-1.3139940307,-1.7095842568|H,0.0181141601,-2.469438874
 4,-0.9114801896|C,1.3424712291,-0.2392915017,0.3753938529|C,2.25523877
 59,0.8140494119,0.3028006656|C,1.8060239209,2.1458663609,0.2276281891|
 C,0.4159360922,2.4082023279,0.2279561677|C,-0.4893969024,1.3415666968,
 0.3013919649|O,-0.0724665415,3.6368910709,0.1612078855|O,2.6670564257,
 3.148726517,0.1579123016|H,0.6237279169,4.3708942483,0.1105296804|H,3.
 640252484,2.8624936147,0.1638675674|H,-1.0311137465,-1.417192772,2.371
 4560982|H,-1.9232704356,-3.6264101896,0.0023174378|H,-2.9648780594,-2.
 5538115227,-0.7146281974|C,-2.0598676927,-3.8386220596,-2.0325915456|H
 ,1.7134155081,-1.2547044229,0.4386049686|H,3.3148235197,0.5899587569,0
 .3067819198|H,-1.5522789693,1.5524543642,0.2993557161|H,-1.0972502396,
 -4.3820662912,-2.1494591584|H,-2.2371852508,-3.2111364609,-2.933008547
 6|H,-2.880262083,-4.5847220786,-1.9546239834||Version=IA32W-G03RevD.01
 |HF=0.0571451|RMSD=0.000e+000|RMSF=2.375e-005|Thermal=0.|Dipole=0.,0.,
 0.|PG=C01 [X(C9H14N1O3)]||@


 At the touch of love, everyone becomves a poet.
                                -- Plato
 Job cpu time:  0 days  0 hours  0 minutes  3.0 seconds.
 File lengths (MBytes):  RWF=     11 Int=      0 D2E=      0 Chk=      4 Scr=      1
 Normal termination of Gaussian 03 at Thu Dec 13 15:11:20 2007.
