 Entering Link 1 = C:\G03W\l1.exe PID=      2580.
  
 Copyright (c) 1988,1990,1992,1993,1995,1998,2003,2004, Gaussian, Inc.
                  All Rights Reserved.
  
 This is the Gaussian(R) 03 program.  It is based on the
 the Gaussian(R) 98 system (copyright 1998, Gaussian, Inc.),
 the Gaussian(R) 94 system (copyright 1995, Gaussian, Inc.),
 the Gaussian 92(TM) system (copyright 1992, Gaussian, Inc.),
 the Gaussian 90(TM) system (copyright 1990, Gaussian, Inc.),
 the Gaussian 88(TM) system (copyright 1988, Gaussian, Inc.),
 the Gaussian 86(TM) system (copyright 1986, Carnegie Mellon
 University), and the Gaussian 82(TM) system (copyright 1983,
 Carnegie Mellon University). Gaussian is a federally registered
 trademark of Gaussian, Inc.
  
 This software contains proprietary and confidential information,
 including trade secrets, belonging to Gaussian, Inc.
  
 This software is provided under written license and may be
 used, copied, transmitted, or stored only in accord with that
 written license.
  
 The following legend is applicable only to US Government
 contracts under FAR:
  
                    RESTRICTED RIGHTS LEGEND
  
 Use, reproduction and disclosure by the US Government is
 subject to restrictions as set forth in subparagraphs (a)
 and (c) of the Commercial Computer Software - Restricted
 Rights clause in FAR 52.227-19.
  
 Gaussian, Inc.
 340 Quinnipiac St., Bldg. 40, Wallingford CT 06492
  
  
 ---------------------------------------------------------------
 Warning -- This program may not be used in any manner that
 competes with the business of Gaussian, Inc. or will provide
 assistance to any competitor of Gaussian, Inc.  The licensee
 of this program is prohibited from giving any competitor of
 Gaussian, Inc. access to this program.  By using this program,
 the user acknowledges that Gaussian, Inc. is engaged in the
 business of creating and licensing software in the field of
 computational chemistry and represents and warrants to the
 licensee that it is not a competitor of Gaussian, Inc. and that
 it will not use this program in any manner prohibited above.
 ---------------------------------------------------------------
  

 Cite this work as:
 Gaussian 03, Revision D.01,
 M. J. Frisch, G. W. Trucks, H. B. Schlegel, G. E. Scuseria, 
 M. A. Robb, J. R. Cheeseman, J. A. Montgomery, Jr., T. Vreven, 
 K. N. Kudin, J. C. Burant, J. M. Millam, S. S. Iyengar, J. Tomasi, 
 V. Barone, B. Mennucci, M. Cossi, G. Scalmani, N. Rega, 
 G. A. Petersson, H. Nakatsuji, M. Hada, M. Ehara, K. Toyota, 
 R. Fukuda, J. Hasegawa, M. Ishida, T. Nakajima, Y. Honda, O. Kitao, 
 H. Nakai, M. Klene, X. Li, J. E. Knox, H. P. Hratchian, J. B. Cross, 
 V. Bakken, C. Adamo, J. Jaramillo, R. Gomperts, R. E. Stratmann, 
 O. Yazyev, A. J. Austin, R. Cammi, C. Pomelli, J. W. Ochterski, 
 P. Y. Ayala, K. Morokuma, G. A. Voth, P. Salvador, J. J. Dannenberg, 
 V. G. Zakrzewski, S. Dapprich, A. D. Daniels, M. C. Strain, 
 O. Farkas, D. K. Malick, A. D. Rabuck, K. Raghavachari, 
 J. B. Foresman, J. V. Ortiz, Q. Cui, A. G. Baboul, S. Clifford, 
 J. Cioslowski, B. B. Stefanov, G. Liu, A. Liashenko, P. Piskorz, 
 I. Komaromi, R. L. Martin, D. J. Fox, T. Keith, M. A. Al-Laham, 
 C. Y. Peng, A. Nanayakkara, M. Challacombe, P. M. W. Gill, 
 B. Johnson, W. Chen, M. W. Wong, C. Gonzalez, and J. A. Pople, 
 Gaussian, Inc., Wallingford CT, 2004.
 
 ******************************************
 Gaussian 03:  IA32W-G03RevD.01 13-Oct-2005
                13-Dec-2007 
 ******************************************
 ---------
 # opt uff
 ---------
 1/6=10,10=10,14=-1,18=4000020,38=1,56=1,64=2/1,3;
 2/9=110,17=6,18=5,40=1/2;
 3/5=30,11=9,16=1,25=1,30=1/1;
 4/20=10,22=1001,24=3/2;
 7/44=-1/16;
 1/6=10,10=10,14=-1,18=4000020,64=2/3(2);
 2/9=110/2;
 99//99;
 2/9=110/2;
 3/5=30,11=9,16=1,25=1,30=1/1;
 4/16=2,20=10,22=1001,24=3/2;
 7/44=-1/16;
 1/6=10,10=10,14=-1,18=4000020,64=2/3(-4);
 2/9=110/2;
 99//99;
 ---------------
 noradrenaline-C
 ---------------
 Symbolic Z-matrix:
 Charge =  1 Multiplicity = 1
 C                    -1.40232  -2.33536  -1.06696 
 C                    -1.36832  -1.63136   0.29604 
 H                    -2.40032  -1.28236   0.54904 
 O                    -1.02632  -2.56336   1.30004 
 C                    -0.44532  -0.43036   0.29504 
 N                    -0.01032  -2.79336  -1.36796 
 H                    -2.07632  -3.22236  -1.04896 
 H                    -1.73432  -1.64236  -1.87496 
 C                     0.89368  -0.52236   0.68604 
 C                     1.71468   0.60464   0.66404 
 C                     1.23668   1.85264   0.25104 
 C                    -0.10232   1.96064  -0.15096 
 C                    -0.91232   0.81964  -0.12396 
 O                    -0.60632   3.15664  -0.56696 
 O                     2.04968   2.94564   0.23404 
 H                     0.11668   3.75864  -0.53296 
 H                     2.92468   2.61564   0.33204 
 H                    -0.96732  -2.09436   2.11504 
 H                     0.04568  -3.30236  -2.27596 
 H                     0.66068  -1.99736  -1.42696 
 H                     0.35468  -3.44036  -0.63596 
 H                     1.31868  -1.48636   1.00904 
 H                     2.76768   0.50964   0.97804 
 H                    -1.96132   0.91764  -0.45096 
 
 I=    6 IAn=  7 Valence= 4.
          JB=  1 J=    1 IAn=  6 IBT= 1 Dist= 1.50D+00
          JB=  2 J=   19 IAn=  1 IBT= 1 Dist= 1.04D+00
          JB=  3 J=   20 IAn=  1 IBT= 1 Dist= 1.04D+00
          JB=  4 J=   21 IAn=  1 IBT= 1 Dist= 1.04D+00
 I=    9 IAn=  6 Valence=36.
          JB=  1 J=    5 IAn=  6 IBT=12 Dist= 1.40D+00
          JB=  2 J=   10 IAn=  6 IBT=12 Dist= 1.39D+00
          JB=  3 J=   22 IAn=  1 IBT= 1 Dist= 1.10D+00
 I=   10 IAn=  6 Valence=36.
          JB=  1 J=    9 IAn=  6 IBT=12 Dist= 1.39D+00
          JB=  2 J=   11 IAn=  6 IBT=12 Dist= 1.40D+00
          JB=  3 J=   23 IAn=  1 IBT= 1 Dist= 1.10D+00
 I=   11 IAn=  6 Valence=36.
          JB=  1 J=   10 IAn=  6 IBT=12 Dist= 1.40D+00
          JB=  2 J=   12 IAn=  6 IBT=12 Dist= 1.40D+00
          JB=  3 J=   15 IAn=  8 IBT=12 Dist= 1.36D+00
 I=   12 IAn=  6 Valence=36.
          JB=  1 J=   11 IAn=  6 IBT=12 Dist= 1.40D+00
          JB=  2 J=   13 IAn=  6 IBT=12 Dist= 1.40D+00
          JB=  3 J=   14 IAn=  8 IBT=12 Dist= 1.36D+00
 I=   13 IAn=  6 Valence=36.
          JB=  1 J=    5 IAn=  6 IBT=12 Dist= 1.40D+00
          JB=  2 J=   12 IAn=  6 IBT=12 Dist= 1.40D+00
          JB=  3 J=   24 IAn=  1 IBT= 1 Dist= 1.10D+00
 I=   14 IAn=  8 Valence=24.
          JB=  1 J=   12 IAn=  6 IBT=12 Dist= 1.36D+00
          JB=  2 J=   16 IAn=  1 IBT= 1 Dist= 9.41D-01
 I=   15 IAn=  8 Valence=24.
          JB=  1 J=   11 IAn=  6 IBT=12 Dist= 1.36D+00
          JB=  2 J=   17 IAn=  1 IBT= 1 Dist= 9.40D-01
 Include all MM classes
 MMInit generated parameter data with length LenPar=  2590.

 GradGradGradGradGradGradGradGradGradGradGradGradGradGradGradGradGradGrad
 Berny optimization.
 Initialization pass.
 No Z-matrix variables, so optimization will use Cartesian coordinates.
 Trust Radius=1.00D-01 FncErr=1.00D-07 GrdErr=1.00D-07
 Number of steps in this run=   2 maximum allowed number of steps=   2.
 GradGradGradGradGradGradGradGradGradGradGradGradGradGradGradGradGradGrad

                          Input orientation:                          
 ---------------------------------------------------------------------
 Center     Atomic     Atomic              Coordinates (Angstroms)
 Number     Number      Type              X           Y           Z
 ---------------------------------------------------------------------
    1          6      10061003       -1.402319   -2.335363   -1.066956
    2          6      10061003       -1.368319   -1.631363    0.296044
    3          1      10011000       -2.400319   -1.282363    0.549044
    4          8      10081003       -1.026319   -2.563363    1.300044
    5          6      10061000       -0.445319   -0.430363    0.295044
    6          7      10071000       -0.010319   -2.793363   -1.367956
    7          1      10011000       -2.076319   -3.222363   -1.048956
    8          1      10011000       -1.734319   -1.642363   -1.874956
    9          6      10061000        0.893681   -0.522363    0.686044
   10          6      10061000        1.714681    0.604637    0.664044
   11          6      10061000        1.236681    1.852637    0.251044
   12          6      10061000       -0.102319    1.960637   -0.150956
   13          6      10061000       -0.912319    0.819637   -0.123956
   14          8      10081000       -0.606319    3.156637   -0.566956
   15          8      10081000        2.049681    2.945637    0.234044
   16          1      10011000        0.116681    3.758637   -0.532956
   17          1      10011000        2.924681    2.615637    0.332044
   18          1      10011000       -0.967319   -2.094363    2.115044
   19          1      10011000        0.045681   -3.302363   -2.275956
   20          1      10011000        0.660681   -1.997363   -1.426956
   21          1      10011000        0.354681   -3.440363   -0.635956
   22          1      10011000        1.318681   -1.486363    1.009044
   23          1      10011000        2.767681    0.509637    0.978044
   24          1      10011000       -1.961319    0.917637   -0.450956
 ---------------------------------------------------------------------
                    Distance matrix (angstroms):
                    1          2          3          4          5
     1  C    0.000000
     2  C    1.534451   0.000000
     3  H    2.171697   1.118407   0.000000
     4  O    2.407498   1.411950   2.023076   0.000000
     5  C    2.529806   1.514705   2.147660   2.428431   0.000000
     6  N    1.496004   2.441988   3.416154   2.864154   2.922082
     7  H    1.114167   2.200357   2.534202   2.656046   3.501680
     8  H    1.115050   2.201663   2.539475   3.380848   2.799887
     9  C    3.410512   2.549240   3.383313   2.868637   1.397951
    10  C    4.621217   3.826226   4.528490   4.237193   2.423424
    11  C    5.122576   4.350437   4.810904   5.071748   2.836045
    12  C    4.580903   3.834714   4.035821   4.840016   2.456307
    13  C    3.329170   2.528188   2.661856   3.672256   1.398624
    14  O    5.571865   4.924465   4.916158   6.031624   3.692632
    15  O    6.441884   5.712749   6.146357   6.399001   4.198348
    16  H    6.303122   5.651952   5.737394   6.680870   4.306872
    17  H    6.722539   6.038887   6.602811   6.585550   4.542729
    18  H    3.220626   1.919357   2.272705   0.942161   2.520671
    19  H    2.119782   3.377399   4.247816   3.805664   3.885808
    20  H    2.121276   2.686918   3.712886   3.256202   2.577598
    21  H    2.119867   2.666427   3.694755   2.534637   3.250671
    22  H    3.526247   2.783768   3.752889   2.596851   2.176380
    23  H    5.446554   4.706963   5.486668   4.893000   3.416644
    24  H    3.357670   2.721591   2.456160   4.007192   2.161452
                    6          7          8          9         10
     6  N    0.000000
     7  H    2.134047   0.000000
     8  H    2.134016   1.815390   0.000000
     9  C    3.192738   4.372771   3.836601   0.000000
    10  C    4.318686   5.652608   4.836438   1.394509   0.000000
    11  C    5.075577   6.198515   5.055862   2.438749   1.398770
    12  C    4.908164   5.618413   4.314766   2.803190   2.409243
    13  C    3.926182   4.306772   3.130995   2.391380   2.751054
    14  O    6.033185   6.563906   5.100358   4.165939   3.662664
    15  O    6.304453   7.530882   6.310014   3.683431   2.403624
    16  H    6.606214   7.335521   5.864978   4.518479   3.732845
    17  H    6.384474   7.810212   6.686381   3.754640   2.370326
    18  H    3.679095   3.537395   4.088116   2.824278   4.072238
    19  H    1.042440   2.452512   2.466739   4.149813   5.166605
    20  H    1.042755   3.022363   2.462266   2.587409   3.500514
    21  H    1.042908   2.475450   3.021894   3.248527   4.461124
    22  H    3.020698   4.333023   4.202690   1.101930   2.155950
    23  H    4.912312   6.442118   5.747932   2.159204   1.102919
    24  H    4.291714   4.184546   2.938181   3.393729   3.854111
                   11         12         13         14         15
    11  C    0.000000
    12  C    1.402209   0.000000
    13  C    2.413693   1.399539   0.000000
    14  O    2.401289   1.362897   2.398219   0.000000
    15  O    1.362317   2.397823   3.663534   2.782168   0.000000
    16  H    2.345611   1.851132   3.140676   0.941429   2.232879
    17  H    1.854204   3.134492   4.261000   3.683591   0.940281
    18  H    4.889879   4.725040   3.675261   5.907321   6.167824
    19  H    5.863296   5.677737   4.747605   6.713007   7.025213
    20  H    4.239099   4.228015   3.479602   5.376672   5.396433
    21  H    5.438800   5.441955   4.473816   6.666985   6.664152
    22  H    3.424939   3.904696   3.402747   5.267528   4.558246
    23  H    2.162438   3.408364   3.853947   4.558235   2.646348
    24  H    3.405031   2.152610   1.103147   2.619657   4.546441
                   16         17         18         19         20
    16  H    0.000000
    17  H    3.152703   0.000000
    18  H    6.514950   6.364814   0.000000
    19  H    7.273294   7.079056   4.665438   0.000000
    20  H    5.850360   5.431348   3.899430   1.673933   0.000000
    21  H    7.203669   6.649591   3.335776   1.674552   1.673788
    22  H    5.597552   4.456901   2.611263   3.963535   2.574525
    23  H    4.457233   2.208439   4.692953   5.703433   4.063068
    24  H    3.520808   5.231567   4.079772   5.016680   4.040382
                   21         22         23         24
    21  H    0.000000
    22  H    2.730098   0.000000
    23  H    4.902047   2.466694   0.000000
    24  H    4.938648   4.320789   4.957010   0.000000
 Stoichiometry    C8H12NO3(1+)
 Framework group  C1[X(C8H12NO3)]
 Deg. of freedom    66
 Full point group                 C1
 Largest Abelian subgroup         C1      NOp   1
 Largest concise Abelian subgroup C1      NOp   1
                         Standard orientation:                         
 ---------------------------------------------------------------------
 Center     Atomic     Atomic              Coordinates (Angstroms)
 Number     Number      Type              X           Y           Z
 ---------------------------------------------------------------------
    1          6      10061003        2.724274    0.804481    0.699968
    2          6      10061003        1.981338    0.558032   -0.619824
    3          1      10011000        1.990695    1.500479   -1.221937
    4          8      10081003        2.689000   -0.390849   -1.389528
    5          6      10061000        0.540142    0.149356   -0.395614
    6          7      10071000        2.697611   -0.475829    1.473352
    7          1      10011000        3.785175    1.093799    0.520656
    8          1      10011000        2.227613    1.598931    1.304545
    9          6      10061000        0.152074   -1.191292   -0.316041
   10          6      10061000       -1.183924   -1.528024   -0.100695
   11          6      10061000       -2.172666   -0.549588    0.046310
   12          6      10061000       -1.799060    0.800103   -0.023985
   13          6      10061000       -0.453901    1.120770   -0.239467
   14          8      10081000       -2.729983    1.784944    0.120782
   15          8      10081000       -3.474272   -0.892376    0.256606
   16          1      10011000       -3.542498    1.339260    0.286531
   17          1      10011000       -3.466269   -1.806873    0.475145
   18          1      10011000        2.186515   -0.556112   -2.169184
   19          1      10011000        3.203431   -0.394403    2.381205
   20          1      10011000        1.725311   -0.779487    1.696427
   21          1      10011000        3.143780   -1.258593    0.948117
   22          1      10011000        0.896683   -1.997533   -0.414952
   23          1      10011000       -1.468165   -2.592109   -0.042723
   24          1      10011000       -0.173167    2.186665   -0.284081
 ---------------------------------------------------------------------
 Rotational constants (GHZ):      1.8243518      0.5272611      0.4834785
 Standard basis: Dummy (5D, 7F)
 There are    24 symmetry adapted basis functions of A   symmetry.
 Integral buffers will be    262144 words long.
 Raffenetti 1 integral format.
 Two-electron integral symmetry is turned on.
    24 basis functions,    24 primitive gaussians,    24 cartesian basis functions
    17 alpha electrons       17 beta electrons
       nuclear repulsion energy       107.0592207986 Hartrees.
 NAtoms=   24 NActive=   24 NUniq=   24 SFac= 7.50D-01 NAtFMM=   80 NAOKFM=F Big=F
 UFF calculation of energy and first derivatives.
 MO and density RWFs will be updated without deorthogonalization.
 NRF= 0 NRA=   0 NVA=  24 HaveQM=F
 Convergence limit is  0.750E-04 MaxStp=  5000 StMxLn= 1.00D-04 StpMin= 1.00D-06.
 Convergence criteria           0.00011250 0.00007500 0.00045000 0.00030000
  Step  NS  ND Rises OKQ   Scale  Max. Force  RMS Force Max. Disp.  RMS Disp.     Energy   Flag
     1   0   0   F    T  1.00D+00 0.09136152 0.02437665 0.09136152 0.02437665    0.0875922 ----
     2   0   0   F    F -1.22D-01 0.09136152 0.02437665 0.09136152 0.02437665    0.0691149 ----
     3   0   0   F    T  2.08D+00 0.03072493 0.00956649 0.03214114 0.01027680    0.0687457 ----
     4   0   0   F    F -2.01D-01 0.03072493 0.00956649 0.06691439 0.02139520    0.0636030 ----
     5   0   0   F    T  1.62D+00 0.03074060 0.00793458 0.04713979 0.01053443    0.0632565 ----
     6   0   0   F    F -6.86D-02 0.03074060 0.00793458 0.07653668 0.01710382    0.0598805 ----
     7   0   0   F    T  1.82D+00 0.02207626 0.00608242 0.03704330 0.00876331    0.0598625 ----
     8   0   0   F    F -2.67D-01 0.02207626 0.00608242 0.06734297 0.01593128    0.0583304 ----
     9   0   0   F    T  2.13D+00 0.01021249 0.00388804 0.01788665 0.00547007    0.0580997 ----
    10   0   0   F    F -1.17D-01 0.01021249 0.00388804 0.03816640 0.01167199    0.0570932 ----
    11   0   0   F    T  2.05D+00 0.00934488 0.00322928 0.01407022 0.00502956    0.0570755 ----
    12   0   0   F    F -9.36D-02 0.00934488 0.00322928 0.02884756 0.01031188    0.0563842 ----
    13   0   0   F    T  1.47D+00 0.01005064 0.00334418 0.01835905 0.00634357    0.0563767 ----
    14   0   0   F    F  1.20D-01 0.01005064 0.00334418 0.02704985 0.00934649    0.0557190 ----
    15   0   0   F    T  1.79D+00 0.01103945 0.00299875 0.01554073 0.00585799    0.0557114 ----
    16   0   0   F    F -9.86D-02 0.01103945 0.00299875 0.02776538 0.01046601    0.0551961 ----
    17   0   0   F    T  3.79D+00 0.00484790 0.00168950 0.00656924 0.00248823    0.0551898 ----
    18   0   0   F    F -4.99D-01 0.00484790 0.00168950 0.02490720 0.00943408    0.0551874 ----
    19   0   0   F    T  1.71D+00 0.00589503 0.00160707 0.00716694 0.00277150    0.0549946 ----
    20   0   0   F    F  3.80D-01 0.00589503 0.00160707 0.01223007 0.00472945    0.0547923 ----
    21   0   0   F    T  2.26D+00 0.00501434 0.00151427 0.00894754 0.00289386    0.0547757 ----
    22   0   0   F    F -1.64D-01 0.00501434 0.00151427 0.02018133 0.00652716    0.0546260 ----
    23   0   0   F    T  1.72D+00 0.00427887 0.00148811 0.01083252 0.00317007    0.0546201 ----
    24   0   0   F    F -6.51D-02 0.00427887 0.00148811 0.01865407 0.00545900    0.0544924 ----
    25   0   0   F    T  1.72D+00 0.00483858 0.00135530 0.01069027 0.00296693    0.0544918 ----
    26   0   0   F    F  2.95D-01 0.00483858 0.00135530 0.01838963 0.00510378    0.0543521 ----
    27   0   0   F    T  2.63D+00 0.00379504 0.00117058 0.00935149 0.00251655    0.0543445 ----
    28   0   0   F    F -3.25D-01 0.00379504 0.00117058 0.02456571 0.00661079    0.0542774 ----
    29   0   0   F    T  1.53D+00 0.00455311 0.00120659 0.01106671 0.00292055    0.0542569 ----
    30   0   0   F    F  3.34D-01 0.00455311 0.00120659 0.01689865 0.00445963    0.0541567 ----
    31   0   0   F    T  1.78D+00 0.00375933 0.00124920 0.01263851 0.00334029    0.0541500 ----
    32   0   0   F    F -1.52D-01 0.00375933 0.00124920 0.02251277 0.00595000    0.0540680 ----
    33   0   0   F    T  2.76D+00 0.00255507 0.00086365 0.00676346 0.00182556    0.0540653 ----
    34   0   0   F    F -3.48D-01 0.00255507 0.00086365 0.01869962 0.00504731    0.0540307 ----
    35   0   0   F    T  2.25D+00 0.00182095 0.00071836 0.00531339 0.00146016    0.0540169 ----
    36   0   0   F    F  1.79D-01 0.00182095 0.00071836 0.01197851 0.00329179    0.0539685 ----
    37   0   0   F    T  1.94D+00 0.00233060 0.00080739 0.00775656 0.00200606    0.0539674 ----
    38   0   0   F    F  1.82D-01 0.00233060 0.00080739 0.01501144 0.00388237    0.0539151 ----
    39   0   0   F    T  2.18D+00 0.00275900 0.00079811 0.00866406 0.00210909    0.0539138 ----
    40   0   0   F    F -2.54D-02 0.00275900 0.00079811 0.01885203 0.00458915    0.0538654 ----
    41   0   0   F    T  1.32D+00 0.00338205 0.00098448 0.01371782 0.00338526    0.0538653 ----
    42   0   0   F    F  5.60D-01 0.00338205 0.00098448 0.01812478 0.00447280    0.0538025 ----
    43   0   0   F    T  2.52D+00 0.00269511 0.00086376 0.01117008 0.00276692    0.0537932 ----
    44   0   0   F    F -2.33D-01 0.00269511 0.00086376 0.02817465 0.00697908    0.0537459 ----
    45   0   0   F    T  2.96D+00 0.00211016 0.00068513 0.00800236 0.00180958    0.0537410 ----
    46   0   0   F    F -4.66D-01 0.00211016 0.00068513 0.02367117 0.00535279    0.0537346 ----
    47   0   0   F    T  1.78D+00 0.00205872 0.00061763 0.00743051 0.00160224    0.0537144 ----
    48   0   0   F    F -1.17D-01 0.00205872 0.00061763 0.01325068 0.00285724    0.0536932 ----
    49   0   0   F    T  1.66D+00 0.00169470 0.00057641 0.00701886 0.00152450    0.0536928 ----
    50   0   0   F    F  5.77D-01 0.00169470 0.00057641 0.01161649 0.00252311    0.0536658 ----
    51   0   0   F    T  2.36D+00 0.00200561 0.00058511 0.00793368 0.00168443    0.0536616 ----
    52   0   0   F    F -1.95D-01 0.00200561 0.00058511 0.01873717 0.00397817    0.0536395 ----
    53   0   0   F    T  2.99D+00 0.00120743 0.00044627 0.00531569 0.00107051    0.0536381 ----
    54   0   0   F    F -4.32D-01 0.00120743 0.00044627 0.01590539 0.00320313    0.0536330 ----
    55   0   0   F    T  3.04D+00 0.00084974 0.00030812 0.00280486 0.00059753    0.0536259 ----
    56   0   0   F    F -4.02D-01 0.00084974 0.00030812 0.00853854 0.00181900    0.0536225 ----
    57   0   0   F    T  1.54D+00 0.00115485 0.00031612 0.00309166 0.00070462    0.0536197 ----
    58   0   0   F    F  2.73D-01 0.00115485 0.00031612 0.00477002 0.00108713    0.0536130 ----
    59   0   0   F    T  2.01D+00 0.00104055 0.00029685 0.00284415 0.00068858    0.0536127 ----
    60   0   0   F    F -5.15D-02 0.00104055 0.00029685 0.00571421 0.00138344    0.0536066 ----
    61   0   0   F    T  2.16D+00 0.00079012 0.00026460 0.00222720 0.00060742    0.0536066 ----
    62   0   0   F    F -2.86D-01 0.00079012 0.00026460 0.00481118 0.00131213    0.0536034 ----
    63   0   0   F    T  2.98D+00 0.00047663 0.00017383 0.00090595 0.00031483    0.0536027 ----
    64   0   0   F    F -1.59D-01 0.00047663 0.00017383 0.00269655 0.00093709    0.0536001 ----
    65   0   0   F    T  1.46D+00 0.00087680 0.00021777 0.00155075 0.00053998    0.0536000 ----
    66   0   0   F    F  4.50D-02 0.00087680 0.00021777 0.00226290 0.00078795    0.0535974 ----
    67   0   0   F    T  1.59D+00 0.00061537 0.00020449 0.00143393 0.00051807    0.0535974 ----
    68   0   0   F    F  5.67D-01 0.00061537 0.00020449 0.00227913 0.00082343    0.0535942 ----
    69   0   0   F    T  2.62D+00 0.00048083 0.00019120 0.00126043 0.00049296    0.0535937 ----
    70   0   0   F    F -2.08D-01 0.00048083 0.00019120 0.00329901 0.00129026    0.0535911 ----
    71   0   0   F    T  2.64D+00 0.00041838 0.00016147 0.00117799 0.00038712    0.0535909 ----
    72   0   0   F    F -9.22D-02 0.00041838 0.00016147 0.00310981 0.00102198    0.0535887 ----
    73   0   0   F    T  1.48D+00 0.00061936 0.00020050 0.00176209 0.00062839    0.0535887 ----
    74   0   0   F    F  2.55D-01 0.00061936 0.00020050 0.00260151 0.00092774    0.0535861 ----
    75   0   0   F    T  3.85D+00 0.00036799 0.00013224 0.00088871 0.00030249    0.0535860 ----
    76   0   0   T    F  3.51D-01 0.00036799 0.00013224 0.00342023 0.00116415    0.0535881 ----
    77   0   0   F    T  1.47D+00 0.00032789 0.00012032 0.00099498 0.00027792    0.0535851 ---+
    78   0   0   F    F  1.38D+00 0.00032789 0.00012032 0.00146116 0.00040813    0.0535839 ----
    79   0   0   F    T  2.04D+00 0.00038965 0.00015318 0.00184360 0.00047600    0.0535833 ----
    80   0   0   F    F  4.79D-02 0.00038965 0.00015318 0.00375749 0.00097014    0.0535815 ----
    81   0   0   F    T  2.91D+00 0.00029279 0.00012679 0.00146162 0.00034978    0.0535815 ----
    82   0   0   F    F -1.77D-01 0.00029279 0.00012679 0.00424808 0.00101661    0.0535802 ----
    83   0   0   F    T  1.17D+00 0.00079227 0.00017855 0.00304413 0.00071616    0.0535801 ----
    84   0   0   F    F  6.92D-01 0.00079227 0.00017855 0.00355544 0.00083645    0.0535783 ----
    85   0   0   F    T  2.02D+00 0.00069113 0.00017397 0.00295780 0.00070191    0.0535779 ----
    86   0   0   F    F -3.82D-02 0.00069113 0.00017397 0.00596440 0.00141540    0.0535758 ----
    87   0   0   F    T  2.23D+00 0.00045481 0.00015940 0.00248068 0.00061115    0.0535758 ----
    88   0   0   F    F  7.48D-01 0.00045481 0.00015940 0.00552580 0.00136135    0.0535729 ----
    89   0   0   F    T  1.82D+00 0.00074366 0.00023101 0.00515257 0.00130500    0.0535722 ----
    90   0   0   F    F  1.71D-01 0.00074366 0.00023101 0.00939446 0.00237935    0.0535682 ----
    91   0   0   F    T  1.37D+00 0.00082222 0.00028687 0.00784314 0.00203301    0.0535681 ----
    92   0   0   F    F  8.26D-01 0.00082222 0.00028687 0.01074902 0.00278624    0.0535622 ----
    93   0   0   F    T  2.98D+00 0.00066529 0.00026095 0.00633914 0.00170410    0.0535607 ----
    94   0   0   T    F  4.15D-01 0.00066529 0.00026095 0.01892098 0.00508636    0.0535637 ----
    95   0   0   F    T  3.43D+00 0.00036858 0.00015448 0.00204635 0.00061574    0.0535577 ----
    96   0   0   F    F -1.89D-01 0.00036858 0.00015448 0.00701223 0.00210997    0.0535554 ----
    97   0   0   F    T  1.79D+00 0.00049477 0.00019066 0.00299239 0.00095731    0.0535553 ----
    98   0   0   F    F  2.63D-01 0.00049477 0.00019066 0.00534633 0.00171037    0.0535524 ----
    99   0   0   F    T  3.13D+00 0.00041887 0.00015949 0.00204256 0.00069002    0.0535523 ----
   100   0   0   T    F  4.89D-01 0.00041887 0.00015949 0.00639554 0.00216055    0.0535524 ----
   101   0   0   F    T  2.06D+00 0.00050711 0.00013512 0.00144148 0.00051281    0.0535509 ----
   102   0   0   F    F -2.21D-01 0.00050711 0.00013512 0.00297138 0.00105708    0.0535499 ----
   103   0   0   F    T  1.46D+00 0.00036071 0.00013936 0.00150766 0.00056283    0.0535499 ----
   104   0   0   F    F  9.59D-01 0.00036071 0.00013936 0.00220458 0.00082301    0.0535483 ----
   105   0   0   F    T  3.24D+00 0.00034837 0.00012877 0.00126574 0.00049718    0.0535479 ----
   106   0   0   F    F -4.92D-01 0.00034837 0.00012877 0.00410422 0.00161214    0.0535478 ----
   107   0   0   F    T  2.02D+00 0.00031973 0.00011391 0.00103766 0.00040546    0.0535469 ----
   108   0   0   F    F -8.94D-02 0.00031973 0.00011391 0.00209629 0.00081911    0.0535460 ----
   109   0   0   F    T  1.65D+00 0.00029857 0.00011825 0.00125162 0.00045282    0.0535460 ----
   110   0   0   F    F  5.55D-01 0.00029857 0.00011825 0.00206160 0.00074585    0.0535449 ----
   111   0   0   F    T  1.84D+00 0.00042913 0.00013792 0.00189323 0.00063084    0.0535447 ----
   112   0   0   F    F  1.16D-01 0.00042913 0.00013792 0.00348041 0.00115970    0.0535433 ----
   113   0   0   F    T  2.45D+00 0.00040084 0.00012451 0.00171071 0.00052815    0.0535433 ----
   114   0   0   F    F  1.74D-01 0.00040084 0.00012451 0.00419336 0.00129462    0.0535417 ----
   115   0   0   F    T  2.57D+00 0.00041490 0.00013009 0.00198727 0.00059108    0.0535417 ----
   116   0   0   F    F -3.22D-01 0.00041490 0.00013009 0.00510804 0.00151929    0.0535409 ----
   117   0   0   F    T  2.34D+00 0.00034397 0.00011057 0.00150116 0.00044117    0.0535407 ----
   118   0   0   F    T  1.94D+00 0.00040038 0.00012058 0.00177450 0.00053255    0.0535396 ----
   119   0   0   F    F -2.67D-01 0.00040038 0.00012058 0.00343449 0.00103072    0.0535390 ----
   120   0   0   F    T  2.01D+00 0.00030054 0.00009769 0.00121325 0.00037532    0.0535389 ----
   121   0   0   F    T  2.45D+00 0.00027940 0.00008581 0.00110642 0.00030788    0.0535382 ----
   122   0   0   F    F -1.94D-01 0.00027940 0.00008581 0.00271505 0.00075550    0.0535377 ----
   123   0   0   F    T  2.00D+00 0.00024670 0.00008603 0.00116189 0.00030395    0.0535377 ----
   124   0   0   F    F -1.34D-01 0.00024670 0.00008603 0.00232796 0.00060900    0.0535372 ----
   125   0   0   F    T  1.72D+00 0.00026225 0.00008358 0.00120703 0.00030659    0.0535372 ----
   126   0   0   F    F  1.62D-01 0.00026225 0.00008358 0.00207579 0.00052726    0.0535367 ----
   127   0   0   F    T  2.12D+00 0.00019754 0.00007950 0.00115350 0.00028835    0.0535367 ---+
   128   0   0   F    T  2.20D+00 0.00021325 0.00007613 0.00110837 0.00027830    0.0535362 ---+
   129   0   0   F    F  3.35D-01 0.00021325 0.00007613 0.00244021 0.00061271    0.0535357 ----
   130   0   0   F    T  2.57D+00 0.00023811 0.00008109 0.00122990 0.00031803    0.0535356 ----
   131   0   0   F    F -1.57D-01 0.00023811 0.00008109 0.00316285 0.00081787    0.0535351 ----
   132   0   0   F    T  1.96D+00 0.00029454 0.00008360 0.00136657 0.00035169    0.0535351 ----
   133   0   0   F    F -7.58D-02 0.00029454 0.00008360 0.00268058 0.00068986    0.0535347 ----
   134   0   0   F    T  2.02D+00 0.00035123 0.00007804 0.00126019 0.00031601    0.0535347 ----
   135   0   0   F    F -7.95D-02 0.00035123 0.00007804 0.00254246 0.00063755    0.0535343 ----
   136   0   0   F    T  2.14D+00 0.00020678 0.00007146 0.00110764 0.00027440    0.0535343 -+-+
   137   0   0   F    T  1.94D+00 0.00018798 0.00007390 0.00121968 0.00030203    0.0535339 -+--
   138   0   0   F    F  2.21D-01 0.00018798 0.00007390 0.00237005 0.00058689    0.0535334 -+--
   139   0   0   F    T  1.95D+00 0.00034145 0.00008035 0.00150066 0.00036836    0.0535334 ----
   140   0   0   F    F  1.92D-01 0.00034145 0.00008035 0.00292032 0.00071683    0.0535329 ----
   141   0   0   F    T  1.44D+00 0.00033705 0.00010155 0.00242316 0.00059496    0.0535329 ----
   142   0   0   F    F  1.83D-01 0.00033705 0.00010155 0.00348027 0.00085452    0.0535322 ----
   143   0   0   F    T  2.17D+00 0.00022893 0.00008896 0.00185272 0.00046523    0.0535322 ----
   144   0   0   F    T  2.52D+00 0.00016735 0.00008145 0.00152049 0.00040056    0.0535316 ----
   145   0   0   F    F -1.15D-01 0.00016735 0.00008145 0.00383695 0.00101080    0.0535311 ----
   146   0   0   F    T  1.89D+00 0.00023501 0.00008814 0.00172397 0.00047312    0.0535311 ----
   147   0   0   F    F  2.36D-01 0.00023501 0.00008814 0.00325882 0.00089434    0.0535304 ----
   148   0   0   F    T  2.76D+00 0.00030409 0.00008007 0.00135640 0.00040041    0.0535304 ----
   149   0   0   F    F -3.82D-01 0.00030409 0.00008007 0.00374451 0.00110539    0.0535302 ----
   150   0   0   F    T  1.28D+00 0.00031406 0.00009157 0.00167900 0.00053199    0.0535300 ----
   151   0   0   F    F  1.85D+00 0.00031406 0.00009157 0.00215584 0.00068308    0.0535294 ----
   152   0   0   F    T  2.77D+00 0.00028812 0.00010474 0.00210866 0.00070434    0.0535289 ----
   153   0   0   F    F -3.79D-01 0.00028812 0.00010474 0.00583675 0.00194961    0.0535285 ----
   154   0   0   F    T  2.46D+00 0.00022889 0.00008685 0.00139035 0.00049099    0.0535282 ----
   155   0   0   F    F  2.50D-01 0.00022889 0.00008685 0.00342607 0.00120989    0.0535274 ----
   156   0   0   F    T  1.97D+00 0.00032948 0.00010807 0.00209251 0.00076720    0.0535274 ----
   157   0   0   F    F -7.54D-02 0.00032948 0.00010807 0.00412560 0.00151262    0.0535266 ----
   158   0   0   F    T  2.16D+00 0.00031809 0.00009853 0.00166144 0.00064614    0.0535266 ----
   159   0   0   F    F -1.62D-01 0.00031809 0.00009853 0.00359631 0.00139861    0.0535260 ----
   160   0   0   F    T  1.83D+00 0.00029217 0.00009743 0.00155114 0.00064046    0.0535260 ----
   161   0   0   F    F -8.44D-02 0.00029217 0.00009743 0.00283708 0.00117142    0.0535254 ----
   162   0   0   F    T  2.06D+00 0.00027340 0.00008716 0.00122156 0.00052014    0.0535254 ----
   163   0   0   F    F  3.28D-01 0.00027340 0.00008716 0.00251895 0.00107257    0.0535247 ----
   164   0   0   F    T  2.17D+00 0.00030710 0.00009745 0.00148808 0.00065654    0.0535247 ----
   165   0   0   F    F -1.34D-01 0.00030710 0.00009745 0.00322750 0.00142398    0.0535241 ----
   166   0   0   F    T  1.67D+00 0.00040928 0.00010303 0.00163940 0.00074016    0.0535240 ----
   167   0   0   F    F  7.87D-02 0.00040928 0.00010303 0.00273126 0.00123311    0.0535234 ----
   168   0   0   F    T  2.07D+00 0.00026784 0.00009542 0.00140751 0.00064169    0.0535234 ----
   169   0   0   F    F  3.06D-01 0.00026784 0.00009542 0.00291761 0.00133014    0.0535225 ----
   170   0   0   F    T  2.26D+00 0.00029026 0.00010405 0.00171805 0.00076967    0.0535225 ----
   171   0   0   F    F  3.45D-01 0.00029026 0.00010405 0.00387712 0.00173692    0.0535214 ----
   172   0   0   F    T  2.11D+00 0.00033129 0.00012435 0.00254732 0.00110756    0.0535213 ----
   173   0   0   F    F  1.49D-01 0.00033129 0.00012435 0.00537402 0.00233660    0.0535200 ----
   174   0   0   F    T  1.84D+00 0.00044342 0.00014241 0.00345282 0.00145572    0.0535199 ----
   175   0   0   F    F  1.73D-01 0.00044342 0.00014241 0.00636641 0.00268411    0.0535184 ----
   176   0   0   F    T  1.99D+00 0.00049862 0.00014863 0.00383847 0.00158463    0.0535184 ----
   177   0   0   F    F -1.33D-01 0.00049862 0.00014863 0.00762902 0.00314948    0.0535170 ----
   178   0   0   F    T  2.35D+00 0.00036897 0.00012690 0.00287679 0.00116216    0.0535170 ----
   179   0   0   F    F -1.48D-01 0.00036897 0.00012690 0.00676249 0.00273188    0.0535159 ----
   180   0   0   F    T  1.81D+00 0.00037394 0.00013319 0.00324738 0.00128649    0.0535158 ----
   181   0   0   F    F  6.10D-01 0.00037394 0.00013319 0.00587751 0.00232845    0.0535142 ----
   182   0   0   F    T  2.17D+00 0.00047646 0.00015420 0.00443389 0.00172492    0.0535140 ----
   183   0   0   F    F -3.51D-01 0.00047646 0.00015420 0.00963838 0.00374962    0.0535131 ----
   184   0   0   F    T  2.93D+00 0.00035273 0.00010661 0.00216633 0.00083180    0.0535128 ----
   185   0   0   T    F  4.61D-01 0.00035273 0.00010661 0.00633997 0.00243434    0.0535130 ----
   186   0   0   F    T  1.56D+00 0.00031309 0.00009865 0.00188603 0.00071976    0.0535122 ----
   187   0   0   F    F  1.66D+00 0.00031309 0.00009865 0.00293803 0.00112123    0.0535113 ----
   188   0   0   F    T  2.65D+00 0.00034854 0.00012281 0.00293990 0.00112561    0.0535108 ----
   189   0   0   F    F -2.84D-01 0.00034854 0.00012281 0.00778841 0.00298197    0.0535099 ----
   190   0   0   F    T  2.05D+00 0.00030598 0.00011755 0.00271144 0.00104082    0.0535097 ----
   191   0   0   F    F  5.01D-02 0.00030598 0.00011755 0.00555965 0.00213413    0.0535087 ----
   192   0   0   F    T  2.30D+00 0.00040339 0.00011349 0.00251662 0.00097237    0.0535087 ----
   193   0   0   F    F -1.61D-01 0.00040339 0.00011349 0.00580026 0.00224110    0.0535078 ----
   194   0   0   F    T  1.57D+00 0.00038344 0.00012572 0.00308378 0.00119750    0.0535078 ----
   195   0   0   F    F  2.89D-01 0.00038344 0.00012572 0.00483923 0.00187918    0.0535067 ----
   196   0   0   F    T  4.16D+00 0.00021908 0.00008696 0.00157683 0.00058193    0.0535066 ----
   197   0   0   F    F -4.57D-01 0.00021908 0.00008696 0.00656543 0.00242297    0.0535064 ----
   198   0   0   F    T  1.56D+00 0.00035126 0.00010415 0.00238784 0.00084206    0.0535060 ----
   199   0   0   F    F  7.61D-01 0.00035126 0.00010415 0.00372967 0.00131526    0.0535051 ----
   200   0   0   F    T  3.29D+00 0.00035817 0.00009481 0.00201183 0.00070383    0.0535049 ----
   201   0   0   T    F  4.68D-01 0.00035817 0.00009481 0.00662237 0.00231680    0.0535051 ----
   202   0   0   F    T  2.71D+00 0.00031502 0.00007096 0.00113578 0.00039954    0.0535044 -+--
   203   0   0   F    F -4.73D-01 0.00031502 0.00007096 0.00308029 0.00108357    0.0535044 -+--
   204   0   0   F    T  1.75D+00 0.00018655 0.00006351 0.00092661 0.00032628    0.0535042 -+--
   205   0   0   F    F  3.94D-01 0.00018655 0.00006351 0.00162179 0.00057107    0.0535038 -+--
   206   0   0   F    T  2.09D+00 0.00031706 0.00006801 0.00109785 0.00038063    0.0535038 -+--
   207   0   0   F    F  1.75D-01 0.00031706 0.00006801 0.00229643 0.00079618    0.0535034 -+--
   208   0   0   F    T  1.87D+00 0.00023120 0.00007740 0.00145202 0.00049934    0.0535034 ----
   209   0   0   F    F -1.33D-01 0.00023120 0.00007740 0.00272097 0.00093572    0.0535031 ----
   210   0   0   F    T  1.60D+00 0.00029442 0.00007760 0.00147699 0.00050761    0.0535030 ----
   211   0   0   F    F  7.84D-01 0.00029442 0.00007760 0.00236087 0.00081139    0.0535025 ----
   212   0   0   F    T  1.69D+00 0.00032311 0.00010050 0.00246126 0.00085687    0.0535024 ----
   213   0   0   F    F  7.14D-01 0.00032311 0.00010050 0.00415899 0.00144792    0.0535016 ----
   214   0   0   F    T  2.04D+00 0.00043032 0.00011960 0.00342487 0.00121941    0.0535014 ----
   215   0   0   F    F  1.31D-01 0.00043032 0.00011960 0.00697042 0.00248179    0.0535002 ----
   216   0   0   F    T  2.36D+00 0.00030641 0.00011774 0.00322078 0.00118722    0.0535002 ----
   217   0   0   F    F  1.04D-01 0.00030641 0.00011774 0.00761261 0.00280611    0.0534989 ----
   218   0   0   F    T  1.49D+00 0.00045313 0.00015585 0.00550642 0.00208061    0.0534989 ----
   219   0   0   F    F  1.02D+00 0.00045313 0.00015585 0.00820127 0.00309886    0.0534969 ----
   220   0   0   F    T  1.34D+00 0.00098997 0.00023384 0.01219397 0.00467083    0.0534962 ----
   221   0   0   F    F  9.06D-01 0.00098997 0.00023384 0.01635354 0.00626414    0.0534923 ----
   222   0   0   F    T  2.41D+00 0.00059868 0.00024244 0.01270360 0.00495463    0.0534912 ----
   223   0   0   F    F -1.13D-01 0.00059868 0.00024244 0.03061198 0.01193922    0.0534868 ----
   224   0   0   F    T  2.26D+00 0.00066761 0.00023745 0.01176499 0.00467869    0.0534867 ----
   225   0   0   F    F -7.49D-02 0.00066761 0.00023745 0.02661666 0.01058489    0.0534824 ----
   226   0   0   F    T  3.19D+00 0.00049741 0.00019556 0.00755357 0.00306899    0.0534824 ----
   227   0   0   F    F -4.21D-01 0.00049741 0.00019556 0.02410090 0.00979211    0.0534812 ----
   228   0   0   F    T  1.58D+00 0.00064572 0.00021214 0.00869647 0.00359790    0.0534799 ----
   229   0   0   F    F  4.75D-01 0.00064572 0.00021214 0.01371139 0.00567267    0.0534765 ----
   230   0   0   F    T  1.57D+00 0.00100001 0.00025820 0.01278371 0.00533596    0.0534761 ----
   231   0   0   F    F  2.07D-01 0.00100001 0.00025820 0.02005204 0.00836978    0.0534717 ----
   232   0   0   F    T  2.93D+00 0.00067804 0.00020582 0.00823714 0.00344868    0.0534716 ----
   233   0   0   F    F -4.67D-01 0.00067804 0.00020582 0.02413372 0.01010417    0.0534710 ----
   234   0   0   F    T  2.87D+00 0.00049125 0.00015110 0.00456498 0.00187386    0.0534692 ----
   235   0   0   F    F -3.98D-01 0.00049125 0.00015110 0.01312143 0.00538618    0.0534684 ----
   236   0   0   F    T  1.93D+00 0.00049221 0.00014247 0.00425230 0.00167654    0.0534678 ----
   237   0   0   F    F -2.32D-01 0.00049221 0.00014247 0.00822350 0.00324224    0.0534668 ----
   238   0   0   F    T  2.76D+00 0.00029620 0.00010418 0.00243488 0.00090190    0.0534667 ----
   239   0   0   F    T  2.03D+00 0.00033129 0.00012172 0.00342383 0.00122775    0.0534656 ----
   240   0   0   F    F  1.29D-01 0.00033129 0.00012172 0.00694314 0.00248974    0.0534644 ----
   241   0   0   F    T  2.94D+00 0.00026551 0.00010667 0.00274390 0.00095695    0.0534644 ----
   242   0   0   F    F -3.50D-01 0.00026551 0.00010667 0.00805691 0.00280990    0.0534638 ----
   243   0   0   F    T  1.89D+00 0.00023831 0.00010723 0.00281797 0.00096706    0.0534636 ----
   244   0   0   F    F  2.97D-01 0.00023831 0.00010723 0.00532618 0.00182781    0.0534626 ----
   245   0   0   F    T  1.70D+00 0.00041342 0.00012867 0.00408373 0.00139664    0.0534626 ----
   246   0   0   F    F  1.38D-01 0.00041342 0.00012867 0.00693357 0.00237129    0.0534614 ----
   247   0   0   F    T  2.79D+00 0.00035575 0.00010687 0.00280012 0.00096757    0.0534614 ----
   248   0   0   F    F -4.30D-01 0.00035575 0.00010687 0.00781043 0.00269886    0.0534611 ----
   249   0   0   F    T  2.41D+00 0.00024444 0.00008642 0.00178516 0.00063921    0.0534608 ----
   250   0   0   F    F  3.69D-01 0.00024444 0.00008642 0.00429441 0.00153769    0.0534599 ----
   251   0   0   F    T  2.80D+00 0.00025650 0.00009345 0.00198502 0.00075322    0.0534599 ----
   252   0   0   F    F -1.15D-01 0.00025650 0.00009345 0.00554936 0.00210571    0.0534591 ----
   253   0   0   F    T  1.68D+00 0.00042657 0.00011326 0.00296183 0.00111124    0.0534591 ----
   254   0   0   F    F -1.67D-01 0.00042657 0.00011326 0.00496755 0.00186377    0.0534585 ----
   255   0   0   F    T  2.77D+00 0.00023691 0.00008008 0.00157026 0.00056123    0.0534585 ----
   256   0   0   F    F -1.19D-01 0.00023691 0.00008008 0.00434515 0.00155301    0.0534579 ----
   257   0   0   F    T  1.48D+00 0.00029267 0.00010236 0.00266305 0.00092222    0.0534579 ----
   258   0   0   F    F  1.01D+00 0.00029267 0.00010236 0.00394978 0.00136781    0.0534570 ----
   259   0   0   F    T  2.20D+00 0.00043242 0.00011908 0.00365010 0.00124622    0.0534568 ----
   260   0   0   F    F -3.26D-01 0.00043242 0.00011908 0.00804204 0.00274571    0.0534562 ----
   261   0   0   F    T  1.80D+00 0.00032714 0.00010813 0.00302675 0.00102669    0.0534560 ----
   262   0   0   F    T  2.93D+00 0.00021497 0.00008333 0.00184531 0.00063124    0.0534553 ----
   263   0   0   F    F -3.13D-01 0.00021497 0.00008333 0.00541096 0.00185095    0.0534549 ----
   264   0   0   F    T  2.40D+00 0.00022183 0.00007676 0.00153136 0.00052995    0.0534548 ----
   265   0   0   F    F -2.62D-01 0.00022183 0.00007676 0.00367565 0.00127202    0.0534544 ----
   266   0   0   F    T  2.65D+00 0.00017469 0.00006197 0.00107055 0.00035479    0.0534544 -+--
   267   0   0   F    F -2.49D-01 0.00017469 0.00006197 0.00283429 0.00093931    0.0534541 -+--
   268   0   0   F    T  2.43D+00 0.00023788 0.00005550 0.00091228 0.00029004    0.0534541 -+-+
   269   0   0   F    F -2.32D-01 0.00023788 0.00005550 0.00221862 0.00070535    0.0534539 -+--
   270   0   0   F    T  1.63D+00 0.00020341 0.00005890 0.00104877 0.00033232    0.0534539 -+--
   271   0   0   F    F  1.08D-01 0.00020341 0.00005890 0.00170972 0.00054175    0.0534537 -+--
   272   0   0   F    T  3.92D+00 0.00010240 0.00003935 0.00046778 0.00015336    0.0534537 ++-+
   273   0   0   F    F -3.62D-01 0.00010240 0.00003935 0.00183152 0.00060047    0.0534536 ++--
   274   0   0   F    T  1.79D+00 0.00014769 0.00004594 0.00063009 0.00021402    0.0534535 -+-+
   275   0   0   F    F  5.08D-01 0.00014769 0.00004594 0.00112714 0.00038285    0.0534534 -+--
   276   0   0   F    T  1.73D+00 0.00016734 0.00005698 0.00102993 0.00033401    0.0534533 -+--
   277   0   0   F    T  2.03D+00 0.00015525 0.00005249 0.00095575 0.00028455    0.0534531 -+-+
   278   0   0   F    F -1.54D-01 0.00015525 0.00005249 0.00193916 0.00057734    0.0534530 -+--
   279   0   0   F    T  1.99D+00 0.00014458 0.00004773 0.00087593 0.00024529    0.0534530 -+-+
   280   0   0   F    F  1.96D-01 0.00014458 0.00004773 0.00174404 0.00048839    0.0534528 -+--
   281   0   0   F    T  2.16D+00 0.00015103 0.00004991 0.00102543 0.00027015    0.0534528 -+-+
   282   0   0   F    F -1.79D-01 0.00015103 0.00004991 0.00221740 0.00058417    0.0534526 -+--
   283   0   0   F    T  2.18D+00 0.00012310 0.00004451 0.00089411 0.00021960    0.0534526 -+-+
   284   0   0   F    F -1.71D-01 0.00012310 0.00004451 0.00195237 0.00047951    0.0534525 -+--
   285   0   0   F    T  1.58D+00 0.00014473 0.00004717 0.00106658 0.00025104    0.0534525 -+-+
   286   0   0   F    F  7.86D-01 0.00014473 0.00004717 0.00168800 0.00039731    0.0534523 -+--
   287   0   0   F    T  2.93D+00 0.00014335 0.00004595 0.00103610 0.00024249    0.0534522 -+-+
   288   0   0   F    F -4.55D-01 0.00014335 0.00004595 0.00303187 0.00070959    0.0534522 -+--
   289   0   0   F    T  2.09D+00 0.00010937 0.00003968 0.00077824 0.00018500    0.0534521 ++-+
   290   0   0   F    F  6.65D-01 0.00010937 0.00003968 0.00162723 0.00038682    0.0534520 ++--
   291   0   0   F    T  2.09D+00 0.00015697 0.00005082 0.00123068 0.00030784    0.0534519 -+--
   292   0   0   F    T  1.63D+00 0.00015914 0.00005662 0.00159498 0.00039443    0.0534517 -+--
   293   0   0   F    T  2.69D+00 0.00014115 0.00004617 0.00104731 0.00023969    0.0534516 -+-+
   294   0   0   F    T  1.60D+00 0.00023365 0.00005847 0.00179714 0.00040374    0.0534513 -+--
   295   0   0   F    F  8.44D-01 0.00023365 0.00005847 0.00286725 0.00064415    0.0534511 -+--
   296   0   0   F    T  1.52D+00 0.00021653 0.00008248 0.00352369 0.00078205    0.0534510 ----
   297   0   0   F    F  2.74D-01 0.00021653 0.00008248 0.00535269 0.00118798    0.0534505 ----
   298   0   0   F    T  2.00D+00 0.00028497 0.00008015 0.00346085 0.00075531    0.0534505 ----
   299   0   0   F    F -3.07D-01 0.00028497 0.00008015 0.00693423 0.00151335    0.0534503 ----
   300   0   0   F    T  3.17D+00 0.00011819 0.00005303 0.00152716 0.00033096    0.0534502 -+--
   301   0   0   F    F -1.62D-01 0.00011819 0.00005303 0.00484183 0.00104930    0.0534499 -+--
   302   0   0   F    T  2.06D+00 0.00015284 0.00005998 0.00195354 0.00042734    0.0534499 -+--
   303   0   0   F    F  5.98D-02 0.00015284 0.00005998 0.00401789 0.00087891    0.0534496 -+--
   304   0   0   F    T  3.62D+00 0.00013111 0.00004611 0.00117491 0.00025735    0.0534496 -+-+
   305   0   0   T    F  3.71D-01 0.00013111 0.00004611 0.00425261 0.00093148    0.0534498 -+--
   306   0   0   F    T  2.23D+00 0.00011577 0.00003527 0.00067493 0.00015492    0.0534495 -+-+
   307   0   0   F    F -2.18D-01 0.00011577 0.00003527 0.00150400 0.00034522    0.0534495 -+--
   308   0   0   F    T  1.91D+00 0.00009776 0.00003321 0.00056925 0.00014137    0.0534495 ++-+
   309   0   0   F    F  2.71D-01 0.00009776 0.00003321 0.00108697 0.00026994    0.0534494 ++-+
   310   0   0   F    T  2.73D+00 0.00008414 0.00003085 0.00050893 0.00012576    0.0534494 ++-+
   311   0   0   F    F -3.18D-01 0.00008414 0.00003085 0.00138839 0.00034307    0.0534493 ++--
   312   0   0   F    T  2.28D+00 0.00009184 0.00002736 0.00042587 0.00010258    0.0534493 ====
 Energy=    0.053449300549 NIter=   0.
 Dipole moment=       0.000000       0.000000       0.000000
 ***** Axes restored to original set *****
 -------------------------------------------------------------------
 Center     Atomic                   Forces (Hartrees/Bohr)
 Number     Number              X              Y              Z
 -------------------------------------------------------------------
    1          6          -0.000000304   -0.000029280    0.000017152
    2          6           0.000002780   -0.000016401    0.000002499
    3          1          -0.000055218    0.000021058   -0.000004707
    4          8           0.000034068   -0.000000737    0.000008305
    5          6          -0.000041597    0.000031048   -0.000021309
    6          7          -0.000013908    0.000022657    0.000038081
    7          1           0.000021377    0.000011859   -0.000013329
    8          1           0.000007768    0.000006689    0.000002211
    9          6          -0.000049747    0.000004984   -0.000006268
   10          6          -0.000012718    0.000026754   -0.000038896
   11          6           0.000017049   -0.000106469    0.000046268
   12          6           0.000026634    0.000047312   -0.000017658
   13          6           0.000036781   -0.000032627    0.000028674
   14          8          -0.000015250    0.000016848    0.000012869
   15          8           0.000047186    0.000035406    0.000000023
   16          1          -0.000020208   -0.000011581    0.000017667
   17          1          -0.000032102   -0.000009210   -0.000019988
   18          1          -0.000046398   -0.000002961   -0.000019134
   19          1           0.000025739    0.000002964   -0.000002932
   20          1          -0.000008144   -0.000009710    0.000026165
   21          1           0.000017720    0.000021458   -0.000007586
   22          1           0.000024711   -0.000002691    0.000004267
   23          1           0.000044141   -0.000004286   -0.000038184
   24          1          -0.000010359   -0.000023086   -0.000014190
 -------------------------------------------------------------------
 Cartesian Forces:  Max     0.000106469 RMS     0.000027357

 GradGradGradGradGradGradGradGradGradGradGradGradGradGradGradGradGradGrad
 Berny optimization.
 Search for a local minimum.
 Step number   1 out of a maximum of   2
 All quantities printed in internal units (Hartrees-Bohrs-Radians)
 Second derivative matrix not updated -- unit matrix used.
 RFO step:  Lambda=-5.38843527D-08.
 Linear search not attempted -- first point.
 TrRot=  0.000000  0.000000  0.000000  0.000000  0.000000  0.000000
 Variable       Old X    -DE/DX   Delta X   Delta X   Delta X     New X
                                 (Linear)    (Quad)   (Total)
    X1       -2.66327   0.00000   0.00000   0.00000   0.00000  -2.66327
    Y1       -4.33205  -0.00003   0.00000  -0.00003  -0.00003  -4.33208
    Z1       -1.93180   0.00002   0.00000   0.00002   0.00002  -1.93178
    X2       -2.41875   0.00000   0.00000   0.00000   0.00000  -2.41875
    Y2       -3.13547  -0.00002   0.00000  -0.00002  -0.00002  -3.13548
    Z2        0.70932   0.00000   0.00000   0.00000   0.00000   0.70932
    X3       -4.34705  -0.00006   0.00000  -0.00006  -0.00006  -4.34711
    Y3       -2.52011   0.00002   0.00000   0.00002   0.00002  -2.52009
    Z3        1.29793   0.00000   0.00000   0.00000   0.00000   1.29793
    X4       -1.55655   0.00003   0.00000   0.00003   0.00003  -1.55651
    Y4       -4.96166   0.00000   0.00000   0.00000   0.00000  -4.96166
    Z4        2.43483   0.00001   0.00000   0.00001   0.00001   2.43483
    X5       -0.71328  -0.00004   0.00000  -0.00004  -0.00004  -0.71332
    Y5       -0.82752   0.00003   0.00000   0.00003   0.00003  -0.82749
    Z5        0.65850  -0.00002   0.00000  -0.00002  -0.00002   0.65848
    X6       -0.24324  -0.00001   0.00000  -0.00001  -0.00001  -0.24325
    Y6       -5.27054   0.00002   0.00000   0.00002   0.00002  -5.27052
    Z6       -2.88337   0.00004   0.00000   0.00004   0.00004  -2.88333
    X7       -4.02732   0.00002   0.00000   0.00002   0.00002  -4.02730
    Y7       -5.92822   0.00001   0.00000   0.00001   0.00001  -5.92821
    Z7       -1.82798  -0.00001   0.00000  -0.00001  -0.00001  -1.82800
    X8       -3.44671   0.00001   0.00000   0.00001   0.00001  -3.44670
    Y8       -2.92490   0.00001   0.00000   0.00001   0.00001  -2.92490
    Z8       -3.28280   0.00000   0.00000   0.00000   0.00000  -3.28280
    X9        1.76310  -0.00005   0.00000  -0.00005  -0.00005   1.76305
    Y9       -0.90324   0.00000   0.00000   0.00000   0.00000  -0.90323
    Z9        1.61466  -0.00001   0.00000  -0.00001  -0.00001   1.61465
   X10        3.29440  -0.00001   0.00000  -0.00001  -0.00001   3.29439
   Y10        1.24281   0.00003   0.00000   0.00003   0.00003   1.24284
   Z10        1.53220  -0.00004   0.00000  -0.00004  -0.00004   1.53216
   X11        2.38816   0.00002   0.00000   0.00002   0.00002   2.38818
   Y11        3.51308  -0.00011   0.00000  -0.00011  -0.00011   3.51298
   Z11        0.48508   0.00005   0.00000   0.00005   0.00005   0.48512
   X12       -0.09838   0.00003   0.00000   0.00003   0.00003  -0.09835
   Y12        3.60108   0.00005   0.00000   0.00005   0.00005   3.60113
   Z12       -0.48974  -0.00002   0.00000  -0.00002  -0.00002  -0.48976
   X13       -1.61677   0.00004   0.00000   0.00004   0.00004  -1.61674
   Y13        1.43533  -0.00003   0.00000  -0.00003  -0.00003   1.43530
   Z13       -0.39275   0.00003   0.00000   0.00003   0.00003  -0.39272
   X14       -1.06445  -0.00002   0.00000  -0.00002  -0.00002  -1.06446
   Y14        5.67329   0.00002   0.00000   0.00002   0.00002   5.67331
   Z14       -1.50537   0.00001   0.00000   0.00001   0.00001  -1.50535
   X15        3.83363   0.00005   0.00000   0.00005   0.00005   3.83368
   Y15        5.55270   0.00004   0.00000   0.00004   0.00004   5.55274
   Z15        0.40242   0.00000   0.00000   0.00000   0.00000   0.40242
   X16        0.11136  -0.00002   0.00000  -0.00002  -0.00002   0.11134
   Y16        7.18364  -0.00001   0.00000  -0.00001  -0.00001   7.18363
   Z16       -1.53002   0.00002   0.00000   0.00002   0.00002  -1.53001
   X17        5.58390  -0.00003   0.00000  -0.00003  -0.00003   5.58387
   Y17        5.30699  -0.00001   0.00000  -0.00001  -0.00001   5.30698
   Z17        1.14508  -0.00002   0.00000  -0.00002  -0.00002   1.14506
   X18       -1.91624  -0.00005   0.00000  -0.00005  -0.00005  -1.91629
   Y18       -4.29689   0.00000   0.00000   0.00000   0.00000  -4.29689
   Z18        4.15286  -0.00002   0.00000  -0.00002  -0.00002   4.15284
   X19       -0.46656   0.00003   0.00000   0.00003   0.00003  -0.46653
   Y19       -6.15765   0.00000   0.00000   0.00000   0.00000  -6.15765
   Z19       -4.63212   0.00000   0.00000   0.00000   0.00000  -4.63212
   X20        1.06994  -0.00001   0.00000  -0.00001  -0.00001   1.06993
   Y20       -3.82190  -0.00001   0.00000  -0.00001  -0.00001  -3.82191
   Z20       -3.15135   0.00003   0.00000   0.00003   0.00003  -3.15132
   X21        0.57413   0.00002   0.00000   0.00002   0.00002   0.57415
   Y21       -6.59849   0.00002   0.00000   0.00002   0.00002  -6.59847
   Z21       -1.67326  -0.00001   0.00000  -0.00001  -0.00001  -1.67326
   X22        2.52924   0.00002   0.00000   0.00002   0.00002   2.52926
   Y22       -2.62498   0.00000   0.00000   0.00000   0.00000  -2.62498
   Z22        2.40947   0.00000   0.00000   0.00000   0.00000   2.40948
   X23        5.19485   0.00004   0.00000   0.00004   0.00004   5.19490
   Y23        1.13062   0.00000   0.00000   0.00000   0.00000   1.13062
   Z23        2.28308  -0.00004   0.00000  -0.00004  -0.00004   2.28304
   X24       -3.52093  -0.00001   0.00000  -0.00001  -0.00001  -3.52094
   Y24        1.51760  -0.00002   0.00000  -0.00002  -0.00002   1.51758
   Z24       -1.14245  -0.00001   0.00000  -0.00001  -0.00001  -1.14246
         Item               Value     Threshold  Converged?
 Maximum Force            0.000106     0.000450     YES
 RMS     Force            0.000027     0.000300     YES
 Maximum Displacement     0.000106     0.001800     YES
 RMS     Displacement     0.000027     0.001200     YES
 Predicted change in Energy=-2.694217D-08
 Optimization completed.
    -- Stationary point found.
 GradGradGradGradGradGradGradGradGradGradGradGradGradGradGradGradGradGrad

                          Input orientation:                          
 ---------------------------------------------------------------------
 Center     Atomic     Atomic              Coordinates (Angstroms)
 Number     Number      Type              X           Y           Z
 ---------------------------------------------------------------------
    1          6      10061003       -1.409340   -2.292422   -1.022264
    2          6      10061003       -1.279950   -1.659218    0.375357
    3          1      10011000       -2.300362   -1.333583    0.686837
    4          8      10081003       -0.823690   -2.625595    1.288454
    5          6      10061000       -0.377452   -0.437907    0.348466
    6          7      10071000       -0.128716   -2.789051   -1.525812
    7          1      10011000       -2.131168   -3.137080   -0.967328
    8          1      10011000       -1.823918   -1.547792   -1.737186
    9          6      10061000        0.932995   -0.477973    0.854441
   10          6      10061000        1.743320    0.657668    0.810803
   11          6      10061000        1.263761    1.859043    0.256692
   12          6      10061000       -0.052058    1.905611   -0.259160
   13          6      10061000       -0.855559    0.759543   -0.207835
   14          8      10081000       -0.563281    3.002177   -0.796606
   15          8      10081000        2.028672    2.938363    0.212953
   16          1      10011000        0.058928    3.801417   -0.809654
   17          1      10011000        2.954872    2.808337    0.605948
   18          1      10011000       -1.014031   -2.273816    2.197596
   19          1      10011000       -0.246892   -3.258490   -2.451211
   20          1      10011000        0.566187   -2.022464   -1.667623
   21          1      10011000        0.303817   -3.491771   -0.885449
   22          1      10011000        1.338416   -1.389080    1.275038
   23          1      10011000        2.748998    0.598300    1.208153
   24          1      10011000       -1.863197    0.803081   -0.604557
 ---------------------------------------------------------------------
                    Distance matrix (angstroms):
                    1          2          3          4          5
     1  C    0.000000
     2  C    1.539816   0.000000
     3  H    2.152747   1.115481   0.000000
     4  O    2.406950   1.405633   2.052266   0.000000
     5  C    2.526443   1.518824   2.148095   2.422537   0.000000
     6  N    1.462941   2.493252   3.424945   2.903411   3.017062
     7  H    1.112431   2.170588   2.453057   2.657004   3.477408
     8  H    1.112412   2.184297   2.479671   3.364017   2.770208
     9  C    3.507247   2.553818   3.348844   2.808307   1.405307
    10  C    4.690674   3.833763   4.509081   4.194938   2.431402
    11  C    5.100574   4.343122   4.804254   5.053114   2.824532
    12  C    4.477502   3.823394   4.054894   4.849986   2.442779
    13  C    3.206939   2.524010   2.696121   3.701224   1.404259
    14  O    5.366518   4.859601   4.900702   6.007255   3.630414
    15  O    6.380188   5.666667   6.100379   6.344313   4.148132
    16  H    6.271833   5.745902   5.845850   6.818179   4.416281
    17  H    6.907616   6.160028   6.691751   6.653643   4.659269
    18  H    3.244090   1.941391   2.195695   0.993236   2.682364
    19  H    2.080015   3.407986   4.215371   3.836450   3.976295
    20  H    2.095727   2.777397   3.772948   3.321734   2.732377
    21  H    2.095725   2.730604   3.729826   2.597573   3.363444
    22  H    3.693750   2.781770   3.686430   2.490754   2.169671
    23  H    5.533788   4.692799   5.431388   4.812905   3.404039
    24  H    3.156359   2.713545   2.534590   4.052145   2.157716
                    6          7          8          9         10
     6  N    0.000000
     7  H    2.107805   0.000000
     8  H    2.111661   1.792462   0.000000
     9  C    3.483377   4.447335   3.932126   0.000000
    10  C    4.565540   5.707322   4.907289   1.395783   0.000000
    11  C    5.169245   6.163198   5.011570   2.434821   1.407238
    12  C    4.863141   5.500267   4.153317   2.809255   2.434249
    13  C    3.854593   4.169854   2.932649   2.420496   2.793238
    14  O    5.853112   6.338604   4.814159   4.132341   3.660724
    15  O    6.362461   7.457100   6.226643   3.644635   2.374957
    16  H    6.631920   7.277646   5.746257   4.674012   3.917425
    17  H    6.736741   7.980664   6.877716   3.866468   2.476934
    18  H    3.861738   3.465540   4.082344   2.969853   4.256733
    19  H    1.044367   2.401489   2.433789   4.477806   5.471560
    20  H    1.044345   3.001417   2.437776   2.980068   3.835537
    21  H    1.044493   2.462045   3.005290   3.536391   4.708214
    22  H    3.457912   4.485724   4.370245   1.082305   2.137437
    23  H    5.218233   6.519341   5.847418   2.140407   1.082959
    24  H    4.093964   3.965889   2.609788   3.404183   3.877029
                   11         12         13         14         15
    11  C    0.000000
    12  C    1.414091   0.000000
    13  C    2.432325   1.400615   0.000000
    14  O    2.398807   1.323878   2.336983   0.000000
    15  O    1.323606   2.370424   3.639109   2.782356   0.000000
    16  H    2.522208   1.977231   3.232874   1.012965   2.381278
    17  H    1.970532   3.256526   4.402180   3.792378   1.014494
    18  H    5.102545   4.942535   3.874594   6.083135   6.353240
    19  H    5.983640   5.613465   4.641961   6.483346   7.118774
    20  H    4.388131   4.218503   3.448464   5.223159   5.503202
    21  H    5.554925   5.445239   4.458362   6.552185   6.747462
    22  H    3.404836   3.891295   3.410135   5.214528   4.509018
    23  H    2.168106   3.421694   3.876062   4.557289   2.642951
    24  H    3.410963   2.148277   1.083798   2.561775   4.513801
                   16         17         18         19         20
    16  H    0.000000
    17  H    3.372926   0.000000
    18  H    6.863181   6.641823   0.000000
    19  H    7.254690   7.510253   4.813471   0.000000
    20  H    5.908555   5.849067   4.183322   1.674176   0.000000
    21  H    7.297692   6.995979   3.567255   1.676100   1.685081
    22  H    5.737970   4.547409   2.677290   4.460137   3.107534
    23  H    4.644135   2.299848   4.836159   6.102551   4.461295
    24  H    3.567443   5.357254   4.247403   4.745411   3.875012
                   21         22         23         24
    21  H    0.000000
    22  H    3.187383   0.000000
    23  H    5.204878   2.438010   0.000000
    24  H    4.818776   4.311470   4.959859   0.000000
 Stoichiometry    C8H12NO3(1+)
 Framework group  C1[X(C8H12NO3)]
 Deg. of freedom    66
 Full point group                 C1
 Largest Abelian subgroup         C1      NOp   1
 Largest concise Abelian subgroup C1      NOp   1
                         Standard orientation:                         
 ---------------------------------------------------------------------
 Center     Atomic     Atomic              Coordinates (Angstroms)
 Number     Number      Type              X           Y           Z
 ---------------------------------------------------------------------
    1          6      10061003        2.679803    0.959283    0.400671
    2          6      10061003        1.974428    0.254773   -0.772847
    3          1      10011000        2.010291    0.948929   -1.645292
    4          8      10081003        2.675770   -0.916496   -1.107588
    5          6      10061000        0.517937   -0.032087   -0.451642
    6          7      10071000        2.722569    0.125504    1.601996
    7          1      10011000        3.719399    1.210652    0.094805
    8          1      10011000        2.161908    1.915982    0.632995
    9          6      10061000        0.074141   -1.326859   -0.133052
   10          6      10061000       -1.269218   -1.561045    0.164864
   11          6      10061000       -2.199759   -0.505434    0.155033
   12          6      10061000       -1.759699    0.801108   -0.159531
   13          6      10061000       -0.409330    1.022463   -0.458238
   14          8      10081000       -2.581904    1.838444   -0.183312
   15          8      10081000       -3.474564   -0.722750    0.437130
   16          1      10011000       -3.546285    1.624195    0.040662
   17          1      10011000       -3.694741   -1.689895    0.650084
   18          1      10011000        2.368893   -1.185846   -2.013014
   19          1      10011000        3.247914    0.600937    2.369249
   20          1      10011000        1.769635   -0.079845    1.976703
   21          1      10011000        3.198581   -0.788842    1.433624
   22          1      10011000        0.765286   -2.159198   -0.102802
   23          1      10011000       -1.583450   -2.568811    0.406662
   24          1      10011000       -0.079629    2.026419   -0.699038
 ---------------------------------------------------------------------
 Rotational constants (GHZ):      1.7720469      0.5338421      0.4843386
 1|1|UNPC-UNK|FOpt|UFF|ZDO|C8H12N1O3(1+)|PCUSER|13-Dec-2007|0||# opt uf
 f||noradrenaline-C||1,1|C,-1.4093397739,-2.2924216804,-1.0222641618|C,
 -1.2799499591,-1.6592183567,0.3753571681|H,-2.3003616753,-1.3335834124
 ,0.6868371756|O,-0.8236901808,-2.6255953099,1.2884541026|C,-0.37745202
 25,-0.4379071359,0.3484655371|N,-0.128716285,-2.7890513502,-1.52581156
 37|H,-2.1311681821,-3.1370801151,-0.9673278648|H,-1.8239182307,-1.5477
 923904,-1.7371855818|C,0.9329948012,-0.4779729913,0.8544412083|C,1.743
 3202693,0.6576675552,0.8108027387|C,1.263760831,1.8590430525,0.2566920
 397|C,-0.0520584634,1.9056113954,-0.2591604267|C,-0.8555594434,0.75954
 29674,-0.2078347414|O,-0.5632809125,3.0021774651,-0.7966059071|O,2.028
 6722659,2.9383629412,0.212953464|H,0.0589275698,3.8014172591,-0.809653
 9403|H,2.9548721477,2.8083373166,0.6059480752|H,-1.0140312793,-2.27381
 56075,2.1975964692|H,-0.246891554,-3.2584896112,-2.4512112999|H,0.5661
 867482,-2.0224641679,-1.6676226741|H,0.3038171951,-3.4917712834,-0.885
 448772|H,1.3384162103,-1.3890801763,1.2750379835|H,2.748998431,0.59829
 96911,1.2081528981|H,-1.8631968272,0.8030805847,-0.6045568867||Version
 =IA32W-G03RevD.01|HF=0.0534493|RMSD=0.000e+000|RMSF=2.736e-005|Thermal
 =0.|Dipole=0.,0.,0.|PG=C01 [X(C8H12N1O3)]||@


 At the touch of love, everyone becomves a poet.
                                -- Plato
 Job cpu time:  0 days  0 hours  0 minutes  5.0 seconds.
 File lengths (MBytes):  RWF=     11 Int=      0 D2E=      0 Chk=      4 Scr=      1
 Normal termination of Gaussian 03 at Thu Dec 13 15:11:55 2007.
