 Entering Gaussian System, Link 0=g09
 Input=BisSiMe3-cycl-diaxial.gjf
 Output=BisSiMe3-cycl-diaxial.out
 Initial command:
 /usr/local/g09/l1.exe /home/scratch/stylianakis/Gau-17065.inp -scrdir=/home/scratch/stylianakis/
 Entering Link 1 = /usr/local/g09/l1.exe PID=     17066.
  
 Copyright (c) 1988,1990,1992,1993,1995,1998,2003,2009, Gaussian, Inc.
                  All Rights Reserved.
  
 This is part of the Gaussian(R) 09 program.  It is based on
 the Gaussian(R) 03 system (copyright 2003, Gaussian, Inc.),
 the Gaussian(R) 98 system (copyright 1998, Gaussian, Inc.),
 the Gaussian(R) 94 system (copyright 1995, Gaussian, Inc.),
 the Gaussian 92(TM) system (copyright 1992, Gaussian, Inc.),
 the Gaussian 90(TM) system (copyright 1990, Gaussian, Inc.),
 the Gaussian 88(TM) system (copyright 1988, Gaussian, Inc.),
 the Gaussian 86(TM) system (copyright 1986, Carnegie Mellon
 University), and the Gaussian 82(TM) system (copyright 1983,
 Carnegie Mellon University). Gaussian is a federally registered
 trademark of Gaussian, Inc.
  
 This software contains proprietary and confidential information,
 including trade secrets, belonging to Gaussian, Inc.
  
 This software is provided under written license and may be
 used, copied, transmitted, or stored only in accord with that
 written license.
  
 The following legend is applicable only to US Government
 contracts under FAR:
  
                    RESTRICTED RIGHTS LEGEND
  
 Use, reproduction and disclosure by the US Government is
 subject to restrictions as set forth in subparagraphs (a)
 and (c) of the Commercial Computer Software - Restricted
 Rights clause in FAR 52.227-19.
  
 Gaussian, Inc.
 340 Quinnipiac St., Bldg. 40, Wallingford CT 06492
  
  
 ---------------------------------------------------------------
 Warning -- This program may not be used in any manner that
 competes with the business of Gaussian, Inc. or will provide
 assistance to any competitor of Gaussian, Inc.  The licensee
 of this program is prohibited from giving any competitor of
 Gaussian, Inc. access to this program.  By using this program,
 the user acknowledges that Gaussian, Inc. is engaged in the
 business of creating and licensing software in the field of
 computational chemistry and represents and warrants to the
 licensee that it is not a competitor of Gaussian, Inc. and that
 it will not use this program in any manner prohibited above.
 ---------------------------------------------------------------
  

 Cite this work as:
 Gaussian 09, Revision A.01,
 M. J. Frisch, G. W. Trucks, H. B. Schlegel, G. E. Scuseria, 
 M. A. Robb, J. R. Cheeseman, G. Scalmani, V. Barone, B. Mennucci, 
 G. A. Petersson, H. Nakatsuji, M. Caricato, X. Li, H. P. Hratchian, 
 A. F. Izmaylov, J. Bloino, G. Zheng, J. L. Sonnenberg, M. Hada, 
 M. Ehara, K. Toyota, R. Fukuda, J. Hasegawa, M. Ishida, T. Nakajima, 
 Y. Honda, O. Kitao, H. Nakai, T. Vreven, J. A. Montgomery, Jr., 
 J. E. Peralta, F. Ogliaro, M. Bearpark, J. J. Heyd, E. Brothers, 
 K. N. Kudin, V. N. Staroverov, R. Kobayashi, J. Normand, 
 K. Raghavachari, A. Rendell, J. C. Burant, S. S. Iyengar, J. Tomasi, 
 M. Cossi, N. Rega, J. M. Millam, M. Klene, J. E. Knox, J. B. Cross, 
 V. Bakken, C. Adamo, J. Jaramillo, R. Gomperts, R. E. Stratmann, 
 O. Yazyev, A. J. Austin, R. Cammi, C. Pomelli, J. W. Ochterski, 
 R. L. Martin, K. Morokuma, V. G. Zakrzewski, G. A. Voth, 
 P. Salvador, J. J. Dannenberg, S. Dapprich, A. D. Daniels, 
 O. Farkas, J. B. Foresman, J. V. Ortiz, J. Cioslowski, 
 and D. J. Fox, Gaussian, Inc., Wallingford CT, 2009.
 
 ******************************************
 Gaussian 09:  EM64L-G09RevA.01  8-May-2009
                22-Jul-2016 
 ******************************************
 %mem=8000Mb
 %nproc=8
 Will use up to    8 processors via shared memory.
 %RWF=/media/S_/Gaussian_scratch/,130GB,/media/TOSHIBA\ EXT/,120GB,/home/scratch/
 stylianakis/,50GB,
 %NoSave
 -----------------------
 # opt b3lyp/6-31+g(d,p)
 -----------------------
 1/14=-1,18=20,19=15,26=3,38=1/1,3;
 2/9=110,12=2,17=6,18=5,40=1/2;
 3/5=1,6=6,7=111,11=2,16=1,25=1,30=1,71=1,74=-5/1,2,3;
 4//1;
 5/5=2,38=5/2;
 6/7=2,8=2,9=2,10=2,28=1/1;
 7//1,2,3,16;
 1/14=-1,18=20,19=15/3(2);
 2/9=110/2;
 99//99;
 2/9=110/2;
 3/5=1,6=6,7=111,11=2,16=1,25=1,30=1,71=1,74=-5/1,2,3;
 4/5=5,16=3/1;
 5/5=2,38=5/2;
 7//1,2,3,16;
 1/14=-1,18=20,19=15/3(-5);
 2/9=110/2;
 6/7=2,8=2,9=2,10=2,19=2,28=1/1;
 99/9=1/99;
 ---------------------
 BisSiMe3-cycl-diaxial
 ---------------------
 Symbolic Z-matrix:
 Charge =  0 Multiplicity = 1
 C                    -1.12452  -1.53763  -0.52509 
 C                    -0.75252  -0.09163  -0.14709 
 C                     0.75648   0.07538   0.13591 
 C                    -0.23752  -2.12763  -1.62709 
 C                     1.63548  -0.60363  -0.93009 
 C                     1.23748  -2.05563  -1.21509 
 Si                   -1.48652   1.24838  -1.28809 
 C                    -0.50752   1.51238  -2.87209 
 C                    -3.26752   0.81738  -1.73309 
 C                    -1.49352   2.87838  -0.32809 
 Si                    1.25748  -0.28963   1.93991 
 C                     0.60748  -1.93163   2.58791 
 C                     3.13548  -0.26363   2.10891 
 C                     0.54548   1.08838   3.02291 
 H                    -2.19652  -1.60963  -0.82209 
 H                    -1.02852  -2.19163   0.37191 
 H                    -1.31852   0.14138   0.78491 
 H                     1.00648   1.16238   0.09991 
 H                    -0.39652  -1.57463  -2.58109 
 H                    -0.52452  -3.18962  -1.81909 
 H                     2.71348  -0.55463  -0.64809 
 H                     1.56148  -0.03863  -1.88709 
 H                     1.41448  -2.68363  -0.31209 
 H                     1.87748  -2.47363  -2.02909 
 H                    -1.04252   2.27638  -3.47809 
 H                     0.50648   1.88638  -2.60909 
 H                    -0.45052   0.55538  -3.43609 
 H                    -3.70452   1.67938  -2.28509 
 H                    -3.26652  -0.08863  -2.37909 
 H                    -3.83152   0.63238  -0.79109 
 H                    -1.95952   3.65838  -0.96909 
 H                    -2.08452   2.73338   0.60391 
 H                    -0.44252   3.15238  -0.08409 
 H                     0.99148  -2.06263   3.62391 
 H                    -0.50352  -1.89663   2.60291 
 H                     0.97648  -2.75663   1.93991 
 H                     3.38648  -0.34663   3.18991 
 H                     3.55748  -1.12862   1.55091 
 H                     3.51348   0.69838   1.69491 
 H                     0.86848   0.90838   4.07191 
 H                     0.93848   2.06237   2.65491 
 H                    -0.56452   1.06337   2.94791 
 

 GradGradGradGradGradGradGradGradGradGradGradGradGradGradGradGradGradGrad
 Berny optimization.
 Initialization pass.
                           ----------------------------
                           !    Initial Parameters    !
                           ! (Angstroms and Degrees)  !
 --------------------------                            --------------------------
 ! Name  Definition              Value          Derivative Info.                !
 --------------------------------------------------------------------------------
 ! R1    R(1,2)                  1.5402         estimate D2E/DX2                !
 ! R2    R(1,4)                  1.5327         estimate D2E/DX2                !
 ! R3    R(1,15)                 1.1147         estimate D2E/DX2                !
 ! R4    R(1,16)                 1.1142         estimate D2E/DX2                !
 ! R5    R(2,3)                  1.5444         estimate D2E/DX2                !
 ! R6    R(2,7)                  1.9069         estimate D2E/DX2                !
 ! R7    R(2,17)                 1.115          estimate D2E/DX2                !
 ! R8    R(3,5)                  1.5395         estimate D2E/DX2                !
 ! R9    R(3,11)                 1.9075         estimate D2E/DX2                !
 ! R10   R(3,18)                 1.116          estimate D2E/DX2                !
 ! R11   R(4,6)                  1.5332         estimate D2E/DX2                !
 ! R12   R(4,19)                 1.1141         estimate D2E/DX2                !
 ! R13   R(4,20)                 1.1167         estimate D2E/DX2                !
 ! R14   R(5,6)                  1.5323         estimate D2E/DX2                !
 ! R15   R(5,21)                 1.1154         estimate D2E/DX2                !
 ! R16   R(5,22)                 1.1138         estimate D2E/DX2                !
 ! R17   R(6,23)                 1.1141         estimate D2E/DX2                !
 ! R18   R(6,24)                 1.1167         estimate D2E/DX2                !
 ! R19   R(7,8)                  1.8807         estimate D2E/DX2                !
 ! R20   R(7,9)                  1.8857         estimate D2E/DX2                !
 ! R21   R(7,10)                 1.8917         estimate D2E/DX2                !
 ! R22   R(8,25)                 1.1123         estimate D2E/DX2                !
 ! R23   R(8,26)                 1.1123         estimate D2E/DX2                !
 ! R24   R(8,27)                 1.1123         estimate D2E/DX2                !
 ! R25   R(9,28)                 1.113          estimate D2E/DX2                !
 ! R26   R(9,29)                 1.1127         estimate D2E/DX2                !
 ! R27   R(9,30)                 1.1134         estimate D2E/DX2                !
 ! R28   R(10,31)                1.112          estimate D2E/DX2                !
 ! R29   R(10,32)                1.1131         estimate D2E/DX2                !
 ! R30   R(10,33)                1.1132         estimate D2E/DX2                !
 ! R31   R(11,12)                1.8811         estimate D2E/DX2                !
 ! R32   R(11,13)                1.8858         estimate D2E/DX2                !
 ! R33   R(11,14)                1.8917         estimate D2E/DX2                !
 ! R34   R(12,34)                1.1126         estimate D2E/DX2                !
 ! R35   R(12,35)                1.1117         estimate D2E/DX2                !
 ! R36   R(12,36)                1.1121         estimate D2E/DX2                !
 ! R37   R(13,37)                1.1129         estimate D2E/DX2                !
 ! R38   R(13,38)                1.1125         estimate D2E/DX2                !
 ! R39   R(13,39)                1.1134         estimate D2E/DX2                !
 ! R40   R(14,40)                1.1123         estimate D2E/DX2                !
 ! R41   R(14,41)                1.1129         estimate D2E/DX2                !
 ! R42   R(14,42)                1.1128         estimate D2E/DX2                !
 ! A1    A(2,1,4)              113.4578         estimate D2E/DX2                !
 ! A2    A(2,1,15)             110.9962         estimate D2E/DX2                !
 ! A3    A(2,1,16)             109.4307         estimate D2E/DX2                !
 ! A4    A(4,1,15)             109.8834         estimate D2E/DX2                !
 ! A5    A(4,1,16)             107.6381         estimate D2E/DX2                !
 ! A6    A(15,1,16)            105.0365         estimate D2E/DX2                !
 ! A7    A(1,2,3)              112.4882         estimate D2E/DX2                !
 ! A8    A(1,2,7)              114.8295         estimate D2E/DX2                !
 ! A9    A(1,2,17)             106.184          estimate D2E/DX2                !
 ! A10   A(3,2,7)              114.19           estimate D2E/DX2                !
 ! A11   A(3,2,17)             108.6766         estimate D2E/DX2                !
 ! A12   A(7,2,17)              99.0855         estimate D2E/DX2                !
 ! A13   A(2,3,5)              112.539          estimate D2E/DX2                !
 ! A14   A(2,3,11)             114.1572         estimate D2E/DX2                !
 ! A15   A(2,3,18)             108.5608         estimate D2E/DX2                !
 ! A16   A(5,3,11)             114.8662         estimate D2E/DX2                !
 ! A17   A(5,3,18)             106.2221         estimate D2E/DX2                !
 ! A18   A(11,3,18)             99.0939         estimate D2E/DX2                !
 ! A19   A(1,4,6)              110.2104         estimate D2E/DX2                !
 ! A20   A(1,4,19)             109.9989         estimate D2E/DX2                !
 ! A21   A(1,4,20)             109.9351         estimate D2E/DX2                !
 ! A22   A(6,4,19)             110.1272         estimate D2E/DX2                !
 ! A23   A(6,4,20)             109.7622         estimate D2E/DX2                !
 ! A24   A(19,4,20)            106.7466         estimate D2E/DX2                !
 ! A25   A(3,5,6)              113.48           estimate D2E/DX2                !
 ! A26   A(3,5,21)             110.9405         estimate D2E/DX2                !
 ! A27   A(3,5,22)             109.4683         estimate D2E/DX2                !
 ! A28   A(6,5,21)             109.8585         estimate D2E/DX2                !
 ! A29   A(6,5,22)             107.6753         estimate D2E/DX2                !
 ! A30   A(21,5,22)            105.0208         estimate D2E/DX2                !
 ! A31   A(4,6,5)              110.1435         estimate D2E/DX2                !
 ! A32   A(4,6,23)             110.1328         estimate D2E/DX2                !
 ! A33   A(4,6,24)             109.7508         estimate D2E/DX2                !
 ! A34   A(5,6,23)             110.0073         estimate D2E/DX2                !
 ! A35   A(5,6,24)             109.9641         estimate D2E/DX2                !
 ! A36   A(23,6,24)            106.7854         estimate D2E/DX2                !
 ! A37   A(2,7,8)              113.7172         estimate D2E/DX2                !
 ! A38   A(2,7,9)              110.1295         estimate D2E/DX2                !
 ! A39   A(2,7,10)             107.6541         estimate D2E/DX2                !
 ! A40   A(8,7,9)              108.9639         estimate D2E/DX2                !
 ! A41   A(8,7,10)             107.9619         estimate D2E/DX2                !
 ! A42   A(9,7,10)             108.2528         estimate D2E/DX2                !
 ! A43   A(7,8,25)             107.7525         estimate D2E/DX2                !
 ! A44   A(7,8,26)             108.8196         estimate D2E/DX2                !
 ! A45   A(7,8,27)             109.4485         estimate D2E/DX2                !
 ! A46   A(25,8,26)            109.6547         estimate D2E/DX2                !
 ! A47   A(25,8,27)            109.8384         estimate D2E/DX2                !
 ! A48   A(26,8,27)            111.2519         estimate D2E/DX2                !
 ! A49   A(7,9,28)             108.1114         estimate D2E/DX2                !
 ! A50   A(7,9,29)             108.7997         estimate D2E/DX2                !
 ! A51   A(7,9,30)             108.4666         estimate D2E/DX2                !
 ! A52   A(28,9,29)            110.0614         estimate D2E/DX2                !
 ! A53   A(28,9,30)            110.4511         estimate D2E/DX2                !
 ! A54   A(29,9,30)            110.8761         estimate D2E/DX2                !
 ! A55   A(7,10,31)            108.2662         estimate D2E/DX2                !
 ! A56   A(7,10,32)            108.3391         estimate D2E/DX2                !
 ! A57   A(7,10,33)            108.6524         estimate D2E/DX2                !
 ! A58   A(31,10,32)           110.5821         estimate D2E/DX2                !
 ! A59   A(31,10,33)           110.4484         estimate D2E/DX2                !
 ! A60   A(32,10,33)           110.4768         estimate D2E/DX2                !
 ! A61   A(3,11,12)            113.7066         estimate D2E/DX2                !
 ! A62   A(3,11,13)            110.1012         estimate D2E/DX2                !
 ! A63   A(3,11,14)            107.6488         estimate D2E/DX2                !
 ! A64   A(12,11,13)           108.9826         estimate D2E/DX2                !
 ! A65   A(12,11,14)           107.9734         estimate D2E/DX2                !
 ! A66   A(13,11,14)           108.2686         estimate D2E/DX2                !
 ! A67   A(11,12,34)           107.7145         estimate D2E/DX2                !
 ! A68   A(11,12,35)           108.8144         estimate D2E/DX2                !
 ! A69   A(11,12,36)           109.4012         estimate D2E/DX2                !
 ! A70   A(34,12,35)           109.6378         estimate D2E/DX2                !
 ! A71   A(34,12,36)           109.9199         estimate D2E/DX2                !
 ! A72   A(35,12,36)           111.2747         estimate D2E/DX2                !
 ! A73   A(11,13,37)           108.0979         estimate D2E/DX2                !
 ! A74   A(11,13,38)           108.7894         estimate D2E/DX2                !
 ! A75   A(11,13,39)           108.4625         estimate D2E/DX2                !
 ! A76   A(37,13,38)           110.1004         estimate D2E/DX2                !
 ! A77   A(37,13,39)           110.4291         estimate D2E/DX2                !
 ! A78   A(38,13,39)           110.8857         estimate D2E/DX2                !
 ! A79   A(11,14,40)           108.2246         estimate D2E/DX2                !
 ! A80   A(11,14,41)           108.379          estimate D2E/DX2                !
 ! A81   A(11,14,42)           108.6915         estimate D2E/DX2                !
 ! A82   A(40,14,41)           110.5451         estimate D2E/DX2                !
 ! A83   A(40,14,42)           110.4624         estimate D2E/DX2                !
 ! A84   A(41,14,42)           110.4637         estimate D2E/DX2                !
 ! D1    D(4,1,2,3)            -50.0429         estimate D2E/DX2                !
 ! D2    D(4,1,2,7)             82.8164         estimate D2E/DX2                !
 ! D3    D(4,1,2,17)          -168.7953         estimate D2E/DX2                !
 ! D4    D(15,1,2,3)          -174.3517         estimate D2E/DX2                !
 ! D5    D(15,1,2,7)           -41.4924         estimate D2E/DX2                !
 ! D6    D(15,1,2,17)           66.8958         estimate D2E/DX2                !
 ! D7    D(16,1,2,3)            70.1774         estimate D2E/DX2                !
 ! D8    D(16,1,2,7)          -156.9633         estimate D2E/DX2                !
 ! D9    D(16,1,2,17)          -48.575          estimate D2E/DX2                !
 ! D10   D(2,1,4,6)             56.1173         estimate D2E/DX2                !
 ! D11   D(2,1,4,19)           -65.4967         estimate D2E/DX2                !
 ! D12   D(2,1,4,20)           177.234          estimate D2E/DX2                !
 ! D13   D(15,1,4,6)          -178.9729         estimate D2E/DX2                !
 ! D14   D(15,1,4,19)           59.4132         estimate D2E/DX2                !
 ! D15   D(15,1,4,20)          -57.8561         estimate D2E/DX2                !
 ! D16   D(16,1,4,6)           -65.1142         estimate D2E/DX2                !
 ! D17   D(16,1,4,19)          173.2718         estimate D2E/DX2                !
 ! D18   D(16,1,4,20)           56.0025         estimate D2E/DX2                !
 ! D19   D(1,2,3,5)             46.0074         estimate D2E/DX2                !
 ! D20   D(1,2,3,11)           -87.2371         estimate D2E/DX2                !
 ! D21   D(1,2,3,18)           163.292          estimate D2E/DX2                !
 ! D22   D(7,2,3,5)            -87.1644         estimate D2E/DX2                !
 ! D23   D(7,2,3,11)           139.5911         estimate D2E/DX2                !
 ! D24   D(7,2,3,18)            30.1202         estimate D2E/DX2                !
 ! D25   D(17,2,3,5)           163.2889         estimate D2E/DX2                !
 ! D26   D(17,2,3,11)           30.0444         estimate D2E/DX2                !
 ! D27   D(17,2,3,18)          -79.4265         estimate D2E/DX2                !
 ! D28   D(1,2,7,8)            -81.8293         estimate D2E/DX2                !
 ! D29   D(1,2,7,9)             40.7911         estimate D2E/DX2                !
 ! D30   D(1,2,7,10)           158.6131         estimate D2E/DX2                !
 ! D31   D(3,2,7,8)             50.2274         estimate D2E/DX2                !
 ! D32   D(3,2,7,9)            172.8478         estimate D2E/DX2                !
 ! D33   D(3,2,7,10)           -69.3302         estimate D2E/DX2                !
 ! D34   D(17,2,7,8)           165.5267         estimate D2E/DX2                !
 ! D35   D(17,2,7,9)           -71.8529         estimate D2E/DX2                !
 ! D36   D(17,2,7,10)           45.969          estimate D2E/DX2                !
 ! D37   D(2,3,5,6)            -50.1293         estimate D2E/DX2                !
 ! D38   D(2,3,5,21)          -174.3781         estimate D2E/DX2                !
 ! D39   D(2,3,5,22)            70.1798         estimate D2E/DX2                !
 ! D40   D(11,3,5,6)            82.7694         estimate D2E/DX2                !
 ! D41   D(11,3,5,21)          -41.4795         estimate D2E/DX2                !
 ! D42   D(11,3,5,22)         -156.9216         estimate D2E/DX2                !
 ! D43   D(18,3,5,6)          -168.7931         estimate D2E/DX2                !
 ! D44   D(18,3,5,21)           66.958          estimate D2E/DX2                !
 ! D45   D(18,3,5,22)          -48.4841         estimate D2E/DX2                !
 ! D46   D(2,3,11,12)           50.3193         estimate D2E/DX2                !
 ! D47   D(2,3,11,13)          172.9351         estimate D2E/DX2                !
 ! D48   D(2,3,11,14)          -69.2427         estimate D2E/DX2                !
 ! D49   D(5,3,11,12)          -81.8176         estimate D2E/DX2                !
 ! D50   D(5,3,11,13)           40.7983         estimate D2E/DX2                !
 ! D51   D(5,3,11,14)          158.6205         estimate D2E/DX2                !
 ! D52   D(18,3,11,12)         165.4759         estimate D2E/DX2                !
 ! D53   D(18,3,11,13)         -71.9083         estimate D2E/DX2                !
 ! D54   D(18,3,11,14)          45.9139         estimate D2E/DX2                !
 ! D55   D(1,4,6,5)            -57.9793         estimate D2E/DX2                !
 ! D56   D(1,4,6,23)            63.5288         estimate D2E/DX2                !
 ! D57   D(1,4,6,24)          -179.185          estimate D2E/DX2                !
 ! D58   D(19,4,6,5)            63.5584         estimate D2E/DX2                !
 ! D59   D(19,4,6,23)         -174.9335         estimate D2E/DX2                !
 ! D60   D(19,4,6,24)          -57.6473         estimate D2E/DX2                !
 ! D61   D(20,4,6,5)          -179.1993         estimate D2E/DX2                !
 ! D62   D(20,4,6,23)          -57.6912         estimate D2E/DX2                !
 ! D63   D(20,4,6,24)           59.595          estimate D2E/DX2                !
 ! D64   D(3,5,6,4)             56.1436         estimate D2E/DX2                !
 ! D65   D(3,5,6,23)           -65.4392         estimate D2E/DX2                !
 ! D66   D(3,5,6,24)           177.2217         estimate D2E/DX2                !
 ! D67   D(21,5,6,4)          -179.023          estimate D2E/DX2                !
 ! D68   D(21,5,6,23)           59.3942         estimate D2E/DX2                !
 ! D69   D(21,5,6,24)          -57.9448         estimate D2E/DX2                !
 ! D70   D(22,5,6,4)           -65.1755         estimate D2E/DX2                !
 ! D71   D(22,5,6,23)          173.2417         estimate D2E/DX2                !
 ! D72   D(22,5,6,24)           55.9026         estimate D2E/DX2                !
 ! D73   D(2,7,8,25)           177.6084         estimate D2E/DX2                !
 ! D74   D(2,7,8,26)           -63.5608         estimate D2E/DX2                !
 ! D75   D(2,7,8,27)            58.2055         estimate D2E/DX2                !
 ! D76   D(9,7,8,25)            54.3493         estimate D2E/DX2                !
 ! D77   D(9,7,8,26)           173.1801         estimate D2E/DX2                !
 ! D78   D(9,7,8,27)           -65.0536         estimate D2E/DX2                !
 ! D79   D(10,7,8,25)          -63.0089         estimate D2E/DX2                !
 ! D80   D(10,7,8,26)           55.8219         estimate D2E/DX2                !
 ! D81   D(10,7,8,27)          177.5882         estimate D2E/DX2                !
 ! D82   D(2,7,9,28)           172.7028         estimate D2E/DX2                !
 ! D83   D(2,7,9,29)           -67.7863         estimate D2E/DX2                !
 ! D84   D(2,7,9,30)            52.9141         estimate D2E/DX2                !
 ! D85   D(8,7,9,28)           -61.9223         estimate D2E/DX2                !
 ! D86   D(8,7,9,29)            57.5887         estimate D2E/DX2                !
 ! D87   D(8,7,9,30)           178.289          estimate D2E/DX2                !
 ! D88   D(10,7,9,28)           55.2513         estimate D2E/DX2                !
 ! D89   D(10,7,9,29)          174.7623         estimate D2E/DX2                !
 ! D90   D(10,7,9,30)          -64.5374         estimate D2E/DX2                !
 ! D91   D(2,7,10,31)         -177.6409         estimate D2E/DX2                !
 ! D92   D(2,7,10,32)          -57.6793         estimate D2E/DX2                !
 ! D93   D(2,7,10,33)           62.3782         estimate D2E/DX2                !
 ! D94   D(8,7,10,31)           59.2044         estimate D2E/DX2                !
 ! D95   D(8,7,10,32)          179.166          estimate D2E/DX2                !
 ! D96   D(8,7,10,33)          -60.7765         estimate D2E/DX2                !
 ! D97   D(9,7,10,31)          -58.6121         estimate D2E/DX2                !
 ! D98   D(9,7,10,32)           61.3495         estimate D2E/DX2                !
 ! D99   D(9,7,10,33)         -178.593          estimate D2E/DX2                !
 ! D100  D(3,11,12,34)         177.6177         estimate D2E/DX2                !
 ! D101  D(3,11,12,35)         -63.5959         estimate D2E/DX2                !
 ! D102  D(3,11,12,36)          58.1659         estimate D2E/DX2                !
 ! D103  D(13,11,12,34)         54.3887         estimate D2E/DX2                !
 ! D104  D(13,11,12,35)        173.175          estimate D2E/DX2                !
 ! D105  D(13,11,12,36)        -65.0631         estimate D2E/DX2                !
 ! D106  D(14,11,12,34)        -63.0048         estimate D2E/DX2                !
 ! D107  D(14,11,12,35)         55.7815         estimate D2E/DX2                !
 ! D108  D(14,11,12,36)        177.5434         estimate D2E/DX2                !
 ! D109  D(3,11,13,37)         172.7063         estimate D2E/DX2                !
 ! D110  D(3,11,13,38)         -67.7496         estimate D2E/DX2                !
 ! D111  D(3,11,13,39)          52.9539         estimate D2E/DX2                !
 ! D112  D(12,11,13,37)        -61.9385         estimate D2E/DX2                !
 ! D113  D(12,11,13,38)         57.6057         estimate D2E/DX2                !
 ! D114  D(12,11,13,39)        178.3092         estimate D2E/DX2                !
 ! D115  D(14,11,13,37)         55.2679         estimate D2E/DX2                !
 ! D116  D(14,11,13,38)        174.812          estimate D2E/DX2                !
 ! D117  D(14,11,13,39)        -64.4845         estimate D2E/DX2                !
 ! D118  D(3,11,14,40)        -177.6309         estimate D2E/DX2                !
 ! D119  D(3,11,14,41)         -57.7146         estimate D2E/DX2                !
 ! D120  D(3,11,14,42)          62.3729         estimate D2E/DX2                !
 ! D121  D(12,11,14,40)         59.2234         estimate D2E/DX2                !
 ! D122  D(12,11,14,41)        179.1397         estimate D2E/DX2                !
 ! D123  D(12,11,14,42)        -60.7728         estimate D2E/DX2                !
 ! D124  D(13,11,14,40)        -58.63           estimate D2E/DX2                !
 ! D125  D(13,11,14,41)         61.2863         estimate D2E/DX2                !
 ! D126  D(13,11,14,42)       -178.6261         estimate D2E/DX2                !
 --------------------------------------------------------------------------------
 Trust Radius=3.00D-01 FncErr=1.00D-07 GrdErr=1.00D-06
 Number of steps in this run= 252 maximum allowed number of steps= 252.
 GradGradGradGradGradGradGradGradGradGradGradGradGradGradGradGradGradGrad

                          Input orientation:                          
 ---------------------------------------------------------------------
 Center     Atomic      Atomic             Coordinates (Angstroms)
 Number     Number       Type             X           Y           Z
 ---------------------------------------------------------------------
      1          6           0       -1.124516   -1.537625   -0.525094
      2          6           0       -0.752516   -0.091625   -0.147094
      3          6           0        0.756484    0.075375    0.135906
      4          6           0       -0.237516   -2.127625   -1.627094
      5          6           0        1.635484   -0.603625   -0.930094
      6          6           0        1.237484   -2.055625   -1.215094
      7         14           0       -1.486516    1.248375   -1.288094
      8          6           0       -0.507516    1.512375   -2.872094
      9          6           0       -3.267516    0.817375   -1.733094
     10          6           0       -1.493516    2.878375   -0.328094
     11         14           0        1.257484   -0.289625    1.939906
     12          6           0        0.607484   -1.931625    2.587906
     13          6           0        3.135484   -0.263625    2.108906
     14          6           0        0.545484    1.088375    3.022906
     15          1           0       -2.196516   -1.609625   -0.822094
     16          1           0       -1.028516   -2.191625    0.371906
     17          1           0       -1.318516    0.141375    0.784906
     18          1           0        1.006484    1.162375    0.099906
     19          1           0       -0.396516   -1.574625   -2.581094
     20          1           0       -0.524516   -3.189625   -1.819094
     21          1           0        2.713484   -0.554625   -0.648094
     22          1           0        1.561484   -0.038625   -1.887094
     23          1           0        1.414484   -2.683625   -0.312094
     24          1           0        1.877484   -2.473625   -2.029094
     25          1           0       -1.042516    2.276375   -3.478094
     26          1           0        0.506484    1.886375   -2.609094
     27          1           0       -0.450516    0.555375   -3.436094
     28          1           0       -3.704516    1.679375   -2.285094
     29          1           0       -3.266516   -0.088625   -2.379094
     30          1           0       -3.831516    0.632375   -0.791094
     31          1           0       -1.959516    3.658375   -0.969094
     32          1           0       -2.084516    2.733375    0.603906
     33          1           0       -0.442516    3.152375   -0.084094
     34          1           0        0.991484   -2.062625    3.623906
     35          1           0       -0.503516   -1.896625    2.602906
     36          1           0        0.976484   -2.756625    1.939906
     37          1           0        3.386484   -0.346625    3.189906
     38          1           0        3.557484   -1.128625    1.550906
     39          1           0        3.513484    0.698375    1.694906
     40          1           0        0.868484    0.908375    4.071906
     41          1           0        0.938484    2.062375    2.654906
     42          1           0       -0.564516    1.063375    2.947906
 ---------------------------------------------------------------------
                    Distance matrix (angstroms):
                    1          2          3          4          5
     1  C    0.000000
     2  C    1.540190   0.000000
     3  C    2.564537   1.544364   0.000000
     4  C    1.532734   2.569226   2.991557   0.000000
     5  C    2.941765   2.564718   1.539493   2.513268   0.000000
     6  C    2.514651   2.992995   2.568603   1.533151   1.532297
     7  Si   2.911187   1.906892   2.904265   3.615563   3.647595
     8  C    3.897640   3.171508   3.565211   3.856491   3.583472
     9  C    3.405545   3.109164   4.498478   4.226720   5.167539
    10  C    4.435767   3.066389   3.624170   5.322121   4.719891
    11  Si   3.647966   2.904285   1.907522   4.282144   2.911766
    12  C    3.584108   3.565869   3.172153   4.303332   3.898293
    13  C    5.168039   4.498407   3.109227   5.367432   3.406042
    14  C    4.719436   3.622997   3.066832   5.707736   4.435896
    15  H    1.114709   2.201155   3.532308   2.180374   3.963322
    16  H    1.114245   2.180719   2.895032   2.150762   3.363606
    17  H    2.138405   1.115020   2.175128   3.483485   3.496050
    18  H    3.495967   2.174306   1.115959   3.918439   2.138994
    19  H    2.181396   2.872348   3.381420   1.114094   2.792430
    20  H    2.182554   3.527772   4.015372   1.116726   3.484726
    21  H    3.963794   3.532496   2.200319   3.484418   1.115352
    22  H    3.364022   2.895687   2.180264   2.769101   1.113800
    23  H    2.793780   3.382540   2.871541   2.183453   2.181093
    24  H    3.485702   4.016559   3.527218   2.180492   2.182491
    25  H    4.824265   4.097205   4.598021   4.844527   4.685978
    26  H    4.327470   3.399854   3.298067   4.198816   3.208392
    27  H    3.648129   3.365610   3.800846   3.242891   3.460450
    28  H    4.483647   4.052381   5.323023   5.190983   5.963532
    29  H    3.181993   3.361849   4.747278   3.727984   5.137551
    30  H    3.479584   3.227871   4.713738   4.607964   5.606702
    31  H    5.281361   4.024305   4.629856   6.072565   5.575858
    32  H    4.520805   3.212297   3.918580   5.658453   5.227535
    33  H    4.759801   3.259387   3.309672   5.504659   4.375081
    34  H    4.686927   4.598567   4.097855   5.393298   4.825177
    35  H    3.209191   3.298867   3.400364   4.244646   4.327731
    36  H    3.460692   3.800952   3.364973   3.820069   3.647820
    37  H    5.963961   5.322773   4.052394   6.285605   4.484022
    38  H    5.137916   4.747070   3.361167   5.049724   3.181992
    39  H    5.607062   4.713366   3.227950   5.752561   3.480332
    40  H    5.575605   4.628996   4.024740   6.551270   5.281518
    41  H    5.227654   3.917959   3.213511   6.105293   4.521680
    42  H    4.374989   3.308836   3.260142   5.587489   4.760018
                    6          7          8          9         10
     6  C    0.000000
     7  Si   4.282747   0.000000
     8  C    4.303638   1.880743   0.000000
     9  C    5.368191   1.885669   3.065607   0.000000
    10  C    5.708720   1.891705   3.051244   3.060853   0.000000
    11  Si   3.615685   4.507212   5.433026   5.932285   4.769491
    12  C    3.856823   5.433287   6.551027   6.422123   6.004445
    13  C    4.226422   5.932001   6.421525   7.545060   6.102358
    14  C    5.322053   4.768579   6.003300   6.101799   4.311708
    15  H    3.485071   2.981513   4.099037   2.804869   4.569506
    16  H    2.769805   3.846942   4.951221   4.300957   5.139176
    17  H    3.919177   2.356056   3.988861   3.255135   2.959825
    18  H    3.483979   2.854643   3.353726   4.663260   3.062326
    19  H    2.183409   3.290787   3.102672   3.831894   5.109660
    20  H    2.180692   4.572007   4.818496   4.856696   6.323185
    21  H    2.180153   4.615237   4.426455   6.231530   5.439369
    22  H    2.150546   3.362361   2.767054   4.906699   4.502488
    23  H    1.114057   4.982871   5.277698   6.016425   6.276350
    24  H    1.116656   5.071377   4.720918   6.114681   6.549881
    25  H    5.393125   2.459679   1.112276   3.181875   3.238565
    26  H    4.244639   2.474699   1.112313   4.019106   3.191712
    27  H    3.820930   2.483435   1.112292   3.302172   4.017940
    28  H    6.286373   2.469675   3.254730   1.112977   3.186843
    29  H    5.050743   2.479163   3.227744   1.112723   4.019107
    30  H    5.753250   2.474973   4.019196   1.113411   3.274924
    31  H    6.552184   2.476609   3.214814   3.219603   1.111952
    32  H    6.105650   2.478405   4.007536   3.245322   1.113072
    33  H    5.587918   2.482895   3.235239   4.018961   1.113199
    34  H    4.845254   6.421133   7.564763   7.425021   6.797574
    35  H    4.199224   5.098744   6.449568   5.814326   5.689595
    36  H    3.242460   5.703190   6.601664   6.654017   6.557282
    37  H    5.190656   6.807543   7.440898   8.358621   6.825786
    38  H    3.727262   6.257155   6.562167   7.819987   6.715601
    39  H    4.607905   5.848144   6.139098   7.599165   5.823657
    40  H    6.072382   5.864403   7.104740   7.128310   5.368421
    41  H    5.658995   4.700050   5.739438   6.204434   3.934307
    42  H    5.505083   4.339125   5.837572   5.410960   3.858684
                   11         12         13         14         15
    11  Si   0.000000
    12  C    1.881108   0.000000
    13  C    1.885768   3.066341   0.000000
    14  C    1.891750   3.051798   3.061274   0.000000
    15  H    4.615318   4.426534   6.231589   5.438915   0.000000
    16  H    3.361848   2.766722   4.906450   4.501519   1.768780
    17  H    2.855794   3.355237   4.664238   3.062670   2.533640
    18  H    2.357309   3.990261   3.256102   2.960055   4.335121
    19  H    4.982608   5.277691   6.015800   6.275647   2.517003
    20  H    5.071056   4.720767   6.114430   6.549133   2.507188
    21  H    2.981259   4.099154   2.804249   4.569017   5.025077
    22  H    3.847252   4.951686   4.300711   5.139113   4.210087
    23  H    3.290500   3.102701   3.831381   5.109341   3.801697
    24  H    4.572441   4.819061   4.856924   6.323351   4.335991
    25  H    6.420987   7.564795   7.424409   6.796770   4.846344
    26  H    5.098272   6.449506   5.813232   5.688387   4.766717
    27  H    5.703741   6.602508   6.654110   6.557041   3.816901
    28  H    6.808012   7.441693   8.358713   6.825441   3.902814
    29  H    6.257854   6.563202   7.820382   6.715525   2.425405
    30  H    5.848621   6.139744   7.599467   5.823458   2.775023
    31  H    5.864987   7.105620   7.128478   5.368053   5.275377
    32  H    4.700254   5.739804   6.204469   3.933762   4.572490
    33  H    4.339809   5.838591   5.411136   3.858716   5.128138
    34  H    2.459703   1.112615   3.182509   3.238660   5.489578
    35  H    2.474498   1.111652   4.019085   3.191712   3.831350
    36  H    2.482952   1.112066   3.302255   4.017795   4.360296
    37  H    2.469492   3.255376   1.112857   3.187224   6.990079
    38  H    2.478960   3.228417   1.112508   4.019206   6.242676
    39  H    2.475016   4.019849   1.113429   3.274860   6.653289
    40  H    2.476277   3.214961   3.219665   1.112263   6.299665
    41  H    2.478889   4.008252   3.245797   1.112901   5.949902
    42  H    2.483215   3.236234   4.019310   1.112812   4.901148
                   16         17         18         19         20
    16  H    0.000000
    17  H    2.386956   0.000000
    18  H    3.932496   2.630074   0.000000
    19  H    3.082259   3.889048   4.080115   0.000000
    20  H    2.459777   4.301955   4.996641   1.790322   0.000000
    21  H    4.209838   4.335312   2.534056   3.801183   4.335794
    22  H    4.055440   3.932732   2.387173   2.583543   3.779527
    23  H    2.584215   4.080848   3.889463   3.107726   2.507350
    24  H    3.780101   4.997123   4.302532   2.506787   2.515226
    25  H    5.897942   4.775727   4.271005   4.006510   5.735657
    26  H    5.279457   4.230235   2.848308   3.576970   5.239545
    27  H    4.730852   4.329164   3.872285   2.295831   4.079852
    28  H    5.404190   4.181308   5.305566   4.649623   5.834100
    29  H    4.123015   3.722701   5.095976   3.238194   4.177124
    30  H    4.145402   3.006664   4.947830   4.458046   5.157588
    31  H    6.073512   3.982045   4.021186   5.694366   7.048179
    32  H    5.042280   2.708871   3.503761   5.617155   6.586840
    33  H    5.395338   3.254022   2.468513   5.346181   6.575554
    34  H    3.830476   4.272428   4.776968   6.377046   5.761478
    35  H    2.310846   2.850051   4.231145   5.195093   4.607209
    36  H    2.607273   3.872913   4.329557   4.870492   4.070697
    37  H    5.553141   5.306524   4.182055   7.008817   6.961943
    38  H    4.852979   5.096571   3.723128   5.736415   5.680435
    39  H    5.543662   4.948391   3.007386   6.224051   6.615904
    40  H    5.186387   4.021893   3.982505   7.213038   7.310125
    41  H    5.213223   3.504453   2.709732   6.513501   7.052698
    42  H    4.176853   2.469245   3.254066   6.128386   6.388576
                   21         22         23         24         25
    21  H    0.000000
    22  H    1.768751   0.000000
    23  H    2.516533   3.081925   0.000000
    24  H    2.507712   2.459521   1.790686   0.000000
    25  H    5.489171   3.830316   6.376677   5.760946   0.000000
    26  H    3.830777   2.310830   5.194764   4.607129   1.818423
    27  H    4.360727   2.607754   4.871214   4.071127   1.820458
    28  H    6.990082   5.553439   7.009469   6.962160   2.977566
    29  H    6.242909   4.853262   5.737445   5.680798   3.427419
    30  H    6.653303   5.543997   6.224613   6.616084   4.207283
    31  H    6.299948   5.187290   7.213632   7.310786   3.007639
    32  H    5.949727   5.213673   6.513520   7.052870   4.237610
    33  H    4.901049   4.177237   6.128567   6.388842   3.556208
    34  H    4.846579   5.898525   4.007077   5.736752   8.567525
    35  H    4.766451   5.279819   3.577054   5.239992   7.394796
    36  H    3.816244   4.730294   2.295360   4.079810   7.665649
    37  H    3.902107   5.403834   4.649124   5.834310   8.423681
    38  H    2.424338   4.122131   3.237475   4.177059   7.618718
    39  H    2.774826   4.145383   4.457777   5.158125   7.071573
    40  H    5.274732   6.073445   5.693859   7.048277   7.907329
    41  H    4.572649   5.043024   5.617311   6.587630   6.448554
    42  H    5.127809   5.395508   5.346405   6.576037   6.556930
                   26         27         28         29         30
    26  H    0.000000
    27  H    1.836121   0.000000
    28  H    4.228516   3.629971   0.000000
    29  H    4.264863   3.076011   1.823871   0.000000
    30  H    4.867842   4.293380   1.828763   1.833251   0.000000
    31  H    3.451194   4.241672   2.948444   4.211456   3.562688
    32  H    4.213557   4.871883   3.475865   4.273066   3.067937
    33  H    2.979762   4.240327   4.201758   4.872995   4.282005
    34  H    7.394600   7.666609   8.424444   7.619924   7.072240
    35  H    6.518906   6.518024   6.850308   5.976902   5.384298
    36  H    6.517035   6.473565   7.709765   6.616270   6.485410
    37  H    6.849021   7.709737   9.184911   8.680019   8.300983
    38  H    5.975318   6.615897   8.679655   7.943140   7.948799
    39  H    5.383104   6.485438   8.300740   7.948915   7.754584
    40  H    6.761900   7.631149   7.868813   7.727072   6.768674
    41  H    5.284628   6.426558   6.790268   6.902897   6.055800
    42  H    5.718795   6.405194   6.133787   6.083160   4.983891
                   31         32         33         34         35
    31  H    0.000000
    32  H    1.829092   0.000000
    33  H    1.827717   1.828953   0.000000
    34  H    7.907837   6.448550   6.557579   0.000000
    35  H    6.762924   5.285117   5.719798   1.817972   0.000000
    36  H    7.631160   6.426097   6.405187   1.821460   1.835639
    37  H    7.868737   6.790113   6.133785   2.978093   4.228377
    38  H    7.726775   6.902465   6.082778   3.428417   4.264768
    39  H    6.768473   6.055502   4.983663   4.207689   4.867728
    40  H    6.400919   4.906919   4.901693   3.007104   3.450851
    41  H    4.907035   3.714212   3.255362   4.237617   4.213757
    42  H    4.901320   3.254787   3.683996   3.556682   2.980662
                   36         37         38         39         40
    36  H    0.000000
    37  H    3.630248   0.000000
    38  H    3.076242   1.824030   0.000000
    39  H    4.293416   1.828436   1.833194   0.000000
    40  H    4.241381   2.948436   4.211357   3.562338   0.000000
    41  H    4.871902   3.475947   4.273226   3.068016   1.828799
    42  H    4.240654   4.202031   4.873126   4.281742   1.827810
                   41         42
    41  H    0.000000
    42  H    1.828349   0.000000
 Stoichiometry    C12H28Si2
 Framework group  C1[X(C12H28Si2)]
 Deg. of freedom   120
 Full point group                 C1      NOp   1
 Largest Abelian subgroup         C1      NOp   1
 Largest concise Abelian subgroup C1      NOp   1
                         Standard orientation:                         
 ---------------------------------------------------------------------
 Center     Atomic      Atomic             Coordinates (Angstroms)
 Number     Number       Type             X           Y           Z
 ---------------------------------------------------------------------
      1          6           0        0.576661    1.319166    1.353445
      2          6           0        0.548714    0.009584    0.543261
      3          6           0       -0.548668    0.010540   -0.543391
      4          6           0        0.598323    2.577516    0.478597
      5          6           0       -0.576359    1.319700   -1.352941
      6          6           0       -0.599334    2.577825   -0.478570
      7         14           0        2.252519   -0.590737   -0.067394
      8          6           0        2.834135    0.258333   -1.641559
      9          6           0        3.549266   -0.340882    1.278625
     10          6           0        2.114922   -2.444024   -0.420868
     11         14           0       -2.252675   -0.591006    0.067463
     12          6           0       -2.834543    0.257929    1.642045
     13          6           0       -3.549053   -0.341251   -1.279069
     14          6           0       -2.113883   -2.444318    0.420577
     15          1           0        1.438953    1.333561    2.059719
     16          1           0       -0.328398    1.373763    2.001077
     17          1           0        0.327124   -0.803135    1.273779
     18          1           0       -0.325877   -0.803109   -1.273942
     19          1           0        1.550224    2.624088   -0.098397
     20          1           0        0.567365    3.489439    1.122426
     21          1           0       -1.439414    1.333401   -2.059311
     22          1           0        0.327891    1.374666   -2.000907
     23          1           0       -1.551268    2.623720    0.098351
     24          1           0       -0.567919    3.489922   -1.122009
     25          1           0        3.847828   -0.131086   -1.882257
     26          1           0        2.131109    0.006410   -2.465895
     27          1           0        2.881776    1.356884   -1.473899
     28          1           0        4.495142   -0.820597    0.941120
     29          1           0        3.706596    0.750652    1.426790
     30          1           0        3.182727   -0.819574    2.214675
     31          1           0        3.114875   -2.813749   -0.736834
     32          1           0        1.785543   -2.954889    0.511578
     33          1           0        1.369194   -2.597160   -1.233057
     34          1           0       -3.848229   -0.132646    1.882471
     35          1           0       -2.131985    0.005894    2.465855
     36          1           0       -2.881739    1.356181    1.473803
     37          1           0       -4.494686   -0.821368   -0.941850
     38          1           0       -3.706071    0.750099   -1.427301
     39          1           0       -3.182222   -0.820218   -2.214885
     40          1           0       -3.114203   -2.814128    0.736378
     41          1           0       -1.784942   -2.955480   -0.511657
     42          1           0       -1.368300   -2.597845    1.232295
 ---------------------------------------------------------------------
 Rotational constants (GHZ):      0.7198267      0.3810622      0.3229268
 Standard basis: 6-31+G(d,p) (6D, 7F)
 There are   414 symmetry adapted basis functions of A   symmetry.
 Integral buffers will be    131072 words long.
 Raffenetti 2 integral format.
 Two-electron integral symmetry is turned on.
   414 basis functions,   692 primitive gaussians,   414 cartesian basis functions
    64 alpha electrons       64 beta electrons
       nuclear repulsion energy      1255.8857380482 Hartrees.
 NAtoms=   42 NActive=   42 NUniq=   42 SFac= 7.50D-01 NAtFMM=   80 NAOKFM=F Big=F
 One-electron integrals computed using PRISM.
 NBasis=   414 RedAO= T  NBF=   414
 NBsUse=   414 1.00D-06 NBFU=   414
 Harris functional with IExCor=  402 diagonalized for initial guess.
 ExpMin= 3.31D-02 ExpMax= 1.61D+04 ExpMxC= 2.43D+03 IAcc=3 IRadAn=         0 AccDes= 0.00D+00
 HarFok:  IExCor=  402 AccDes= 0.00D+00 IRadAn=         0 IDoV= 1
 ScaDFX=  1.000000  1.000000  1.000000  1.000000
 FoFCou: FMM=F IPFlag=           0 FMFlag=      100000 FMFlg1=           0
         NFxFlg=           0 DoJE=T BraDBF=F KetDBF=T FulRan=T
         Omega=  0.000000  0.000000  1.000000  0.000000  0.000000 ICntrl=     500 IOpCl=  0
         NMat0=    1 NMatS0=    1 NMatT0=    0 NMatD0=    1 NMtDS0=    0 NMtDT0=    0
         I1Cent=           4 NGrid=           0.
 Petite list used in FoFCou.
 Initial guess orbital symmetries:
       Occupied  (A) (A) (A) (A) (A) (A) (A) (A) (A) (A) (A) (A)
                 (A) (A) (A) (A) (A) (A) (A) (A) (A) (A) (A) (A)
                 (A) (A) (A) (A) (A) (A) (A) (A) (A) (A) (A) (A)
                 (A) (A) (A) (A) (A) (A) (A) (A) (A) (A) (A) (A)
                 (A) (A) (A) (A) (A) (A) (A) (A) (A) (A) (A) (A)
                 (A) (A) (A) (A)
       Virtual   (A) (A) (A) (A) (A) (A) (A) (A) (A) (A) (A) (A)
                 (A) (A) (A) (A) (A) (A) (A) (A) (A) (A) (A) (A)
                 (A) (A) (A) (A) (A) (A) (A) (A) (A) (A) (A) (A)
                 (A) (A) (A) (A) (A) (A) (A) (A) (A) (A) (A) (A)
                 (A) (A) (A) (A) (A) (A) (A) (A) (A) (A) (A) (A)
                 (A) (A) (A) (A) (A) (A) (A) (A) (A) (A) (A) (A)
                 (A) (A) (A) (A) (A) (A) (A) (A) (A) (A) (A) (A)
                 (A) (A) (A) (A) (A) (A) (A) (A) (A) (A) (A) (A)
                 (A) (A) (A) (A) (A) (A) (A) (A) (A) (A) (A) (A)
                 (A) (A) (A) (A) (A) (A) (A) (A) (A) (A) (A) (A)
                 (A) (A) (A) (A) (A) (A) (A) (A) (A) (A) (A) (A)
                 (A) (A) (A) (A) (A) (A) (A) (A) (A) (A) (A) (A)
                 (A) (A) (A) (A) (A) (A) (A) (A) (A) (A) (A) (A)
                 (A) (A) (A) (A) (A) (A) (A) (A) (A) (A) (A) (A)
                 (A) (A) (A) (A) (A) (A) (A) (A) (A) (A) (A) (A)
                 (A) (A) (A) (A) (A) (A) (A) (A) (A) (A) (A) (A)
                 (A) (A) (A) (A) (A) (A) (A) (A) (A) (A) (A) (A)
                 (A) (A) (A) (A) (A) (A) (A) (A) (A) (A) (A) (A)
                 (A) (A) (A) (A) (A) (A) (A) (A) (A) (A) (A) (A)
                 (A) (A) (A) (A) (A) (A) (A) (A) (A) (A) (A) (A)
                 (A) (A) (A) (A) (A) (A) (A) (A) (A) (A) (A) (A)
                 (A) (A) (A) (A) (A) (A) (A) (A) (A) (A) (A) (A)
                 (A) (A) (A) (A) (A) (A) (A) (A) (A) (A) (A) (A)
                 (A) (A) (A) (A) (A) (A) (A) (A) (A) (A) (A) (A)
                 (A) (A) (A) (A) (A) (A) (A) (A) (A) (A) (A) (A)
                 (A) (A) (A) (A) (A) (A) (A) (A) (A) (A) (A) (A)
                 (A) (A) (A) (A) (A) (A) (A) (A) (A) (A) (A) (A)
                 (A) (A) (A) (A) (A) (A) (A) (A) (A) (A) (A) (A)
                 (A) (A) (A) (A) (A) (A) (A) (A) (A) (A) (A) (A)
                 (A) (A)
 The electronic state of the initial guess is 1-A.
 Requested convergence on RMS density matrix=1.00D-08 within 128 cycles.
 Requested convergence on MAX density matrix=1.00D-06.
 Requested convergence on             energy=1.00D-06.
 No special actions if energy rises.
 SCF Done:  E(RB3LYP) =  -1053.25229503     A.U. after   13 cycles
             Convg  =    0.3622D-08             -V/T =  2.0072

 **********************************************************************

            Population analysis using the SCF density.

 **********************************************************************

 Orbital symmetries:
       Occupied  (A) (A) (A) (A) (A) (A) (A) (A) (A) (A) (A) (A)
                 (A) (A) (A) (A) (A) (A) (A) (A) (A) (A) (A) (A)
                 (A) (A) (A) (A) (A) (A) (A) (A) (A) (A) (A) (A)
                 (A) (A) (A) (A) (A) (A) (A) (A) (A) (A) (A) (A)
                 (A) (A) (A) (A) (A) (A) (A) (A) (A) (A) (A) (A)
                 (A) (A) (A) (A)
       Virtual   (A) (A) (A) (A) (A) (A) (A) (A) (A) (A) (A) (A)
                 (A) (A) (A) (A) (A) (A) (A) (A) (A) (A) (A) (A)
                 (A) (A) (A) (A) (A) (A) (A) (A) (A) (A) (A) (A)
                 (A) (A) (A) (A) (A) (A) (A) (A) (A) (A) (A) (A)
                 (A) (A) (A) (A) (A) (A) (A) (A) (A) (A) (A) (A)
                 (A) (A) (A) (A) (A) (A) (A) (A) (A) (A) (A) (A)
                 (A) (A) (A) (A) (A) (A) (A) (A) (A) (A) (A) (A)
                 (A) (A) (A) (A) (A) (A) (A) (A) (A) (A) (A) (A)
                 (A) (A) (A) (A) (A) (A) (A) (A) (A) (A) (A) (A)
                 (A) (A) (A) (A) (A) (A) (A) (A) (A) (A) (A) (A)
                 (A) (A) (A) (A) (A) (A) (A) (A) (A) (A) (A) (A)
                 (A) (A) (A) (A) (A) (A) (A) (A) (A) (A) (A) (A)
                 (A) (A) (A) (A) (A) (A) (A) (A) (A) (A) (A) (A)
                 (A) (A) (A) (A) (A) (A) (A) (A) (A) (A) (A) (A)
                 (A) (A) (A) (A) (A) (A) (A) (A) (A) (A) (A) (A)
                 (A) (A) (A) (A) (A) (A) (A) (A) (A) (A) (A) (A)
                 (A) (A) (A) (A) (A) (A) (A) (A) (A) (A) (A) (A)
                 (A) (A) (A) (A) (A) (A) (A) (A) (A) (A) (A) (A)
                 (A) (A) (A) (A) (A) (A) (A) (A) (A) (A) (A) (A)
                 (A) (A) (A) (A) (A) (A) (A) (A) (A) (A) (A) (A)
                 (A) (A) (A) (A) (A) (A) (A) (A) (A) (A) (A) (A)
                 (A) (A) (A) (A) (A) (A) (A) (A) (A) (A) (A) (A)
                 (A) (A) (A) (A) (A) (A) (A) (A) (A) (A) (A) (A)
                 (A) (A) (A) (A) (A) (A) (A) (A) (A) (A) (A) (A)
                 (A) (A) (A) (A) (A) (A) (A) (A) (A) (A) (A) (A)
                 (A) (A) (A) (A) (A) (A) (A) (A) (A) (A) (A) (A)
                 (A) (A) (A) (A) (A) (A) (A) (A) (A) (A) (A) (A)
                 (A) (A) (A) (A) (A) (A) (A) (A) (A) (A) (A) (A)
                 (A) (A) (A) (A) (A) (A) (A) (A) (A) (A) (A) (A)
                 (A) (A)
 The electronic state is 1-A.
 Alpha  occ. eigenvalues --  -66.11199 -66.11190 -10.18467 -10.18454 -10.18440
 Alpha  occ. eigenvalues --  -10.18431 -10.17595 -10.17573 -10.16793 -10.16793
 Alpha  occ. eigenvalues --  -10.16687 -10.16685 -10.16658 -10.16656  -5.25762
 Alpha  occ. eigenvalues --   -5.25755  -3.61639  -3.61635  -3.61632  -3.61628
 Alpha  occ. eigenvalues --   -3.61605  -3.61597  -0.82564  -0.74254  -0.73955
 Alpha  occ. eigenvalues --   -0.71083  -0.70320  -0.67370  -0.67339  -0.67296
 Alpha  occ. eigenvalues --   -0.67143  -0.60389  -0.60287  -0.53795  -0.48241
 Alpha  occ. eigenvalues --   -0.45907  -0.44981  -0.44715  -0.42709  -0.41915
 Alpha  occ. eigenvalues --   -0.41420  -0.40971  -0.40954  -0.40738  -0.40540
 Alpha  occ. eigenvalues --   -0.39685  -0.39388  -0.39075  -0.38880  -0.38458
 Alpha  occ. eigenvalues --   -0.38225  -0.37489  -0.37351  -0.36960  -0.36494
 Alpha  occ. eigenvalues --   -0.32784  -0.30890  -0.30590  -0.30346  -0.28909
 Alpha  occ. eigenvalues --   -0.28895  -0.28613  -0.28355  -0.24081
 Alpha virt. eigenvalues --   -0.01703  -0.00375   0.00494   0.00739   0.02301
 Alpha virt. eigenvalues --    0.02337   0.02471   0.02960   0.03233   0.04334
 Alpha virt. eigenvalues --    0.04679   0.05453   0.05683   0.05767   0.06566
 Alpha virt. eigenvalues --    0.06662   0.07516   0.07796   0.08129   0.08471
 Alpha virt. eigenvalues --    0.08515   0.08630   0.09121   0.09264   0.09873
 Alpha virt. eigenvalues --    0.09877   0.10231   0.10237   0.10609   0.11010
 Alpha virt. eigenvalues --    0.11335   0.11770   0.11821   0.12403   0.12800
 Alpha virt. eigenvalues --    0.12862   0.13115   0.13291   0.13916   0.14486
 Alpha virt. eigenvalues --    0.14760   0.14984   0.15238   0.15363   0.15866
 Alpha virt. eigenvalues --    0.16319   0.16521   0.16598   0.16985   0.17482
 Alpha virt. eigenvalues --    0.18085   0.18490   0.18672   0.18783   0.19612
 Alpha virt. eigenvalues --    0.19736   0.19836   0.19979   0.20598   0.20732
 Alpha virt. eigenvalues --    0.21646   0.22189   0.22923   0.22956   0.23318
 Alpha virt. eigenvalues --    0.23531   0.24541   0.24573   0.25306   0.25329
 Alpha virt. eigenvalues --    0.25644   0.26535   0.26758   0.27347   0.27402
 Alpha virt. eigenvalues --    0.28011   0.28601   0.28962   0.29856   0.29873
 Alpha virt. eigenvalues --    0.31092   0.31392   0.31895   0.32453   0.33221
 Alpha virt. eigenvalues --    0.33464   0.33994   0.34576   0.35804   0.36411
 Alpha virt. eigenvalues --    0.39005   0.39251   0.39475   0.41202   0.41509
 Alpha virt. eigenvalues --    0.43821   0.44206   0.46156   0.46425   0.46961
 Alpha virt. eigenvalues --    0.47026   0.49645   0.50939   0.51011   0.56634
 Alpha virt. eigenvalues --    0.57479   0.59758   0.62261   0.64263   0.64725
 Alpha virt. eigenvalues --    0.66380   0.68232   0.69264   0.70378   0.71538
 Alpha virt. eigenvalues --    0.72539   0.73378   0.73843   0.74664   0.74935
 Alpha virt. eigenvalues --    0.75924   0.77557   0.78607   0.78968   0.79458
 Alpha virt. eigenvalues --    0.79510   0.80716   0.81234   0.81544   0.81785
 Alpha virt. eigenvalues --    0.82908   0.83478   0.83820   0.84699   0.86244
 Alpha virt. eigenvalues --    0.87300   0.87390   0.88451   0.89158   0.90158
 Alpha virt. eigenvalues --    0.91350   0.92224   0.92350   0.92944   0.94482
 Alpha virt. eigenvalues --    0.95101   0.95701   0.95785   0.95975   0.97197
 Alpha virt. eigenvalues --    0.99765   0.99922   1.00160   1.01083   1.01919
 Alpha virt. eigenvalues --    1.02147   1.02865   1.03856   1.04309   1.04348
 Alpha virt. eigenvalues --    1.05599   1.07461   1.07593   1.08834   1.09517
 Alpha virt. eigenvalues --    1.09817   1.12817   1.13186   1.13634   1.14794
 Alpha virt. eigenvalues --    1.16126   1.17182   1.18157   1.18833   1.18998
 Alpha virt. eigenvalues --    1.19941   1.21378   1.22147   1.22465   1.25101
 Alpha virt. eigenvalues --    1.28145   1.34322   1.34697   1.37948   1.38405
 Alpha virt. eigenvalues --    1.39161   1.40734   1.42405   1.43832   1.45020
 Alpha virt. eigenvalues --    1.45859   1.48330   1.49832   1.51052   1.51191
 Alpha virt. eigenvalues --    1.51677   1.57986   1.59946   1.60788   1.63535
 Alpha virt. eigenvalues --    1.66914   1.67611   1.68051   1.69326   1.72189
 Alpha virt. eigenvalues --    1.72863   1.75732   1.76576   1.78361   1.81698
 Alpha virt. eigenvalues --    1.82273   1.87485   1.89604   1.90944   1.91229
 Alpha virt. eigenvalues --    1.92391   1.97266   1.99262   2.00886   2.02411
 Alpha virt. eigenvalues --    2.03224   2.03456   2.03618   2.03866   2.04143
 Alpha virt. eigenvalues --    2.04569   2.05608   2.06442   2.07022   2.07331
 Alpha virt. eigenvalues --    2.07510   2.07547   2.08826   2.09039   2.10196
 Alpha virt. eigenvalues --    2.10617   2.11329   2.11389   2.11496   2.12042
 Alpha virt. eigenvalues --    2.13364   2.15186   2.16370   2.17877   2.20134
 Alpha virt. eigenvalues --    2.20179   2.23200   2.24599   2.24643   2.24768
 Alpha virt. eigenvalues --    2.25776   2.26934   2.33549   2.35061   2.35327
 Alpha virt. eigenvalues --    2.35774   2.36358   2.36787   2.36988   2.37510
 Alpha virt. eigenvalues --    2.38888   2.39909   2.40821   2.40909   2.41266
 Alpha virt. eigenvalues --    2.41329   2.42415   2.42714   2.43982   2.48980
 Alpha virt. eigenvalues --    2.50833   2.51824   2.52498   2.55038   2.55604
 Alpha virt. eigenvalues --    2.57887   2.58620   2.61202   2.61504   2.61865
 Alpha virt. eigenvalues --    2.63207   2.63812   2.67395   2.67804   2.68701
 Alpha virt. eigenvalues --    2.71006   2.74525   2.76292   2.77983   2.78538
 Alpha virt. eigenvalues --    2.79572   2.79911   2.81297   2.81620   2.82254
 Alpha virt. eigenvalues --    2.82871   2.82944   2.83118   2.83473   2.84164
 Alpha virt. eigenvalues --    2.84231   2.85041   2.85881   2.88732   2.89798
 Alpha virt. eigenvalues --    2.90275   2.92074   2.94836   3.15867   3.16240
 Alpha virt. eigenvalues --    3.20989   3.21015   3.21335   3.21376   3.22630
 Alpha virt. eigenvalues --    3.23088   3.29357   3.32452   3.34351   3.34754
 Alpha virt. eigenvalues --    3.39557   3.41665   3.41775   3.42234   3.42341
 Alpha virt. eigenvalues --    3.42948   3.43152   3.43466   3.43713   3.43939
 Alpha virt. eigenvalues --    3.44155   3.44628   3.45105   3.46730   3.48910
 Alpha virt. eigenvalues --    3.50323   3.54341   3.59314   4.42061   4.46467
 Alpha virt. eigenvalues --    4.47153   4.51431   4.51457   4.53149   4.53647
 Alpha virt. eigenvalues --    4.57443   4.57953   4.74256   4.77817   4.79668
          Condensed to atoms (all electrons):
              1          2          3          4          5          6
     1  C    7.835768  -1.952497  -0.851546   0.465719   0.358708  -0.313638
     2  C   -1.952497  13.346964  -3.556298  -0.265671  -0.855589   0.011739
     3  C   -0.851546  -3.556298  13.348739   0.012007  -1.955783  -0.266119
     4  C    0.465719  -0.265671   0.012007   5.718004  -0.314685   0.028245
     5  C    0.358708  -0.855589  -1.955783  -0.314685   7.843187   0.466450
     6  C   -0.313638   0.011739  -0.266119   0.028245   0.466450   5.716834
     7  Si   0.046700   0.418456  -0.988046  -0.075700   0.371212  -0.023302
     8  C    0.019263  -0.124194   0.211148  -0.003491  -0.134970   0.003731
     9  C   -0.080965  -0.047162   0.094488  -0.012842  -0.015543   0.010800
    10  C   -0.074449  -0.008410   0.095521  -0.004943  -0.045641   0.012107
    11  Si   0.371182  -0.986582   0.416570  -0.022994   0.047199  -0.076526
    12  C   -0.134633   0.210929  -0.124056   0.003716   0.019118  -0.003420
    13  C   -0.015619   0.094594  -0.047521   0.010702  -0.081044  -0.012618
    14  C   -0.045720   0.095132  -0.007881   0.012060  -0.074374  -0.004900
    15  H    0.414191  -0.076623  -0.012050  -0.029864   0.009703   0.020236
    16  H    0.397868  -0.074802   0.075505  -0.027445  -0.027381  -0.011426
    17  H    0.096000   0.292189  -0.128111   0.028307  -0.020725  -0.013420
    18  H   -0.020696  -0.128233   0.292096  -0.013460   0.096192   0.028334
    19  H   -0.139188   0.099598  -0.033035   0.447978  -0.006654  -0.066561
    20  H   -0.087782   0.030895   0.024232   0.368238   0.028146  -0.030287
    21  H    0.009654  -0.011668  -0.077205   0.020320   0.414172  -0.029823
    22  H   -0.027411   0.075142  -0.074240  -0.011366   0.397735  -0.027434
    23  H   -0.006765  -0.032800   0.099477  -0.066578  -0.139188   0.447988
    24  H    0.028087   0.024274   0.030929  -0.030401  -0.087911   0.368480
    25  H    0.001795   0.013241  -0.003346  -0.000516   0.004183   0.001174
    26  H   -0.002282  -0.047290   0.055114  -0.001644  -0.012549   0.002204
    27  H    0.010684   0.011494  -0.044435  -0.002285   0.011474   0.003382
    28  H    0.002253   0.016062  -0.011503   0.002441   0.000090  -0.000424
    29  H    0.031770  -0.037092  -0.006998   0.003788   0.002070  -0.000925
    30  H   -0.014509   0.011456   0.005311   0.000041  -0.000681  -0.000278
    31  H   -0.004705   0.008505   0.014064   0.000112  -0.001546  -0.000103
    32  H    0.003455  -0.022419   0.009921   0.000884  -0.003124  -0.000469
    33  H   -0.004189  -0.041139   0.037278  -0.000774   0.004804   0.000876
    34  H    0.004180  -0.003369   0.013294   0.001167   0.001776  -0.000513
    35  H   -0.012469   0.054880  -0.047069   0.002182  -0.002353  -0.001619
    36  H    0.011428  -0.044340   0.011418   0.003384   0.010740  -0.002282
    37  H    0.000091  -0.011523   0.016058  -0.000422   0.002291   0.002434
    38  H    0.002067  -0.006954  -0.037120  -0.000925   0.031782   0.003798
    39  H   -0.000680   0.005268   0.011462  -0.000275  -0.014498   0.000028
    40  H   -0.001542   0.014003   0.008584  -0.000103  -0.004724   0.000111
    41  H   -0.003120   0.009883  -0.022354  -0.000466   0.003441   0.000883
    42  H    0.004771   0.037398  -0.041182   0.000870  -0.004216  -0.000771
              7          8          9         10         11         12
     1  C    0.046700   0.019263  -0.080965  -0.074449   0.371182  -0.134633
     2  C    0.418456  -0.124194  -0.047162  -0.008410  -0.986582   0.210929
     3  C   -0.988046   0.211148   0.094488   0.095521   0.416570  -0.124056
     4  C   -0.075700  -0.003491  -0.012842  -0.004943  -0.022994   0.003716
     5  C    0.371212  -0.134970  -0.015543  -0.045641   0.047199   0.019118
     6  C   -0.023302   0.003731   0.010800   0.012107  -0.076526  -0.003420
     7  Si  13.511317   0.062387   0.127743   0.089567  -0.095791   0.005187
     8  C    0.062387   5.458235  -0.036389  -0.027950   0.005170  -0.000707
     9  C    0.127743  -0.036389   5.450369  -0.026516  -0.005985   0.001591
    10  C    0.089567  -0.027950  -0.026516   5.453993  -0.037868   0.002316
    11  Si  -0.095791   0.005170  -0.005985  -0.037868  13.512070   0.061942
    12  C    0.005187  -0.000707   0.001591   0.002316   0.061942   5.457943
    13  C   -0.006023   0.001602   0.001305   0.001665   0.127891  -0.036269
    14  C   -0.037830   0.002311   0.001664   0.008076   0.089395  -0.027841
    15  H   -0.026601  -0.000535   0.010792   0.000537   0.002062  -0.000455
    16  H   -0.005160  -0.000259   0.001294  -0.000188  -0.019532  -0.003282
    17  H   -0.051231   0.012476  -0.005215  -0.014420   0.078471  -0.010783
    18  H    0.078622  -0.010841   0.002877  -0.013349  -0.051454   0.012471
    19  H    0.019674  -0.014089  -0.001825   0.000284  -0.002580  -0.000452
    20  H   -0.008698   0.001345   0.001871   0.000126  -0.004926   0.001702
    21  H    0.002045  -0.000449   0.000314   0.000072  -0.026580  -0.000542
    22  H   -0.019588  -0.003264  -0.002230   0.003920  -0.005122  -0.000262
    23  H   -0.002593  -0.000451  -0.000282   0.000252   0.019734  -0.014100
    24  H   -0.004922   0.001702  -0.000059  -0.000016  -0.008657   0.001342
    25  H   -0.054271   0.414627  -0.009047  -0.008654  -0.000037  -0.000006
    26  H   -0.060234   0.413848   0.008678   0.004433  -0.000698  -0.000005
    27  H   -0.035142   0.398454  -0.002099   0.006196   0.000823   0.000003
    28  H   -0.019306  -0.012598   0.397872  -0.014038   0.000065  -0.000004
    29  H   -0.046624  -0.000915   0.407792   0.006612   0.000542  -0.000041
    30  H   -0.047868   0.008706   0.397983  -0.000903   0.000061  -0.000006
    31  H   -0.059272  -0.006003  -0.012851   0.421412   0.001937  -0.000006
    32  H   -0.041979   0.008947  -0.002429   0.402202   0.003980  -0.000088
    33  H   -0.046667   0.000358   0.009543   0.404217  -0.006153  -0.000006
    34  H   -0.000037  -0.000006  -0.000024  -0.000001  -0.054214   0.414566
    35  H   -0.000690  -0.000005   0.000161   0.000129  -0.060182   0.413934
    36  H    0.000824   0.000003  -0.000070  -0.000090  -0.035260   0.398537
    37  H    0.000065  -0.000004  -0.000007   0.000027  -0.019348  -0.012590
    38  H    0.000542  -0.000041  -0.000003  -0.000075  -0.046668  -0.000911
    39  H    0.000060  -0.000006   0.000005   0.000189  -0.047817   0.008692
    40  H    0.001940  -0.000006  -0.000008   0.000166  -0.059249  -0.006003
    41  H    0.003984  -0.000088  -0.000113  -0.000431  -0.041982   0.008919
    42  H   -0.006139  -0.000006   0.000458   0.000123  -0.046739   0.000393
             13         14         15         16         17         18
     1  C   -0.015619  -0.045720   0.414191   0.397868   0.096000  -0.020696
     2  C    0.094594   0.095132  -0.076623  -0.074802   0.292189  -0.128233
     3  C   -0.047521  -0.007881  -0.012050   0.075505  -0.128111   0.292096
     4  C    0.010702   0.012060  -0.029864  -0.027445   0.028307  -0.013460
     5  C   -0.081044  -0.074374   0.009703  -0.027381  -0.020725   0.096192
     6  C   -0.012618  -0.004900   0.020236  -0.011426  -0.013420   0.028334
     7  Si  -0.006023  -0.037830  -0.026601  -0.005160  -0.051231   0.078622
     8  C    0.001602   0.002311  -0.000535  -0.000259   0.012476  -0.010841
     9  C    0.001305   0.001664   0.010792   0.001294  -0.005215   0.002877
    10  C    0.001665   0.008076   0.000537  -0.000188  -0.014420  -0.013349
    11  Si   0.127891   0.089395   0.002062  -0.019532   0.078471  -0.051454
    12  C   -0.036269  -0.027841  -0.000455  -0.003282  -0.010783   0.012471
    13  C    5.450261  -0.026463   0.000314  -0.002232   0.002878  -0.005209
    14  C   -0.026463   5.454075   0.000071   0.003925  -0.013380  -0.014376
    15  H    0.000314   0.000071   0.603577  -0.033947  -0.001360  -0.000109
    16  H   -0.002232   0.003925  -0.033947   0.597044  -0.009258  -0.000224
    17  H    0.002878  -0.013380  -0.001360  -0.009258   0.635625   0.001500
    18  H   -0.005209  -0.014376  -0.000109  -0.000224   0.001500   0.635835
    19  H   -0.000283   0.000253  -0.004420   0.005503  -0.000123  -0.000050
    20  H   -0.000059  -0.000015  -0.003135  -0.004960  -0.000144   0.000011
    21  H    0.010783   0.000543   0.000011  -0.000032  -0.000109  -0.001374
    22  H    0.001284  -0.000189  -0.000031   0.000141  -0.000224  -0.009264
    23  H   -0.001834   0.000287   0.000026   0.003313  -0.000050  -0.000123
    24  H    0.001866   0.000126  -0.000156   0.000043   0.000011  -0.000144
    25  H   -0.000024  -0.000001  -0.000007   0.000001  -0.000022  -0.000028
    26  H    0.000162   0.000130   0.000000   0.000000  -0.000002   0.000451
    27  H   -0.000070  -0.000090   0.000005  -0.000007  -0.000010   0.000105
    28  H   -0.000007   0.000027   0.000074   0.000000  -0.000034  -0.000003
    29  H   -0.000003  -0.000075   0.000047   0.000028   0.000092   0.000002
    30  H    0.000005   0.000189  -0.000424  -0.000013   0.000679  -0.000002
    31  H   -0.000008   0.000166  -0.000002   0.000000   0.000071  -0.000051
    32  H   -0.000113  -0.000436   0.000001  -0.000001   0.001178  -0.000019
    33  H    0.000457   0.000122   0.000001   0.000000   0.000050   0.001876
    34  H   -0.009073  -0.008651  -0.000001   0.000186  -0.000028  -0.000022
    35  H    0.008659   0.004426   0.000055   0.000384   0.000449  -0.000002
    36  H   -0.002076   0.006193   0.000019  -0.000424   0.000105  -0.000010
    37  H    0.397883  -0.014030   0.000000   0.000000  -0.000003  -0.000034
    38  H    0.407824   0.006612   0.000000   0.000001   0.000002   0.000092
    39  H    0.398027  -0.000911   0.000000   0.000000  -0.000002   0.000677
    40  H   -0.012872   0.421320   0.000000  -0.000001  -0.000051   0.000071
    41  H   -0.002405   0.402254   0.000000  -0.000001  -0.000019   0.001173
    42  H    0.009518   0.404324   0.000002  -0.000005   0.001870   0.000051
             19         20         21         22         23         24
     1  C   -0.139188  -0.087782   0.009654  -0.027411  -0.006765   0.028087
     2  C    0.099598   0.030895  -0.011668   0.075142  -0.032800   0.024274
     3  C   -0.033035   0.024232  -0.077205  -0.074240   0.099477   0.030929
     4  C    0.447978   0.368238   0.020320  -0.011366  -0.066578  -0.030401
     5  C   -0.006654   0.028146   0.414172   0.397735  -0.139188  -0.087911
     6  C   -0.066561  -0.030287  -0.029823  -0.027434   0.447988   0.368480
     7  Si   0.019674  -0.008698   0.002045  -0.019588  -0.002593  -0.004922
     8  C   -0.014089   0.001345  -0.000449  -0.003264  -0.000451   0.001702
     9  C   -0.001825   0.001871   0.000314  -0.002230  -0.000282  -0.000059
    10  C    0.000284   0.000126   0.000072   0.003920   0.000252  -0.000016
    11  Si  -0.002580  -0.004926  -0.026580  -0.005122   0.019734  -0.008657
    12  C   -0.000452   0.001702  -0.000542  -0.000262  -0.014100   0.001342
    13  C   -0.000283  -0.000059   0.010783   0.001284  -0.001834   0.001866
    14  C    0.000253  -0.000015   0.000543  -0.000189   0.000287   0.000126
    15  H   -0.004420  -0.003135   0.000011  -0.000031   0.000026  -0.000156
    16  H    0.005503  -0.004960  -0.000032   0.000141   0.003313   0.000043
    17  H   -0.000123  -0.000144  -0.000109  -0.000224  -0.000050   0.000011
    18  H   -0.000050   0.000011  -0.001374  -0.009264  -0.000123  -0.000144
    19  H    0.595085  -0.031250   0.000026   0.003311   0.005148  -0.004543
    20  H   -0.031250   0.592570  -0.000157   0.000043  -0.004540  -0.002977
    21  H    0.000026  -0.000157   0.603875  -0.033946  -0.004437  -0.003130
    22  H    0.003311   0.000043  -0.033946   0.596836   0.005505  -0.004963
    23  H    0.005148  -0.004540  -0.004437   0.005505   0.595073  -0.031220
    24  H   -0.004543  -0.002977  -0.003130  -0.004963  -0.031220   0.592433
    25  H    0.000080   0.000000  -0.000001   0.000186   0.000000   0.000000
    26  H    0.000001   0.000000   0.000055   0.000386  -0.000001  -0.000002
    27  H    0.001485   0.000010   0.000019  -0.000422  -0.000001  -0.000016
    28  H   -0.000005   0.000000   0.000000   0.000000   0.000000   0.000000
    29  H    0.000122  -0.000008   0.000000   0.000001   0.000000   0.000000
    30  H    0.000006   0.000000   0.000000   0.000000   0.000000   0.000000
    31  H    0.000000   0.000000   0.000000  -0.000001   0.000000   0.000000
    32  H    0.000000   0.000000   0.000000  -0.000001   0.000000   0.000000
    33  H    0.000000   0.000000   0.000002  -0.000005   0.000000   0.000000
    34  H    0.000000   0.000000  -0.000007   0.000001   0.000080   0.000000
    35  H   -0.000001  -0.000002   0.000000   0.000000   0.000001   0.000000
    36  H   -0.000001  -0.000016   0.000005  -0.000007   0.001490   0.000010
    37  H    0.000000   0.000000   0.000075   0.000000  -0.000005   0.000000
    38  H    0.000000   0.000000   0.000049   0.000028   0.000122  -0.000008
    39  H    0.000000   0.000000  -0.000424  -0.000013   0.000006   0.000000
    40  H    0.000000   0.000000  -0.000002   0.000000   0.000000   0.000000
    41  H    0.000000   0.000000   0.000001  -0.000001   0.000000   0.000000
    42  H    0.000000   0.000000   0.000001   0.000000   0.000000   0.000000
             25         26         27         28         29         30
     1  C    0.001795  -0.002282   0.010684   0.002253   0.031770  -0.014509
     2  C    0.013241  -0.047290   0.011494   0.016062  -0.037092   0.011456
     3  C   -0.003346   0.055114  -0.044435  -0.011503  -0.006998   0.005311
     4  C   -0.000516  -0.001644  -0.002285   0.002441   0.003788   0.000041
     5  C    0.004183  -0.012549   0.011474   0.000090   0.002070  -0.000681
     6  C    0.001174   0.002204   0.003382  -0.000424  -0.000925  -0.000278
     7  Si  -0.054271  -0.060234  -0.035142  -0.019306  -0.046624  -0.047868
     8  C    0.414627   0.413848   0.398454  -0.012598  -0.000915   0.008706
     9  C   -0.009047   0.008678  -0.002099   0.397872   0.407792   0.397983
    10  C   -0.008654   0.004433   0.006196  -0.014038   0.006612  -0.000903
    11  Si  -0.000037  -0.000698   0.000823   0.000065   0.000542   0.000061
    12  C   -0.000006  -0.000005   0.000003  -0.000004  -0.000041  -0.000006
    13  C   -0.000024   0.000162  -0.000070  -0.000007  -0.000003   0.000005
    14  C   -0.000001   0.000130  -0.000090   0.000027  -0.000075   0.000189
    15  H   -0.000007   0.000000   0.000005   0.000074   0.000047  -0.000424
    16  H    0.000001   0.000000  -0.000007   0.000000   0.000028  -0.000013
    17  H   -0.000022  -0.000002  -0.000010  -0.000034   0.000092   0.000679
    18  H   -0.000028   0.000451   0.000105  -0.000003   0.000002  -0.000002
    19  H    0.000080   0.000001   0.001485  -0.000005   0.000122   0.000006
    20  H    0.000000   0.000000   0.000010   0.000000  -0.000008   0.000000
    21  H   -0.000001   0.000055   0.000019   0.000000   0.000000   0.000000
    22  H    0.000186   0.000386  -0.000422   0.000000   0.000001   0.000000
    23  H    0.000000  -0.000001  -0.000001   0.000000   0.000000   0.000000
    24  H    0.000000  -0.000002  -0.000016   0.000000   0.000000   0.000000
    25  H    0.529643  -0.023013  -0.022876   0.000637  -0.000027   0.000018
    26  H   -0.023013   0.525066  -0.021525   0.000011   0.000015  -0.000022
    27  H   -0.022876  -0.021525   0.531189   0.000017   0.000468   0.000002
    28  H    0.000637   0.000011   0.000017   0.524727  -0.022597  -0.021599
    29  H   -0.000027   0.000015   0.000468  -0.022597   0.527676  -0.022340
    30  H    0.000018  -0.000022   0.000002  -0.021599  -0.022340   0.525851
    31  H    0.000559  -0.000043   0.000011   0.000640   0.000018   0.000019
    32  H    0.000014   0.000011  -0.000021  -0.000029   0.000004   0.000479
    33  H   -0.000003   0.000578   0.000010   0.000018  -0.000021   0.000004
    34  H    0.000000   0.000000   0.000000   0.000000   0.000000   0.000000
    35  H    0.000000   0.000000   0.000000   0.000000   0.000000   0.000000
    36  H    0.000000   0.000000   0.000000   0.000000   0.000000   0.000000
    37  H    0.000000   0.000000   0.000000   0.000000   0.000000   0.000000
    38  H    0.000000   0.000000   0.000000   0.000000   0.000000   0.000000
    39  H    0.000000   0.000000   0.000000   0.000000   0.000000   0.000000
    40  H    0.000000   0.000000   0.000000   0.000000   0.000000   0.000000
    41  H    0.000000   0.000000   0.000000   0.000000   0.000000   0.000000
    42  H    0.000000   0.000000   0.000000   0.000000   0.000000   0.000000
             31         32         33         34         35         36
     1  C   -0.004705   0.003455  -0.004189   0.004180  -0.012469   0.011428
     2  C    0.008505  -0.022419  -0.041139  -0.003369   0.054880  -0.044340
     3  C    0.014064   0.009921   0.037278   0.013294  -0.047069   0.011418
     4  C    0.000112   0.000884  -0.000774   0.001167   0.002182   0.003384
     5  C   -0.001546  -0.003124   0.004804   0.001776  -0.002353   0.010740
     6  C   -0.000103  -0.000469   0.000876  -0.000513  -0.001619  -0.002282
     7  Si  -0.059272  -0.041979  -0.046667  -0.000037  -0.000690   0.000824
     8  C   -0.006003   0.008947   0.000358  -0.000006  -0.000005   0.000003
     9  C   -0.012851  -0.002429   0.009543  -0.000024   0.000161  -0.000070
    10  C    0.421412   0.402202   0.404217  -0.000001   0.000129  -0.000090
    11  Si   0.001937   0.003980  -0.006153  -0.054214  -0.060182  -0.035260
    12  C   -0.000006  -0.000088  -0.000006   0.414566   0.413934   0.398537
    13  C   -0.000008  -0.000113   0.000457  -0.009073   0.008659  -0.002076
    14  C    0.000166  -0.000436   0.000122  -0.008651   0.004426   0.006193
    15  H   -0.000002   0.000001   0.000001  -0.000001   0.000055   0.000019
    16  H    0.000000  -0.000001   0.000000   0.000186   0.000384  -0.000424
    17  H    0.000071   0.001178   0.000050  -0.000028   0.000449   0.000105
    18  H   -0.000051  -0.000019   0.001876  -0.000022  -0.000002  -0.000010
    19  H    0.000000   0.000000   0.000000   0.000000  -0.000001  -0.000001
    20  H    0.000000   0.000000   0.000000   0.000000  -0.000002  -0.000016
    21  H    0.000000   0.000000   0.000002  -0.000007   0.000000   0.000005
    22  H   -0.000001  -0.000001  -0.000005   0.000001   0.000000  -0.000007
    23  H    0.000000   0.000000   0.000000   0.000080   0.000001   0.001490
    24  H    0.000000   0.000000   0.000000   0.000000   0.000000   0.000010
    25  H    0.000559   0.000014  -0.000003   0.000000   0.000000   0.000000
    26  H   -0.000043   0.000011   0.000578   0.000000   0.000000   0.000000
    27  H    0.000011  -0.000021   0.000010   0.000000   0.000000   0.000000
    28  H    0.000640  -0.000029   0.000018   0.000000   0.000000   0.000000
    29  H    0.000018   0.000004  -0.000021   0.000000   0.000000   0.000000
[...]
    30  H    0.000000   0.000134  -0.000291  -0.000013   0.000621  -0.000001
    31  H   -0.000013   0.000208  -0.000001   0.000000   0.000044  -0.000045
    32  H   -0.000130  -0.000798   0.000000  -0.000001   0.000813  -0.000063
    33  H    0.000580   0.000984   0.000001   0.000000   0.000057   0.001658
    34  H   -0.007386  -0.006851  -0.000001   0.000149  -0.000025  -0.000018
    35  H    0.008393   0.004497   0.000040   0.000890   0.000165  -0.000003
    36  H   -0.001057   0.006276   0.000008  -0.000182   0.000052  -0.000008
    37  H    0.395724  -0.012499   0.000000   0.000000  -0.000002  -0.000031
    38  H    0.406928   0.006485   0.000000   0.000001   0.000001   0.000073
    39  H    0.396415  -0.000658   0.000000   0.000000  -0.000001   0.000621
    40  H   -0.011510   0.415540   0.000000  -0.000001  -0.000045   0.000044
    41  H   -0.002137   0.399991   0.000000  -0.000001  -0.000063   0.000814
    42  H    0.008906   0.404400   0.000002  -0.000004   0.001657   0.000057
             19         20         21         22         23         24
     1  C   -0.134026  -0.083802   0.011247  -0.025215  -0.003016   0.025662
     2  C    0.086439   0.031879  -0.015113   0.059786  -0.032725   0.020343
     3  C   -0.032716   0.020344  -0.097306  -0.065373   0.086448   0.031879
     4  C    0.455321   0.372164   0.018182  -0.008006  -0.067941  -0.031723
     5  C   -0.003017   0.025659   0.436383   0.397547  -0.134024  -0.083801
     6  C   -0.067940  -0.031720  -0.033696  -0.029815   0.455322   0.372163
     7  Si   0.017786  -0.005996   0.000920  -0.014938  -0.002717  -0.006471
     8  C   -0.012398   0.000734  -0.000332  -0.004024  -0.000382   0.002079
     9  C   -0.001404   0.001605   0.000262  -0.001854  -0.000222  -0.000022
    10  C   -0.000028   0.000093   0.000106   0.003796   0.000207   0.000010
    11  Si  -0.002718  -0.006471  -0.015378  -0.004345   0.017784  -0.005992
    12  C   -0.000382   0.002079  -0.001221  -0.000399  -0.012397   0.000734
    13  C   -0.000222  -0.000022   0.009415   0.000998  -0.001403   0.001604
    14  C    0.000207   0.000010   0.000476  -0.000527  -0.000029   0.000093
    15  H   -0.004594  -0.002981   0.000011  -0.000029   0.000009  -0.000156
    16  H    0.005721  -0.005088  -0.000029   0.000158   0.003454   0.000020
    17  H   -0.000100  -0.000150  -0.000116  -0.000190  -0.000038   0.000010
    18  H   -0.000038   0.000010  -0.001368  -0.008942  -0.000100  -0.000150
    19  H    0.591463  -0.032880   0.000009   0.003454   0.005630  -0.005028
    20  H   -0.032880   0.591877  -0.000156   0.000020  -0.005028  -0.002584
    21  H    0.000009  -0.000156   0.600730  -0.034945  -0.004594  -0.002981
    22  H    0.003454   0.000020  -0.034945   0.597742   0.005721  -0.005088
    23  H    0.005630  -0.005028  -0.004594   0.005721   0.591461  -0.032880
    24  H   -0.005028  -0.002584  -0.002981  -0.005088  -0.032880   0.591878
    25  H    0.000072   0.000000  -0.000001   0.000149   0.000000   0.000000
    26  H   -0.000010   0.000000   0.000040   0.000889  -0.000001  -0.000003
    27  H    0.001178   0.000010   0.000008  -0.000182   0.000000  -0.000012
    28  H   -0.000004   0.000000   0.000000   0.000000   0.000000   0.000000
    29  H    0.000078  -0.000007   0.000000   0.000001   0.000000   0.000000
    30  H    0.000004   0.000000   0.000000   0.000000   0.000000   0.000000
    31  H    0.000000   0.000000   0.000000  -0.000001   0.000000   0.000000
    32  H    0.000000   0.000000   0.000000  -0.000001   0.000000   0.000000
    33  H    0.000000   0.000000   0.000002  -0.000004   0.000000   0.000000
    34  H    0.000000   0.000000  -0.000006   0.000001   0.000072   0.000000
    35  H   -0.000001  -0.000003   0.000002   0.000000  -0.000010   0.000000
    36  H    0.000000  -0.000012   0.000000  -0.000004   0.001178   0.000010
    37  H    0.000000   0.000000   0.000048   0.000000  -0.000004   0.000000
    38  H    0.000000   0.000000   0.000039   0.000020   0.000078  -0.000007
    39  H    0.000000   0.000000  -0.000291  -0.000013   0.000004   0.000000
    40  H    0.000000   0.000000  -0.000001   0.000000   0.000000   0.000000
    41  H    0.000000   0.000000   0.000000  -0.000001   0.000000   0.000000
    42  H    0.000000   0.000000   0.000001   0.000000   0.000000   0.000000
             25         26         27         28         29         30
     1  C    0.000595  -0.002065   0.012857   0.001957   0.027464  -0.007243
     2  C    0.012018  -0.035320  -0.004498   0.011865  -0.031596   0.008498
     3  C   -0.000813   0.044046  -0.026708  -0.009862  -0.004813   0.002084
     4  C   -0.000528  -0.001455  -0.002282   0.002283   0.003496   0.000101
     5  C    0.002230  -0.009847   0.009445   0.000042   0.001600  -0.000459
     6  C    0.001349   0.002000   0.002620  -0.000388  -0.000686  -0.000257
     7  Si  -0.050771  -0.059166  -0.032304  -0.016127  -0.045699  -0.044530
     8  C    0.411663   0.411813   0.398024  -0.010284  -0.000216   0.008222
     9  C   -0.007386   0.008393  -0.001057   0.395722   0.406927   0.396416
    10  C   -0.006852   0.004498   0.006276  -0.012498   0.006485  -0.000659
    11  Si  -0.000160  -0.000392   0.000266  -0.000103   0.000635   0.000319
    12  C   -0.000004   0.000008   0.000009   0.000001  -0.000037  -0.000010
    13  C   -0.000015   0.000100  -0.000028  -0.000006  -0.000001   0.000000
    14  C    0.000015   0.000090  -0.000059   0.000036  -0.000085   0.000134
    15  H   -0.000006   0.000002   0.000000   0.000048   0.000039  -0.000291
    16  H    0.000001   0.000000  -0.000004   0.000000   0.000020  -0.000013
    17  H   -0.000018  -0.000003  -0.000008  -0.000031   0.000073   0.000621
    18  H   -0.000025   0.000165   0.000052  -0.000002   0.000001  -0.000001
    19  H    0.000072  -0.000010   0.001178  -0.000004   0.000078   0.000004
    20  H    0.000000   0.000000   0.000010   0.000000  -0.000007   0.000000
    21  H   -0.000001   0.000040   0.000008   0.000000   0.000000   0.000000
    22  H    0.000149   0.000889  -0.000182   0.000000   0.000001   0.000000
    23  H    0.000000  -0.000001   0.000000   0.000000   0.000000   0.000000
    24  H    0.000000  -0.000003  -0.000012   0.000000   0.000000   0.000000
    25  H    0.528406  -0.025094  -0.024779   0.000505  -0.000013   0.000013
    26  H   -0.025094   0.525927  -0.024840   0.000007   0.000011  -0.000018
    27  H   -0.024779  -0.024840   0.528286   0.000013   0.000386   0.000004
    28  H    0.000505   0.000007   0.000013   0.526021  -0.024660  -0.024121
    29  H   -0.000013   0.000011   0.000386  -0.024660   0.526955  -0.025262
    30  H    0.000013  -0.000018   0.000004  -0.024121  -0.025262   0.525957
    31  H    0.000520  -0.000030   0.000012   0.000546   0.000013   0.000016
    32  H    0.000015   0.000005  -0.000017  -0.000025   0.000004   0.000355
    33  H   -0.000010   0.000386   0.000006   0.000016  -0.000017   0.000000
    34  H    0.000000   0.000000   0.000000   0.000000   0.000000   0.000000
    35  H    0.000000   0.000000   0.000000   0.000000   0.000000   0.000000
    36  H    0.000000   0.000000   0.000000   0.000000   0.000000   0.000000
    37  H    0.000000   0.000000   0.000000   0.000000   0.000000   0.000000
    38  H    0.000000   0.000000   0.000000   0.000000   0.000000   0.000000
    39  H    0.000000   0.000000   0.000000   0.000000   0.000000   0.000000
    40  H    0.000000   0.000000   0.000000   0.000000   0.000000   0.000000
    41  H    0.000000   0.000000   0.000000   0.000000   0.000000   0.000000
    42  H    0.000000   0.000000   0.000000   0.000000   0.000000  -0.000001
             31         32         33         34         35         36
     1  C   -0.004168   0.001456  -0.002723   0.002229  -0.009847   0.009442
     2  C    0.008365  -0.018958  -0.036131  -0.000811   0.044048  -0.026699
     3  C    0.010636   0.010313   0.033948   0.012017  -0.035319  -0.004507
     4  C    0.000077   0.000824  -0.000743   0.001349   0.002001   0.002620
     5  C   -0.001291  -0.001740   0.002740   0.000595  -0.002068   0.012861
     6  C   -0.000148  -0.000479   0.000708  -0.000528  -0.001455  -0.002283
     7  Si  -0.049390  -0.038510  -0.046058  -0.000160  -0.000392   0.000266
     8  C   -0.005775   0.008453   0.001524  -0.000004   0.000008   0.000009
     9  C   -0.011510  -0.002137   0.008906  -0.000015   0.000100  -0.000028
    10  C    0.415544   0.399995   0.404398   0.000015   0.000090  -0.000059
    11  Si   0.001227   0.003752  -0.005912  -0.050772  -0.059163  -0.032305
    12  C    0.000006  -0.000053  -0.000004   0.411665   0.411812   0.398025
    13  C   -0.000013  -0.000130   0.000580  -0.007386   0.008393  -0.001057
    14  C    0.000208  -0.000798   0.000984  -0.006851   0.004497   0.006276
    15  H   -0.000001   0.000000   0.000001  -0.000001   0.000040   0.000008
    16  H    0.000000  -0.000001   0.000000   0.000149   0.000890  -0.000182
    17  H    0.000044   0.000813   0.000057  -0.000025   0.000165   0.000052
    18  H   -0.000045  -0.000063   0.001658  -0.000018  -0.000003  -0.000008
    19  H    0.000000   0.000000   0.000000   0.000000  -0.000001   0.000000
    20  H    0.000000   0.000000   0.000000   0.000000  -0.000003  -0.000012
    21  H    0.000000   0.000000   0.000002  -0.000006   0.000002   0.000000
    22  H   -0.000001  -0.000001  -0.000004   0.000001   0.000000  -0.000004
    23  H    0.000000   0.000000   0.000000   0.000072  -0.000010   0.001178
    24  H    0.000000   0.000000   0.000000   0.000000   0.000000   0.000010
    25  H    0.000520   0.000015  -0.000010   0.000000   0.000000   0.000000
    26  H   -0.000030   0.000005   0.000386   0.000000   0.000000   0.000000
    27  H    0.000012  -0.000017   0.000006   0.000000   0.000000   0.000000
    28  H    0.000546  -0.000025   0.000016   0.000000   0.000000   0.000000
    29  H    0.000013   0.000004  -0.000017   0.000000   0.000000   0.000000
    30  H    0.000016   0.000355   0.000000   0.000000   0.000000   0.000000
    31  H    0.526616  -0.024491  -0.024970   0.000000   0.000000   0.000000
    32  H   -0.024491   0.527225  -0.024931   0.000000   0.000000   0.000000
    33  H   -0.024970  -0.024931   0.530475   0.000000   0.000000   0.000000
    34  H    0.000000   0.000000   0.000000   0.528406  -0.025094  -0.024779
    35  H    0.000000   0.000000   0.000000  -0.025094   0.525928  -0.024840
    36  H    0.000000   0.000000   0.000000  -0.024779  -0.024840   0.528287
    37  H    0.000000   0.000000   0.000000   0.000505   0.000007   0.000013
    38  H    0.000000   0.000000   0.000000  -0.000013   0.000011   0.000386
    39  H    0.000000   0.000000  -0.000001   0.000013  -0.000018   0.000004
    40  H    0.000000   0.000002   0.000001   0.000520  -0.000030   0.000012
    41  H    0.000002  -0.000005   0.000036   0.000015   0.000005  -0.000017
    42  H    0.000001   0.000036   0.000006  -0.000010   0.000386   0.000006
             37         38         39         40         41         42
     1  C    0.000042   0.001600  -0.000459  -0.001291  -0.001740   0.002739
     2  C   -0.009864  -0.004812   0.002082   0.010635   0.010306   0.033957
     3  C    0.011864  -0.031595   0.008498   0.008364  -0.018950  -0.036141
     4  C   -0.000388  -0.000686  -0.000257  -0.000148  -0.000479   0.000708
     5  C    0.001959   0.027464  -0.007241  -0.004168   0.001456  -0.002723
     6  C    0.002283   0.003495   0.000101   0.000077   0.000824  -0.000743
     7  Si  -0.000103   0.000635   0.000319   0.001227   0.003753  -0.005913
     8  C    0.000001  -0.000037  -0.000010   0.000006  -0.000053  -0.000004
     9  C   -0.000006  -0.000001   0.000000  -0.000013  -0.000130   0.000580
    10  C    0.000036  -0.000085   0.000134   0.000208  -0.000799   0.000984
    11  Si  -0.016127  -0.045701  -0.044528  -0.049384  -0.038508  -0.046058
    12  C   -0.010284  -0.000216   0.008222  -0.005777   0.008453   0.001524
    13  C    0.395724   0.406928   0.396415  -0.011510  -0.002137   0.008906
    14  C   -0.012499   0.006485  -0.000658   0.415540   0.399991   0.404400
    15  H    0.000000   0.000000   0.000000   0.000000   0.000000   0.000002
    16  H    0.000000   0.000001   0.000000  -0.000001  -0.000001  -0.000004
    17  H   -0.000002   0.000001  -0.000001  -0.000045  -0.000063   0.001657
    18  H   -0.000031   0.000073   0.000621   0.000044   0.000814   0.000057
    19  H    0.000000   0.000000   0.000000   0.000000   0.000000   0.000000
    20  H    0.000000   0.000000   0.000000   0.000000   0.000000   0.000000
    21  H    0.000048   0.000039  -0.000291  -0.000001   0.000000   0.000001
    22  H    0.000000   0.000020  -0.000013   0.000000  -0.000001   0.000000
    23  H   -0.000004   0.000078   0.000004   0.000000   0.000000   0.000000
    24  H    0.000000  -0.000007   0.000000   0.000000   0.000000   0.000000
    25  H    0.000000   0.000000   0.000000   0.000000   0.000000   0.000000
    26  H    0.000000   0.000000   0.000000   0.000000   0.000000   0.000000
    27  H    0.000000   0.000000   0.000000   0.000000   0.000000   0.000000
    28  H    0.000000   0.000000   0.000000   0.000000   0.000000   0.000000
    29  H    0.000000   0.000000   0.000000   0.000000   0.000000   0.000000
    30  H    0.000000   0.000000   0.000000   0.000000   0.000000  -0.000001
    31  H    0.000000   0.000000   0.000000   0.000000   0.000002   0.000001
    32  H    0.000000   0.000000   0.000000   0.000002  -0.000005   0.000036
    33  H    0.000000   0.000000  -0.000001   0.000001   0.000036   0.000006
    34  H    0.000505  -0.000013   0.000013   0.000520   0.000015  -0.000010
    35  H    0.000007   0.000011  -0.000018  -0.000030   0.000005   0.000386
    36  H    0.000013   0.000386   0.000004   0.000012  -0.000017   0.000006
    37  H    0.526021  -0.024660  -0.024121   0.000546  -0.000025   0.000016
    38  H   -0.024660   0.526956  -0.025262   0.000013   0.000004  -0.000017
    39  H   -0.024121  -0.025262   0.525958   0.000016   0.000355   0.000000
    40  H    0.000546   0.000013   0.000016   0.526616  -0.024491  -0.024970
    41  H   -0.000025   0.000004   0.000355  -0.024491   0.527225  -0.024931
    42  H    0.000016  -0.000017   0.000000  -0.024970  -0.024931   0.530474
 Mulliken atomic charges:
              1
     1  C   -0.325865
     2  C   -0.536125
     3  C   -0.536104
     4  C   -0.250558
     5  C   -0.325886
     6  C   -0.250564
     7  Si   1.151276
     8  C   -0.701766
     9  C   -0.713154
    10  C   -0.694912
    11  Si   1.151287
    12  C   -0.701766
    13  C   -0.713150
    14  C   -0.694917
    15  H    0.129655
    16  H    0.133608
    17  H    0.120932
    18  H    0.120930
    19  H    0.130140
    20  H    0.130415
    21  H    0.129653
    22  H    0.133611
    23  H    0.130141
    24  H    0.130415
    25  H    0.158923
    26  H    0.159863
    27  H    0.157327
    28  H    0.159050
    29  H    0.158905
    30  H    0.160121
    31  H    0.158000
    32  H    0.159092
    33  H    0.155074
    34  H    0.158924
    35  H    0.159862
    36  H    0.157326
    37  H    0.159050
    38  H    0.158904
    39  H    0.160120
    40  H    0.158000
    41  H    0.159092
    42  H    0.155075
 Sum of Mulliken atomic charges =   0.00000
 Mulliken charges with hydrogens summed into heavy atoms:
              1
     1  C   -0.062602
     2  C   -0.415193
     3  C   -0.415175
     4  C    0.009997
     5  C   -0.062622
     6  C    0.009992
     7  Si   1.151276
     8  C   -0.225654
     9  C   -0.235079
    10  C   -0.222747
    11  Si   1.151287
    12  C   -0.225655
    13  C   -0.235076
    14  C   -0.222750
 Sum of Mulliken charges with hydrogens summed into heavy atoms =   0.00000
 Electronic spatial extent (au):  <R**2>=           4164.7826
 Charge=              0.0000 electrons
 Dipole moment (field-independent basis, Debye):
    X=              0.0000    Y=              0.0972    Z=              0.0000  Tot=              0.0972
 Quadrupole moment (field-independent basis, Debye-Ang):
   XX=           -109.8899   YY=           -110.3704   ZZ=           -110.0972
   XY=              0.0000   XZ=             -0.3532   YZ=              0.0000
 Traceless Quadrupole moment (field-independent basis, Debye-Ang):
   XX=              0.2292   YY=             -0.2512   ZZ=              0.0219
   XY=              0.0000   XZ=             -0.3532   YZ=              0.0000
 Octapole moment (field-independent basis, Debye-Ang**2):
  XXX=              0.0003  YYY=             12.4182  ZZZ=             -0.0011  XYY=              0.0000
  XXY=             -3.7323  XXZ=              0.0004  XZZ=             -0.0003  YZZ=             -3.1164
  YYZ=              0.0006  XYZ=              2.2188
 Hexadecapole moment (field-independent basis, Debye-Ang**3):
 XXXX=          -3503.8130 YYYY=          -1645.9839 ZZZZ=           -933.6442 XXXY=             -0.0005
 XXXZ=            -42.1002 YYYX=             -0.0016 YYYZ=             -0.0012 ZZZX=              4.2789
 ZZZY=              0.0007 XXYY=           -847.1654 XXZZ=           -782.0722 YYZZ=           -416.9815
 XXYZ=              0.0020 YYXZ=              8.2737 ZZXY=              0.0016
 N-N= 1.245810232778D+03 E-N=-4.964378834736D+03  KE= 1.046028284836D+03
 1\1\GINC-ROCK\FOpt\RB3LYP\6-31+G(d,p)\C12H28Si2\STYLIANAKIS\22-Jul-201
 6\0\\# opt b3lyp/6-31+g(d,p)\\BisSiMe3-cycl-diaxial\\0,1\C,-1.13236374
 96,-1.5384066629,-0.5247599385\C,-0.7638633301,-0.0774755264,-0.156383
 7995\C,0.7642592907,0.0758788975,0.1551959947\C,-0.2401174498,-2.14268
 45916,-1.6192958102\C,1.6434101047,-0.6007694154,-0.9288050561\C,1.242
 2798962,-2.0523109336,-1.2311043472\Si,-1.4740585338,1.2698725437,-1.3
 329300583\C,-0.5816322755,1.468003247,-2.9976698339\C,-3.3026699189,0.
 8934886559,-1.679049438\C,-1.3700719339,2.9349338326,-0.4257241129\Si,
 1.248719825,-0.3264253044,1.9738323273\C,0.7170281499,-2.0339938837,2.
 6130138093\C,3.1322833317,-0.1799595959,2.1636215329\C,0.4346964092,0.
 9801753765,3.0857793822\H,-2.1860209175,-1.597515664,-0.823407334\H,-1
 .0401656995,-2.1705442523,0.3689834206\H,-1.323707086,0.1565309206,0.7
 65375702\H,1.0113790318,1.1509187765,0.1228514264\H,-0.3966312777,-1.6
 138198678,-2.5697030933\H,-0.5261918105,-3.1874510989,-1.7950516438\H,
 2.7003122794,-0.5552475704,-0.6393857332\H,1.5659718392,-0.0304023816,
 -1.8645192377\H,1.4238043061,-2.6858754118,-0.3518362305\H,1.873100412
 ,-2.4506508589,-2.0358753262\H,-1.0680720783,2.2602295698,-3.580478920
 7\H,0.4677448713,1.7549638383,-2.8693346853\H,-0.6072651366,0.55334104
 12,-3.5993011265\H,-3.7711472746,1.7319148072,-2.2083720152\H,-3.42716
 20523,0.0008944137,-2.3023325975\H,-3.8657998808,0.7330914685,-0.75193
 96878\H,-1.8037410271,3.7342678485,-1.0383483763\H,-1.9178741076,2.911
 0999135,0.5236016722\H,-0.3347852061,3.2183762883,-0.2037489231\H,1.04
 22288571,-2.151341906,3.6543528408\H,-0.3711777476,-2.1584745664,2.595
 1158976\H,1.1571942216,-2.8540602783,2.0359791207\H,3.414937345,-0.240
 4654374,3.221476705\H,3.6615220776,-0.9813091593,1.6359381968\H,3.5052
 982433,0.7759423826,1.7769867308\H,0.7153697237,0.8218507854,4.1338576
 373\H,0.7457222536,1.9944195603,2.8092898408\H,-0.6594000453,0.9427401
 996,3.0311675881\\Version=EM64L-G09RevA.01\State=1-A\HF=-1053.2645958\
 RMSD=6.980e-09\RMSF=5.302e-06\Dipole=0.0074081,-0.0310203,-0.021078\Qu
 adrupole=-0.179833,-0.0155629,0.195396,-0.0100525,0.0172207,-0.2555108
 \PG=C01 [X(C12H28Si2)]\\@


 WE HAVE LEARNED THAT NOTHING IS SIMPLE AND
 RATIONAL EXCEPT WHAT WE OURSELVES HAVE INVENTED;
 THAT GOD THINKS IN TERMS NEITHER OF EUCLID OR RIEMANN; THAT SCIENCE HAS "EXPLAINED" NOTHING;
 THAT THE MORE WE KNOW THE MORE FANTASTIC THE WORLD BECOMES
 AND THE PROFOUNDER THE SURROUNDING DARKNESS.
   --  ALDOUS HUXLEY
 Job cpu time:  0 days 16 hours 40 minutes 42.3 seconds.
 File lengths (MBytes):  RWF=    110 Int=      0 D2E=      0 Chk=     12 Scr=      1
 Normal termination of Gaussian 09 at Fri Jul 22 20:09:33 2016.
