 Entering Link 1 = C:\G03W\l1.exe PID=      2960.
  
 Copyright (c) 1988,1990,1992,1993,1995,1998,2003,2004, Gaussian, Inc.
                  All Rights Reserved.
  
 This is the Gaussian(R) 03 program.  It is based on the
 the Gaussian(R) 98 system (copyright 1998, Gaussian, Inc.),
 the Gaussian(R) 94 system (copyright 1995, Gaussian, Inc.),
 the Gaussian 92(TM) system (copyright 1992, Gaussian, Inc.),
 the Gaussian 90(TM) system (copyright 1990, Gaussian, Inc.),
 the Gaussian 88(TM) system (copyright 1988, Gaussian, Inc.),
 the Gaussian 86(TM) system (copyright 1986, Carnegie Mellon
 University), and the Gaussian 82(TM) system (copyright 1983,
 Carnegie Mellon University). Gaussian is a federally registered
 trademark of Gaussian, Inc.
  
 This software contains proprietary and confidential information,
 including trade secrets, belonging to Gaussian, Inc.
  
 This software is provided under written license and may be
 used, copied, transmitted, or stored only in accord with that
 written license.
  
 The following legend is applicable only to US Government
 contracts under FAR:
  
                    RESTRICTED RIGHTS LEGEND
  
 Use, reproduction and disclosure by the US Government is
 subject to restrictions as set forth in subparagraphs (a)
 and (c) of the Commercial Computer Software - Restricted
 Rights clause in FAR 52.227-19.
  
 Gaussian, Inc.
 340 Quinnipiac St., Bldg. 40, Wallingford CT 06492
  
  
 ---------------------------------------------------------------
 Warning -- This program may not be used in any manner that
 competes with the business of Gaussian, Inc. or will provide
 assistance to any competitor of Gaussian, Inc.  The licensee
 of this program is prohibited from giving any competitor of
 Gaussian, Inc. access to this program.  By using this program,
 the user acknowledges that Gaussian, Inc. is engaged in the
 business of creating and licensing software in the field of
 computational chemistry and represents and warrants to the
 licensee that it is not a competitor of Gaussian, Inc. and that
 it will not use this program in any manner prohibited above.
 ---------------------------------------------------------------
  

 Cite this work as:
 Gaussian 03, Revision D.01,
 M. J. Frisch, G. W. Trucks, H. B. Schlegel, G. E. Scuseria, 
 M. A. Robb, J. R. Cheeseman, J. A. Montgomery, Jr., T. Vreven, 
 K. N. Kudin, J. C. Burant, J. M. Millam, S. S. Iyengar, J. Tomasi, 
 V. Barone, B. Mennucci, M. Cossi, G. Scalmani, N. Rega, 
 G. A. Petersson, H. Nakatsuji, M. Hada, M. Ehara, K. Toyota, 
 R. Fukuda, J. Hasegawa, M. Ishida, T. Nakajima, Y. Honda, O. Kitao, 
 H. Nakai, M. Klene, X. Li, J. E. Knox, H. P. Hratchian, J. B. Cross, 
 V. Bakken, C. Adamo, J. Jaramillo, R. Gomperts, R. E. Stratmann, 
 O. Yazyev, A. J. Austin, R. Cammi, C. Pomelli, J. W. Ochterski, 
 P. Y. Ayala, K. Morokuma, G. A. Voth, P. Salvador, J. J. Dannenberg, 
 V. G. Zakrzewski, S. Dapprich, A. D. Daniels, M. C. Strain, 
 O. Farkas, D. K. Malick, A. D. Rabuck, K. Raghavachari, 
 J. B. Foresman, J. V. Ortiz, Q. Cui, A. G. Baboul, S. Clifford, 
 J. Cioslowski, B. B. Stefanov, G. Liu, A. Liashenko, P. Piskorz, 
 I. Komaromi, R. L. Martin, D. J. Fox, T. Keith, M. A. Al-Laham, 
 C. Y. Peng, A. Nanayakkara, M. Challacombe, P. M. W. Gill, 
 B. Johnson, W. Chen, M. W. Wong, C. Gonzalez, and J. A. Pople, 
 Gaussian, Inc., Wallingford CT, 2004.
 
 ******************************************
 Gaussian 03:  IA32W-G03RevD.01 13-Oct-2005
                28-Mar-2008 
 ******************************************
 --------------
 # opt dreiding
 --------------
 1/6=10,10=10,14=-1,18=4000020,38=1,56=1,64=1/1,3;
 2/9=110,17=6,18=5,40=1/2;
 3/5=30,11=9,16=1,25=1,30=1/1;
 4/20=9,22=1001,24=3/2;
 7/44=-1/16;
 1/6=10,10=10,14=-1,18=4000020,64=1/3(2);
 2/9=110/2;
 99//99;
 2/9=110/2;
 3/5=30,11=9,16=1,25=1,30=1/1;
 4/16=2,20=9,22=1001,24=3/2;
 7/44=-1/16;
 1/6=10,10=10,14=-1,18=4000020,64=1/3(-4);
 2/9=110/2;
 99//99;
 -------------------
 2-methylpropenal-t1
 -------------------
 Symbolic Z-matrix:
 Charge =  0 Multiplicity = 1
 C                     0.13358  -1.72997   0.01489 
 C                     0.17758  -0.38597   0.00389 
 C                    -0.99742   0.29403  -0.00311 
 O                    -1.08042   1.50003  -0.01411 
 C                     1.48958   0.36103  -0.00211 
 H                     1.06158  -2.32297   0.02089 
 H                    -0.80742  -2.30497   0.01989 
 H                    -1.94042  -0.29897   0.00089 
 H                     1.56858   1.01503   0.89689 
 H                     2.37058  -0.32097   0.00489 
 H                     1.57058   0.99803  -0.91211 
 
 I=    1 IAn=  6 Valence= 6.
          JB=  1 J=    2 IAn=  6 IBT= 2 Dist= 1.34D+00
          JB=  2 J=    6 IAn=  1 IBT= 1 Dist= 1.10D+00
          JB=  3 J=    7 IAn=  1 IBT= 1 Dist= 1.10D+00
 I=    2 IAn=  6 Valence= 6.
          JB=  1 J=    1 IAn=  6 IBT= 2 Dist= 1.34D+00
          JB=  2 J=    3 IAn=  6 IBT= 2 Dist= 1.36D+00
          JB=  3 J=    5 IAn=  6 IBT= 1 Dist= 1.51D+00
 I=    3 IAn=  6 Valence= 6.
          JB=  1 J=    2 IAn=  6 IBT= 2 Dist= 1.36D+00
          JB=  2 J=    4 IAn=  8 IBT= 2 Dist= 1.21D+00
          JB=  3 J=    8 IAn=  1 IBT= 1 Dist= 1.11D+00
 Include all MM classes
 MMInit generated parameter data with length LenPar=   920.

 GradGradGradGradGradGradGradGradGradGradGradGradGradGradGradGradGradGrad
 Berny optimization.
 Initialization pass.
 No Z-matrix variables, so optimization will use Cartesian coordinates.
 Trust Radius=1.00D-01 FncErr=1.00D-07 GrdErr=1.00D-07
 Number of steps in this run=   2 maximum allowed number of steps=   2.
 GradGradGradGradGradGradGradGradGradGradGradGradGradGradGradGradGradGrad

                          Input orientation:                          
 ---------------------------------------------------------------------
 Center     Atomic     Atomic              Coordinates (Angstroms)
 Number     Number      Type              X           Y           Z
 ---------------------------------------------------------------------
    1          6      10061002        0.133579   -1.729974    0.014895
    2          6      10061000        0.177579   -0.385974    0.003895
    3          6      10061000       -0.997421    0.294026   -0.003105
    4          8      10081002       -1.080421    1.500026   -0.014105
    5          6      10061003        1.489579    0.361026   -0.002105
    6          1      10011000        1.061579   -2.322974    0.020895
    7          1      10011000       -0.807421   -2.304974    0.019895
    8          1      10011000       -1.940421   -0.298974    0.000895
    9          1      10011000        1.568579    1.015026    0.896895
   10          1      10011000        2.370579   -0.320974    0.004895
   11          1      10011000        1.570579    0.998026   -0.912105
 ---------------------------------------------------------------------
                    Distance matrix (angstroms):
                    1          2          3          4          5
     1  C    0.000000
     2  C    1.344765   0.000000
     3  C    2.318633   1.357599   0.000000
     4  O    3.450730   2.267131   1.208903   0.000000
     5  C    2.492249   1.509765   2.487903   2.811115   0.000000
     6  H    1.101303   2.129252   3.329977   4.382319   2.718008
     7  H    1.102783   2.157091   2.606037   3.814933   3.519126
     8  H    2.519808   2.119788   1.113963   1.994048   3.492923
     9  H    3.220586   2.166825   2.813218   2.842947   1.114521
    10  H    2.643776   2.193963   3.423699   3.902025   1.114152
    11  H    3.219671   2.166786   2.813631   2.843626   1.113746
                    6          7          8          9         10
     6  H    0.000000
     7  H    1.869087   0.000000
     8  H    3.620633   2.303928   0.000000
     9  H    3.488075   4.175752   3.852596   0.000000
    10  H    2.392016   3.746487   4.311058   1.795484   0.000000
    11  H    3.486920   4.175322   3.852648   1.809081   1.794617
                   11
    11  H    0.000000
 Stoichiometry    C4H6O
 Framework group  C1[X(C4H6O)]
 Deg. of freedom    27
 Full point group                 C1
 Largest Abelian subgroup         C1      NOp   1
 Largest concise Abelian subgroup C1      NOp   1
                         Standard orientation:                         
 ---------------------------------------------------------------------
 Center     Atomic     Atomic              Coordinates (Angstroms)
 Number     Number      Type              X           Y           Z
 ---------------------------------------------------------------------
    1          6      10061002       -1.458322   -0.940304    0.000280
    2          6      10061000       -0.414774   -0.092130   -0.000397
    3          6      10061000        0.837560   -0.616282   -0.000213
    4          8      10081002        1.848067    0.047285    0.000216
    5          6      10061003       -0.613724    1.404469    0.000090
    6          1      10011000       -2.491945   -0.560183    0.000151
    7          1      10011000       -1.346871   -2.037441   -0.000424
    8          1      10011000        0.935896   -1.725896    0.000238
    9          1      10011000       -0.147456    1.858830   -0.904514
   10          1      10011000       -1.689781    1.693320   -0.000299
   11          1      10011000       -0.148822    1.858581    0.904566
 ---------------------------------------------------------------------
 Rotational constants (GHZ):      8.7216155      4.6632415      3.1000620
 Standard basis: Dummy (5D, 7F)
 There are    11 symmetry adapted basis functions of A   symmetry.
 Integral buffers will be    262144 words long.
 Raffenetti 1 integral format.
 Two-electron integral symmetry is turned on.
    11 basis functions,    11 primitive gaussians,    11 cartesian basis functions
     8 alpha electrons        8 beta electrons
       nuclear repulsion energy        29.0455744743 Hartrees.
 NAtoms=   11 NActive=   11 NUniq=   11 SFac= 7.50D-01 NAtFMM=   80 NAOKFM=F Big=F
 Dreiding calculation of energy and first derivatives.
 MO and density RWFs will be updated without deorthogonalization.
 NRF= 0 NRA=   0 NVA=  11 HaveQM=F
 Convergence limit is  0.750E-04 MaxStp=  5000 StMxLn= 1.00D-04 StpMin= 1.00D-06.
 Convergence criteria           0.00011250 0.00007500 0.00045000 0.00030000
  Step  NS  ND Rises OKQ   Scale  Max. Force  RMS Force Max. Disp.  RMS Disp.     Energy   Flag
     1   0   0   F    T  1.00D+00 0.10646522 0.03532805 0.10646522 0.03532805    0.0370578 ----
     2   0   0   F    F -1.12D-01 0.10646522 0.03532805 0.10646522 0.03532805    0.0189893 ----
     3   0   0   F    T  2.12D+00 0.04331105 0.01380974 0.04163222 0.01482733    0.0186967 ----
     4   0   0   F    F -3.72D-01 0.04331105 0.01380974 0.08811856 0.03138345    0.0159902 ----
     5   0   0   F    T  1.83D+00 0.02522566 0.00886772 0.03740742 0.01078942    0.0145120 ----
     6   0   0   F    F -3.33D-01 0.02522566 0.00886772 0.06829137 0.01969728    0.0133284 ----
     7   0   0   F    T  1.80D+00 0.01657069 0.00571325 0.02151695 0.00728595    0.0129329 ----
     8   0   0   F    F -2.65D-01 0.01657069 0.00571325 0.03877264 0.01312898    0.0123117 ----
     9   0   0   F    T  2.77D+00 0.00788260 0.00291986 0.00872840 0.00348774    0.0122189 ----
    10   0   0   F    F -3.13D-01 0.00788260 0.00291986 0.02415644 0.00965257    0.0120070 ----
    11   0   0   F    T  1.66D+00 0.00967806 0.00269363 0.00843639 0.00400421    0.0119514 ----
    12   0   0   F    F  1.41D-01 0.00967806 0.00269363 0.01397049 0.00663090    0.0117288 ----
    13   0   0   F    T  2.77D+00 0.00486183 0.00188966 0.00602999 0.00273199    0.0117254 ----
    14   0   0   F    F  6.36D-01 0.00486183 0.00188966 0.01669858 0.00756557    0.0114989 ----
    15   0   0   F    T  4.30D+00 0.00499864 0.00172766 0.00615429 0.00287612    0.0114586 ----
    16   0   0   T    F  3.45D-01 0.00499864 0.00172766 0.02648510 0.01237746    0.0116485 ----
    17   0   0   F    T  2.04D+00 0.00448831 0.00130233 0.00501912 0.00209006    0.0113854 ----
    18   0   0   F    F -4.57D-01 0.00448831 0.00130233 0.01025976 0.00427237    0.0113765 ----
    19   0   0   F    T  1.52D+00 0.00262770 0.00097414 0.00484846 0.00152336    0.0113544 ----
    20   0   0   F    F  1.72D+00 0.00262770 0.00097414 0.00737724 0.00231789    0.0113155 ----
    21   0   0   F    T  5.18D+00 0.00235559 0.00076713 0.00315631 0.00121790    0.0112895 ----
    22   0   0   F    F -3.64D-01 0.00235559 0.00076713 0.01634700 0.00630767    0.0112680 ----
    23   0   0   F    T  4.63D+00 0.00186272 0.00056532 0.00212051 0.00086770    0.0112575 ----
    24   0   0   T    F  2.21D-01 0.00186272 0.00056532 0.00980981 0.00401413    0.0113188 ----
    25   0   0   F    T  2.15D+00 0.00087422 0.00031458 0.00153082 0.00041370    0.0112521 ----
    26   0   0   F    F  6.17D-01 0.00087422 0.00031458 0.00328720 0.00088836    0.0112473 ----
    27   0   0   F    T  3.65D+00 0.00067965 0.00026396 0.00117365 0.00039344    0.0112464 ----
    28   0   0   T    F  2.65D-01 0.00067965 0.00026396 0.00428585 0.00143673    0.0112538 ----
    29   0   0   F    T  1.87D+00 0.00035102 0.00015369 0.00044694 0.00020347    0.0112453 --++
    30   0   0   F    F -3.15D-01 0.00035102 0.00015369 0.00083760 0.00038133    0.0112449 ----
    31   0   0   F    T  1.81D+00 0.00028454 0.00010642 0.00047826 0.00014435    0.0112448 ---+
    32   0   0   F    F  2.02D+00 0.00028454 0.00010642 0.00086543 0.00026121    0.0112443 ---+
    33   0   0   F    T  2.75D+00 0.00041017 0.00014003 0.00088126 0.00028657    0.0112438 ---+
    34   0   0   T    F  4.02D-01 0.00041017 0.00014003 0.00242205 0.00078760    0.0112442 ----
    35   0   0   F    T  9.38D+00 0.00006376 0.00003077 0.00007613 0.00003375    0.0112434 ====
 Energy=    0.011243439289 NIter=   0.
 Dipole moment=       0.000000       0.000000       0.000000
 ***** Axes restored to original set *****
 -------------------------------------------------------------------
 Center     Atomic                   Forces (Hartrees/Bohr)
 Number     Number              X              Y              Z
 -------------------------------------------------------------------
    1          6           0.000002892    0.000002041   -0.000003493
    2          6           0.000029656    0.000007720    0.000000633
    3          6           0.000047199    0.000043267   -0.000000082
    4          8           0.000035644    0.000012995   -0.000001337
    5          6           0.000016518    0.000026793    0.000001448
    6          1          -0.000013891   -0.000064757    0.000000899
    7          1          -0.000044307   -0.000045889    0.000004007
    8          1           0.000052309   -0.000016327   -0.000001020
    9          1          -0.000056588   -0.000010611    0.000036521
   10          1          -0.000012974    0.000054627   -0.000003356
   11          1          -0.000056459   -0.000009859   -0.000034220
 -------------------------------------------------------------------
 Cartesian Forces:  Max     0.000064757 RMS     0.000030769

 GradGradGradGradGradGradGradGradGradGradGradGradGradGradGradGradGradGrad
 Berny optimization.
 Search for a local minimum.
 Step number   1 out of a maximum of   2
 All quantities printed in internal units (Hartrees-Bohrs-Radians)
 Second derivative matrix not updated -- unit matrix used.
 RFO step:  Lambda=-3.12421121D-08.
 Linear search not attempted -- first point.
 TrRot=  0.000000  0.000000  0.000000  0.000000  0.000000  0.000000
 Variable       Old X    -DE/DX   Delta X   Delta X   Delta X     New X
                                 (Linear)    (Quad)   (Total)
    X1        0.33442   0.00000   0.00000   0.00000   0.00000   0.33442
    Y1       -3.36892   0.00000   0.00000   0.00000   0.00000  -3.36891
    Z1        0.02980   0.00000   0.00000   0.00000   0.00000   0.02979
    X2        0.34573   0.00003   0.00000   0.00003   0.00003   0.34576
    Y2       -0.77243   0.00001   0.00000   0.00001   0.00001  -0.77242
    Z2        0.00707   0.00000   0.00000   0.00000   0.00000   0.00707
    X3       -1.95196   0.00005   0.00000   0.00005   0.00005  -1.95192
    Y3        0.55859   0.00004   0.00000   0.00004   0.00004   0.55864
    Z3       -0.00651   0.00000   0.00000   0.00000   0.00000  -0.00651
    X4       -2.04309   0.00004   0.00000   0.00004   0.00004  -2.04305
    Y4        2.92365   0.00001   0.00000   0.00001   0.00001   2.92366
    Z4       -0.02729   0.00000   0.00000   0.00000   0.00000  -0.02729
    X5        2.78009   0.00002   0.00000   0.00002   0.00002   2.78010
    Y5        0.63600   0.00003   0.00000   0.00003   0.00003   0.63602
    Z5       -0.00330   0.00000   0.00000   0.00000   0.00000  -0.00329
    X6        1.93698  -0.00001   0.00000  -0.00001  -0.00001   1.93697
    Y6       -4.34191  -0.00006   0.00000  -0.00006  -0.00006  -4.34197
    Z6        0.03886   0.00000   0.00000   0.00000   0.00000   0.03886
    X7       -1.27224  -0.00004   0.00000  -0.00004  -0.00004  -1.27229
    Y7       -4.33867  -0.00005   0.00000  -0.00005  -0.00005  -4.33872
    Z7        0.03763   0.00000   0.00000   0.00000   0.00000   0.03763
    X8       -3.63893   0.00005   0.00000   0.00005   0.00005  -3.63887
    Y8       -0.38613  -0.00002   0.00000  -0.00002  -0.00002  -0.38614
    Z8        0.00041   0.00000   0.00000   0.00000   0.00000   0.00041
    X9        2.89152  -0.00006   0.00000  -0.00006  -0.00006   2.89146
    Y9        1.84684  -0.00001   0.00000  -0.00001  -0.00001   1.84683
    Z9        1.66338   0.00004   0.00000   0.00004   0.00004   1.66342
   X10        4.42440  -0.00001   0.00000  -0.00001  -0.00001   4.42438
   Y10       -0.61250   0.00005   0.00000   0.00005   0.00005  -0.61245
   Z10        0.00965   0.00000   0.00000   0.00000   0.00000   0.00964
   X11        2.89475  -0.00006   0.00000  -0.00006  -0.00006   2.89469
   Y11        1.81646  -0.00001   0.00000  -0.00001  -0.00001   1.81645
   Z11       -1.69142  -0.00003   0.00000  -0.00003  -0.00003  -1.69145
         Item               Value     Threshold  Converged?
 Maximum Force            0.000065     0.000450     YES
 RMS     Force            0.000031     0.000300     YES
 Maximum Displacement     0.000065     0.001800     YES
 RMS     Displacement     0.000031     0.001200     YES
 Predicted change in Energy=-1.562106D-08
 Optimization completed.
    -- Stationary point found.
 GradGradGradGradGradGradGradGradGradGradGradGradGradGradGradGradGradGrad

                          Input orientation:                          
 ---------------------------------------------------------------------
 Center     Atomic     Atomic              Coordinates (Angstroms)
 Number     Number      Type              X           Y           Z
 ---------------------------------------------------------------------
    1          6      10061002        0.176968   -1.782754    0.015768
    2          6      10061000        0.182953   -0.408751    0.003741
    3          6      10061000       -1.032934    0.295596   -0.003444
    4          8      10081002       -1.081157    1.547128   -0.014440
    5          6      10061003        1.471158    0.336554   -0.001744
    6          1      10011000        1.025008   -2.297640    0.020565
    7          1      10011000       -0.673241   -2.295927    0.019911
    8          1      10011000       -1.925637   -0.204329    0.000215
    9          1      10011000        1.530125    0.977308    0.880225
   10          1      10011000        2.341290   -0.324123    0.005105
   11          1      10011000        1.531834    0.961227   -0.895061
 ---------------------------------------------------------------------
                    Distance matrix (angstroms):
                    1          2          3          4          5
     1  C    0.000000
     2  C    1.374069   0.000000
     3  C    2.404947   1.405182   0.000000
     4  O    3.559761   2.328897   1.252509   0.000000
     5  C    2.483284   1.488281   2.504427   2.824882   0.000000
     6  H    0.992120   2.068149   3.310675   4.383992   2.671802
     7  H    0.993086   2.072381   2.616470   3.864795   3.395420
     8  H    2.629186   2.118479   1.023160   1.944469   3.439589
     9  H    3.193158   2.122323   2.795510   2.818495   1.091747
    10  H    2.609982   2.159996   3.430673   3.900654   1.092553
    11  H    3.192915   2.122302   2.795726   2.818953   1.091748
                    6          7          8          9         10
     6  H    0.000000
     7  H    1.698250   0.000000
     8  H    3.617827   2.437964   0.000000
     9  H    3.423367   4.038444   3.756724   0.000000
    10  H    2.372257   3.602170   4.268611   1.765658   0.000000
    11  H    3.422785   4.038389   3.756880   1.775360   1.765685
                   11
    11  H    0.000000
 Stoichiometry    C4H6O
 Framework group  C1[X(C4H6O)]
 Deg. of freedom    27
 Full point group                 C1
 Largest Abelian subgroup         C1      NOp   1
 Largest concise Abelian subgroup C1      NOp   1
                         Standard orientation:                         
 ---------------------------------------------------------------------
 Center     Atomic     Atomic              Coordinates (Angstroms)
 Number     Number      Type              X           Y           Z
 ---------------------------------------------------------------------
    1          6      10061002       -1.546265   -0.896602   -0.000003
    2          6      10061000       -0.435539   -0.087680   -0.000013
    3          6      10061000        0.847159   -0.661458    0.000021
    4          8      10081002        1.890289    0.031838    0.000010
    5          6      10061003       -0.584984    1.393079   -0.000021
    6          1      10011000       -2.460061   -0.510237    0.000395
    7          1      10011000       -1.464887   -1.886348   -0.000334
    8          1      10011000        0.964150   -1.677907    0.000024
    9          1      10011000       -0.106607    1.811895   -0.887524
   10          1      10011000       -1.629942    1.712039   -0.000380
   11          1      10011000       -0.107194    1.811815    0.887836
 ---------------------------------------------------------------------
 Rotational constants (GHZ):      9.0079308      4.4325184      3.0272469
 1|1|UNPC-UNK|FOpt|Dreiding|ZDO|C4H6O1|PCUSER|28-Mar-2008|0||# opt drei
 ding||2-methylpropenal-t1||0,1|C,0.1769684596,-1.7827538502,0.01576800
 77|C,0.1829529655,-0.4087506891,0.0037413759|C,-1.0329339204,0.2955955
 54,-0.0034437205|O,-1.0811565396,1.5471275487,-0.0144397525|C,1.471157
 6844,0.336554379,-0.0017441283|H,1.0250080398,-2.2976395744,0.02056537
 43|H,-0.67324136,-2.2959271173,0.0199110272|H,-1.9256368117,-0.2043285
 61,0.0002153074|H,1.5301253153,0.9773078765,0.8802248358|H,2.341290314
 1,-0.3241233883,0.0051049778|H,1.531834303,0.9612273421,-0.8950611647|
 |Version=IA32W-G03RevD.01|HF=0.0112434|RMSD=0.000e+000|RMSF=3.077e-005
 |Thermal=0.|Dipole=0.,0.,0.|PG=C01 [X(C4H6O1)]||@


 CHARLIE BROWN..'I CAN'T GET THAT STUPID KITE IN THE   
 AIR... I CAN'T... I C A N N O T...'                          
 LUCY..'OH COME NOW CHARLIE BROWN...THAT'S NO WAY TO TALK...  
 THE TROUBLE WITH YOU IS YOU DON'T BELIEVE IN YOURSELF... YOU 
 DON'T BELIEVE IN YOUR OWN ABILITIES...  YOU'VE GOT TO SAY TO 
 YOURSELF...'I BELIEVE I CAN FLY THIS KITE.'... GO AHEAD SAY  
 IT....'
 CHARLIE BROWN..'I BELIEVE THAT I CAN FLY THIS STUPID  
 KITE.....I BELIEVE THAT I CAN FLY THIS KITE........          
 I  A C T U A L L Y  B E L I E V E  T H A T  I  C A N ******' 
 LUCY..'I'LL BET YOU TEN-TO-ONE YOU'RE WRONG.......'    SCHULZ
 Job cpu time:  0 days  0 hours  0 minutes  3.0 seconds.
 File lengths (MBytes):  RWF=     11 Int=      0 D2E=      0 Chk=      4 Scr=      1
 Normal termination of Gaussian 03 at Fri Mar 28 18:29:45 2008.
