 Entering Link 1 = C:\G03W\l1.exe PID=      2348.
  
 Copyright (c) 1988,1990,1992,1993,1995,1998,2003,2004, Gaussian, Inc.
                  All Rights Reserved.
  
 This is the Gaussian(R) 03 program.  It is based on the
 the Gaussian(R) 98 system (copyright 1998, Gaussian, Inc.),
 the Gaussian(R) 94 system (copyright 1995, Gaussian, Inc.),
 the Gaussian 92(TM) system (copyright 1992, Gaussian, Inc.),
 the Gaussian 90(TM) system (copyright 1990, Gaussian, Inc.),
 the Gaussian 88(TM) system (copyright 1988, Gaussian, Inc.),
 the Gaussian 86(TM) system (copyright 1986, Carnegie Mellon
 University), and the Gaussian 82(TM) system (copyright 1983,
 Carnegie Mellon University). Gaussian is a federally registered
 trademark of Gaussian, Inc.
  
 This software contains proprietary and confidential information,
 including trade secrets, belonging to Gaussian, Inc.
  
 This software is provided under written license and may be
 used, copied, transmitted, or stored only in accord with that
 written license.
  
 The following legend is applicable only to US Government
 contracts under FAR:
  
                    RESTRICTED RIGHTS LEGEND
  
 Use, reproduction and disclosure by the US Government is
 subject to restrictions as set forth in subparagraphs (a)
 and (c) of the Commercial Computer Software - Restricted
 Rights clause in FAR 52.227-19.
  
 Gaussian, Inc.
 340 Quinnipiac St., Bldg. 40, Wallingford CT 06492
  
  
 ---------------------------------------------------------------
 Warning -- This program may not be used in any manner that
 competes with the business of Gaussian, Inc. or will provide
 assistance to any competitor of Gaussian, Inc.  The licensee
 of this program is prohibited from giving any competitor of
 Gaussian, Inc. access to this program.  By using this program,
 the user acknowledges that Gaussian, Inc. is engaged in the
 business of creating and licensing software in the field of
 computational chemistry and represents and warrants to the
 licensee that it is not a competitor of Gaussian, Inc. and that
 it will not use this program in any manner prohibited above.
 ---------------------------------------------------------------
  

 Cite this work as:
 Gaussian 03, Revision D.01,
 M. J. Frisch, G. W. Trucks, H. B. Schlegel, G. E. Scuseria, 
 M. A. Robb, J. R. Cheeseman, J. A. Montgomery, Jr., T. Vreven, 
 K. N. Kudin, J. C. Burant, J. M. Millam, S. S. Iyengar, J. Tomasi, 
 V. Barone, B. Mennucci, M. Cossi, G. Scalmani, N. Rega, 
 G. A. Petersson, H. Nakatsuji, M. Hada, M. Ehara, K. Toyota, 
 R. Fukuda, J. Hasegawa, M. Ishida, T. Nakajima, Y. Honda, O. Kitao, 
 H. Nakai, M. Klene, X. Li, J. E. Knox, H. P. Hratchian, J. B. Cross, 
 V. Bakken, C. Adamo, J. Jaramillo, R. Gomperts, R. E. Stratmann, 
 O. Yazyev, A. J. Austin, R. Cammi, C. Pomelli, J. W. Ochterski, 
 P. Y. Ayala, K. Morokuma, G. A. Voth, P. Salvador, J. J. Dannenberg, 
 V. G. Zakrzewski, S. Dapprich, A. D. Daniels, M. C. Strain, 
 O. Farkas, D. K. Malick, A. D. Rabuck, K. Raghavachari, 
 J. B. Foresman, J. V. Ortiz, Q. Cui, A. G. Baboul, S. Clifford, 
 J. Cioslowski, B. B. Stefanov, G. Liu, A. Liashenko, P. Piskorz, 
 I. Komaromi, R. L. Martin, D. J. Fox, T. Keith, M. A. Al-Laham, 
 C. Y. Peng, A. Nanayakkara, M. Challacombe, P. M. W. Gill, 
 B. Johnson, W. Chen, M. W. Wong, C. Gonzalez, and J. A. Pople, 
 Gaussian, Inc., Wallingford CT, 2004.
 
 ******************************************
 Gaussian 03:  IA32W-G03RevD.01 13-Oct-2005
                11-Mar-2008 
 ******************************************
 --------------
 # opt dreiding
 --------------
 1/6=10,10=10,14=-1,18=4000020,38=1,56=1,64=1/1,3;
 2/9=110,17=6,18=5,40=1/2;
 3/5=30,11=9,16=1,25=1,30=1/1;
 4/20=9,22=1001,24=3/2;
 7/44=-1/16;
 1/6=10,10=10,14=-1,18=4000020,64=1/3(2);
 2/9=110/2;
 99//99;
 2/9=110/2;
 3/5=30,11=9,16=1,25=1,30=1/1;
 4/16=2,20=9,22=1001,24=3/2;
 7/44=-1/16;
 1/6=10,10=10,14=-1,18=4000020,64=1/3(-4);
 2/9=110/2;
 99//99;
 ----------
 acrolein-t
 ----------
 Symbolic Z-matrix:
 Charge =  0 Multiplicity = 1
 O                    -0.6426   -1.62753   0.03807 
 C                    -0.5736   -0.42053   0.01407 
 C                     0.5934    0.26947  -0.01193 
 C                     0.6184    1.61047  -0.03693 
 H                    -1.5156    0.17547   0.01307 
 H                     1.5474   -0.28653  -0.01193 
 H                     1.5784    2.15147  -0.05793 
 H                    -0.2986    2.22347  -0.03893 
 
 I=    2 IAn=  6 Valence= 6.
          JB=  1 J=    1 IAn=  8 IBT= 2 Dist= 1.21D+00
          JB=  2 J=    3 IAn=  6 IBT= 2 Dist= 1.36D+00
          JB=  3 J=    5 IAn=  1 IBT= 1 Dist= 1.11D+00
 I=    3 IAn=  6 Valence= 6.
          JB=  1 J=    2 IAn=  6 IBT= 2 Dist= 1.36D+00
          JB=  2 J=    4 IAn=  6 IBT= 2 Dist= 1.34D+00
          JB=  3 J=    6 IAn=  1 IBT= 1 Dist= 1.10D+00
 I=    4 IAn=  6 Valence= 6.
          JB=  1 J=    3 IAn=  6 IBT= 2 Dist= 1.34D+00
          JB=  2 J=    7 IAn=  1 IBT= 1 Dist= 1.10D+00
          JB=  3 J=    8 IAn=  1 IBT= 1 Dist= 1.10D+00
 Include all MM classes
 MMInit generated parameter data with length LenPar=   622.

 GradGradGradGradGradGradGradGradGradGradGradGradGradGradGradGradGradGrad
 Berny optimization.
 Initialization pass.
 No Z-matrix variables, so optimization will use Cartesian coordinates.
 Trust Radius=1.00D-01 FncErr=1.00D-07 GrdErr=1.00D-07
 Number of steps in this run=   2 maximum allowed number of steps=   2.
 GradGradGradGradGradGradGradGradGradGradGradGradGradGradGradGradGradGrad

                          Input orientation:                          
 ---------------------------------------------------------------------
 Center     Atomic     Atomic              Coordinates (Angstroms)
 Number     Number      Type              X           Y           Z
 ---------------------------------------------------------------------
    1          8      10081002       -0.642600   -1.627533    0.038067
    2          6      10061000       -0.573600   -0.420533    0.014067
    3          6      10061000        0.593400    0.269467   -0.011933
    4          6      10061002        0.618400    1.610467   -0.036933
    5          1      10011000       -1.515600    0.175467    0.013067
    6          1      10011000        1.547400   -0.286533   -0.011933
    7          1      10011000        1.578400    2.151467   -0.057933
    8          1      10011000       -0.298600    2.223467   -0.038933
 ---------------------------------------------------------------------
                    Distance matrix (angstroms):
                    1          2          3          4          5
     1  O    0.000000
     2  C    1.209209   0.000000
     3  C    2.264687   1.355974   0.000000
     4  C    3.475686   2.355510   1.341466   0.000000
     5  H    2.003388   1.114711   2.111242   2.572097   0.000000
     6  H    2.568439   2.125388   1.104197   2.112410   3.097747
     7  H    4.384393   3.354321   2.124680   1.102144   3.671846
     8  H    3.867100   2.658791   2.148141   1.103024   2.382876
                    6          7          8
     6  H    0.000000
     7  H    2.438631   0.000000
     8  H    3.115854   1.878477   0.000000
 Stoichiometry    C3H4O
 Framework group  C1[X(C3H4O)]
 Deg. of freedom    18
 Full point group                 C1
 Largest Abelian subgroup         C1      NOp   1
 Largest concise Abelian subgroup C1      NOp   1
                         Standard orientation:                         
 ---------------------------------------------------------------------
 Center     Atomic     Atomic              Coordinates (Angstroms)
 Number     Number      Type              X           Y           Z
 ---------------------------------------------------------------------
    1          8      10081002        1.746585   -0.112653   -0.000226
    2          6      10061000        0.625114    0.339552    0.000206
    3          6      10061000       -0.496892   -0.421872    0.000297
    4          6      10061002       -1.720810    0.127268   -0.000318
    5          1      10011000        0.487645    1.445754    0.000332
    6          1      10011000       -0.400734   -1.521875    0.000283
    7          1      10011000       -2.619725   -0.510442   -0.000128
    8          1      10011000       -1.884332    1.218104    0.000211
 ---------------------------------------------------------------------
 Rotational constants (GHZ):     50.0009544      4.9287992      4.4865426
 Standard basis: Dummy (5D, 7F)
 There are     8 symmetry adapted basis functions of A   symmetry.
 Integral buffers will be    262144 words long.
 Raffenetti 1 integral format.
 Two-electron integral symmetry is turned on.
     8 basis functions,     8 primitive gaussians,     8 cartesian basis functions
     6 alpha electrons        6 beta electrons
       nuclear repulsion energy        17.4365079090 Hartrees.
 NAtoms=    8 NActive=    8 NUniq=    8 SFac= 7.50D-01 NAtFMM=   80 NAOKFM=F Big=F
 Dreiding calculation of energy and first derivatives.
 MO and density RWFs will be updated without deorthogonalization.
 NRF= 0 NRA=   0 NVA=   8 HaveQM=F
 Convergence limit is  0.750E-04 MaxStp=  5000 StMxLn= 1.00D-04 StpMin= 1.00D-06.
 Convergence criteria           0.00011250 0.00007500 0.00045000 0.00030000
  Step  NS  ND Rises OKQ   Scale  Max. Force  RMS Force Max. Disp.  RMS Disp.     Energy   Flag
     1   0   0   F    T  1.00D+00 0.10791515 0.04457794 0.10791515 0.04457794    0.0323004 ----
     2   0   0   F    F -1.66D-01 0.10791515 0.04457794 0.10791515 0.04457794    0.0131159 ----
     3   0   0   F    T  2.27D+00 0.03703102 0.01545414 0.04310773 0.01635647    0.0123108 ----
     4   0   0   F    F -2.67D-01 0.03703102 0.01545414 0.09795724 0.03716816    0.0081712 ----
     5   0   0   F    T  1.63D+00 0.03790353 0.01264194 0.05110721 0.01675551    0.0075355 ----
     6   0   0   F    F -3.93D-01 0.03790353 0.01264194 0.08308299 0.02723877    0.0064352 ----
     7   0   0   F    T  2.55D+00 0.01301365 0.00557223 0.01814983 0.00649091    0.0056417 ----
     8   0   0   F    F -4.55D-01 0.01301365 0.00557223 0.04624780 0.01653956    0.0054837 ----
     9   0   0   F    T  2.46D+00 0.00680751 0.00307972 0.00865626 0.00366717    0.0051243 ----
    10   0   0   F    F -3.95D-01 0.00680751 0.00307972 0.02128615 0.00901774    0.0050270 ----
    11   0   0   F    T  1.84D+00 0.00718634 0.00224112 0.00610481 0.00296520    0.0049549 ----
    12   0   0   F    F  5.31D-01 0.00718634 0.00224112 0.01123609 0.00545754    0.0048055 ----
    13   0   0   F    T  2.16D+00 0.00598246 0.00229355 0.00863965 0.00386339    0.0047851 ----
    14   0   0   F    F  6.37D-01 0.00598246 0.00229355 0.01868312 0.00835452    0.0045955 ----
    15   0   0   F    T  6.12D+00 0.00372717 0.00149646 0.00622624 0.00223509    0.0045617 ----
    16   0   0   T    F  2.48D-01 0.00372717 0.00149646 0.03810816 0.01368005    0.0048961 ----
    17   0   0   F    T  1.01D+00 0.00468126 0.00170440 0.01036628 0.00336490    0.0045208 ----
    18   0   0   F    F  9.40D-01 0.00468126 0.00170440 0.01047019 0.00339863    0.0044686 ----
    19   0   0   F    T  3.19D+00 0.00289720 0.00120351 0.00537981 0.00206709    0.0044525 ----
    20   0   0   F    F  6.03D-02 0.00289720 0.00120351 0.01716318 0.00659464    0.0043941 ----
    21   0   0   F    T  7.14D+00 0.00154334 0.00068928 0.00245287 0.00097869    0.0043939 ----
    22   0   0   T    F  2.36D-01 0.00154334 0.00068928 0.01752436 0.00699219    0.0044845 ----
    23   0   0   F    T  1.50D+00 0.00157606 0.00065491 0.00340171 0.00110082    0.0043843 ----
    24   0   0   F    F  1.25D+00 0.00157606 0.00065491 0.00510475 0.00165194    0.0043723 ----
    25   0   0   F    T  8.68D+00 0.00093229 0.00032678 0.00131067 0.00042893    0.0043669 ----
    26   0   0   T    F  1.12D-01 0.00093229 0.00032678 0.01137560 0.00372277    0.0044437 ----
    27   0   0   F    T  2.77D+00 0.00034515 0.00013348 0.00031305 0.00015117    0.0043657 --++
    28   0   0   F    F -3.40D-01 0.00034515 0.00013348 0.00086700 0.00041866    0.0043654 ----
    29   0   0   F    T  1.50D+00 0.00031971 0.00012593 0.00043662 0.00018430    0.0043653 --++
    30   0   0   F    F  2.83D-01 0.00031971 0.00012593 0.00065454 0.00027628    0.0043649 ---+
    31   0   0   F    T  1.83D+00 0.00039204 0.00011566 0.00046689 0.00019376    0.0043649 ---+
    32   0   0   T    F  4.74D-01 0.00039204 0.00011566 0.00085393 0.00035438    0.0043649 ----
    33   0   0   F    T  7.30D+00 0.00007202 0.00002194 0.00007337 0.00002302    0.0043648 ====
 Energy=    0.004364760835 NIter=   0.
 Dipole moment=       0.000000       0.000000       0.000000
 ***** Axes restored to original set *****
 -------------------------------------------------------------------
 Center     Atomic                   Forces (Hartrees/Bohr)
 Number     Number              X              Y              Z
 -------------------------------------------------------------------
    1          8           0.000028139    0.000006651    0.000000519
    2          6           0.000000098    0.000013145   -0.000000391
    3          6           0.000009113    0.000000540   -0.000000872
    4          6           0.000029160    0.000012188   -0.000000077
    5          1          -0.000087112   -0.000015905    0.000000896
    6          1           0.000011628   -0.000020015   -0.000000336
    7          1          -0.000013896    0.000015129    0.000000486
    8          1           0.000022871   -0.000011734   -0.000000226
 -------------------------------------------------------------------
 Cartesian Forces:  Max     0.000087112 RMS     0.000021941

 GradGradGradGradGradGradGradGradGradGradGradGradGradGradGradGradGradGrad
 Berny optimization.
 Search for a local minimum.
 Step number   1 out of a maximum of   2
 All quantities printed in internal units (Hartrees-Bohrs-Radians)
 Second derivative matrix not updated -- unit matrix used.
 RFO step:  Lambda=-1.15534983D-08.
 Linear search not attempted -- first point.
 TrRot=  0.000000  0.000000  0.000000  0.000000  0.000000  0.000000
 Variable       Old X    -DE/DX   Delta X   Delta X   Delta X     New X
                                 (Linear)    (Quad)   (Total)
    X1       -1.17797   0.00003   0.00000   0.00003   0.00003  -1.17795
    Y1       -3.13196   0.00001   0.00000   0.00001   0.00001  -3.13195
    Z1        0.07258   0.00000   0.00000   0.00000   0.00000   0.07258
    X2       -1.16987   0.00000   0.00000   0.00000   0.00000  -1.16987
    Y2       -0.76757   0.00001   0.00000   0.00001   0.00001  -0.76756
    Z2        0.02716   0.00000   0.00000   0.00000   0.00000   0.02716
    X3        1.11066   0.00001   0.00000   0.00001   0.00001   1.11067
    Y3        0.56464   0.00000   0.00000   0.00000   0.00000   0.56464
    Z3       -0.02323   0.00000   0.00000   0.00000   0.00000  -0.02323
    X4        1.23013   0.00003   0.00000   0.00003   0.00003   1.23016
    Y4        3.14536   0.00001   0.00000   0.00001   0.00001   3.14537
    Z4       -0.07298   0.00000   0.00000   0.00000   0.00000  -0.07298
    X5       -2.86514  -0.00009   0.00000  -0.00009  -0.00009  -2.86523
    Y5        0.15924  -0.00002   0.00000  -0.00002  -0.00002   0.15923
    Z5        0.02783   0.00000   0.00000   0.00000   0.00000   0.02783
    X6        2.77034   0.00001   0.00000   0.00001   0.00001   2.77035
    Y6       -0.43035  -0.00002   0.00000  -0.00002  -0.00002  -0.43037
    Z6       -0.02305   0.00000   0.00000   0.00000   0.00000  -0.02305
    X7        2.89593  -0.00001   0.00000  -0.00001  -0.00001   2.89591
    Y7        4.00418   0.00002   0.00000   0.00002   0.00002   4.00420
    Z7       -0.10715   0.00000   0.00000   0.00000   0.00000  -0.10715
    X8       -0.32381   0.00002   0.00000   0.00002   0.00002  -0.32379
    Y8        4.19628  -0.00001   0.00000  -0.00001  -0.00001   4.19627
    Z8       -0.07590   0.00000   0.00000   0.00000   0.00000  -0.07590
         Item               Value     Threshold  Converged?
 Maximum Force            0.000087     0.000450     YES
 RMS     Force            0.000022     0.000300     YES
 Maximum Displacement     0.000087     0.001800     YES
 RMS     Displacement     0.000022     0.001200     YES
 Predicted change in Energy=-5.776749D-09
 Optimization completed.
    -- Stationary point found.
 GradGradGradGradGradGradGradGradGradGradGradGradGradGradGradGradGradGrad

                          Input orientation:                          
 ---------------------------------------------------------------------
 Center     Atomic     Atomic              Coordinates (Angstroms)
 Number     Number      Type              X           Y           Z
 ---------------------------------------------------------------------
    1          8      10081002       -0.623357   -1.657361    0.038409
    2          6      10061000       -0.619070   -0.406182    0.014373
    3          6      10061000        0.587735    0.298794   -0.012291
    4          6      10061002        0.650955    1.664451   -0.038620
    5          1      10011000       -1.516168    0.084268    0.014727
    6          1      10011000        1.466000   -0.227734   -0.012197
    7          1      10011000        1.532458    2.118921   -0.056701
    8          1      10011000       -0.171353    2.220575   -0.040166
 ---------------------------------------------------------------------
                    Distance matrix (angstroms):
                    1          2          3          4          5
     1  O    0.000000
     2  C    1.251417   0.000000
     3  C    2.301273   1.397884   0.000000
     4  C    3.558685   2.429669   1.367373   0.000000
     5  H    1.957279   1.022411   2.114984   2.682582   0.000000
     6  H    2.532155   2.092861   1.024003   2.060428   2.998565
     7  H    4.349355   3.318173   2.051179   0.991926   3.665929
     8  H    3.904980   2.665198   2.066454   0.992706   2.524946
                    6          7          8
     6  H    0.000000
     7  H    2.348017   0.000000
     8  H    2.945492   1.706921   0.000000
 Stoichiometry    C3H4O
 Framework group  C1[X(C3H4O)]
 Deg. of freedom    18
 Full point group                 C1
 Largest Abelian subgroup         C1      NOp   1
 Largest concise Abelian subgroup C1      NOp   1
                         Standard orientation:                         
 ---------------------------------------------------------------------
 Center     Atomic     Atomic              Coordinates (Angstroms)
 Number     Number      Type              X           Y           Z
 ---------------------------------------------------------------------
    1          8      10081002        1.774591   -0.142997   -0.000153
    2          6      10061000        0.640009    0.384988    0.000115
    3          6      10061000       -0.511411   -0.407674    0.000148
    4          6      10061002       -1.774684    0.115632   -0.000110
    5          1      10011000        0.577449    1.405484    0.000324
    6          1      10011000       -0.408189   -1.426461    0.000382
    7          1      10011000       -2.560974   -0.489071   -0.000334
    8          1      10011000       -1.928501    1.096349   -0.000068
 ---------------------------------------------------------------------
 Rotational constants (GHZ):     51.8546494      4.7339384      4.3379192
 1|1|UNPC-UNK|FOpt|Dreiding|ZDO|C3H4O1|PCUSER|11-Mar-2008|0||# opt drei
 ding||acrolein-t||0,1|O,-0.623357257,-1.6573609572,0.0384087392|C,-0.6
 190699757,-0.4061818855,0.0143730146|C,0.5877347184,0.298794367,-0.012
 2909579|C,0.6509546253,1.6644514991,-0.0386197767|H,-1.5161676712,0.08
 42676696,0.014726552|H,1.4659999875,-0.2277336191,-0.0121967827|H,1.53
 24582992,2.1189209475,-0.0567013958|H,-0.1713527264,2.2205753385,-0.04
 01660327||Version=IA32W-G03RevD.01|HF=0.0043648|RMSD=0.000e+000|RMSF=2
 .194e-005|Thermal=0.|Dipole=0.,0.,0.|PG=C01 [X(C3H4O1)]||@


 QED = W**5 (WHICH WAS WHAT WE WANTED)
 Job cpu time:  0 days  0 hours  0 minutes  2.0 seconds.
 File lengths (MBytes):  RWF=     11 Int=      0 D2E=      0 Chk=      4 Scr=      1
 Normal termination of Gaussian 03 at Tue Mar 11 13:39:38 2008.
