 Entering Link 1 = C:\G03W\l1.exe PID=      3740.
  
 Copyright (c) 1988,1990,1992,1993,1995,1998,2003,2004, Gaussian, Inc.
                  All Rights Reserved.
  
 This is the Gaussian(R) 03 program.  It is based on the
 the Gaussian(R) 98 system (copyright 1998, Gaussian, Inc.),
 the Gaussian(R) 94 system (copyright 1995, Gaussian, Inc.),
 the Gaussian 92(TM) system (copyright 1992, Gaussian, Inc.),
 the Gaussian 90(TM) system (copyright 1990, Gaussian, Inc.),
 the Gaussian 88(TM) system (copyright 1988, Gaussian, Inc.),
 the Gaussian 86(TM) system (copyright 1986, Carnegie Mellon
 University), and the Gaussian 82(TM) system (copyright 1983,
 Carnegie Mellon University). Gaussian is a federally registered
 trademark of Gaussian, Inc.
  
 This software contains proprietary and confidential information,
 including trade secrets, belonging to Gaussian, Inc.
  
 This software is provided under written license and may be
 used, copied, transmitted, or stored only in accord with that
 written license.
  
 The following legend is applicable only to US Government
 contracts under FAR:
  
                    RESTRICTED RIGHTS LEGEND
  
 Use, reproduction and disclosure by the US Government is
 subject to restrictions as set forth in subparagraphs (a)
 and (c) of the Commercial Computer Software - Restricted
 Rights clause in FAR 52.227-19.
  
 Gaussian, Inc.
 340 Quinnipiac St., Bldg. 40, Wallingford CT 06492
  
  
 ---------------------------------------------------------------
 Warning -- This program may not be used in any manner that
 competes with the business of Gaussian, Inc. or will provide
 assistance to any competitor of Gaussian, Inc.  The licensee
 of this program is prohibited from giving any competitor of
 Gaussian, Inc. access to this program.  By using this program,
 the user acknowledges that Gaussian, Inc. is engaged in the
 business of creating and licensing software in the field of
 computational chemistry and represents and warrants to the
 licensee that it is not a competitor of Gaussian, Inc. and that
 it will not use this program in any manner prohibited above.
 ---------------------------------------------------------------
  

 Cite this work as:
 Gaussian 03, Revision D.01,
 M. J. Frisch, G. W. Trucks, H. B. Schlegel, G. E. Scuseria, 
 M. A. Robb, J. R. Cheeseman, J. A. Montgomery, Jr., T. Vreven, 
 K. N. Kudin, J. C. Burant, J. M. Millam, S. S. Iyengar, J. Tomasi, 
 V. Barone, B. Mennucci, M. Cossi, G. Scalmani, N. Rega, 
 G. A. Petersson, H. Nakatsuji, M. Hada, M. Ehara, K. Toyota, 
 R. Fukuda, J. Hasegawa, M. Ishida, T. Nakajima, Y. Honda, O. Kitao, 
 H. Nakai, M. Klene, X. Li, J. E. Knox, H. P. Hratchian, J. B. Cross, 
 V. Bakken, C. Adamo, J. Jaramillo, R. Gomperts, R. E. Stratmann, 
 O. Yazyev, A. J. Austin, R. Cammi, C. Pomelli, J. W. Ochterski, 
 P. Y. Ayala, K. Morokuma, G. A. Voth, P. Salvador, J. J. Dannenberg, 
 V. G. Zakrzewski, S. Dapprich, A. D. Daniels, M. C. Strain, 
 O. Farkas, D. K. Malick, A. D. Rabuck, K. Raghavachari, 
 J. B. Foresman, J. V. Ortiz, Q. Cui, A. G. Baboul, S. Clifford, 
 J. Cioslowski, B. B. Stefanov, G. Liu, A. Liashenko, P. Piskorz, 
 I. Komaromi, R. L. Martin, D. J. Fox, T. Keith, M. A. Al-Laham, 
 C. Y. Peng, A. Nanayakkara, M. Challacombe, P. M. W. Gill, 
 B. Johnson, W. Chen, M. W. Wong, C. Gonzalez, and J. A. Pople, 
 Gaussian, Inc., Wallingford CT, 2004.
 
 ******************************************
 Gaussian 03:  IA32W-G03RevD.01 13-Oct-2005
                28-Mar-2008 
 ******************************************
 --------------
 # opt dreiding
 --------------
 1/6=10,10=10,14=-1,18=4000020,38=1,56=1,64=1/1,3;
 2/9=110,17=6,18=5,40=1/2;
 3/5=30,11=9,16=1,25=1,30=1/1;
 4/20=9,22=1001,24=3/2;
 7/44=-1/16;
 1/6=10,10=10,14=-1,18=4000020,64=1/3(2);
 2/9=110/2;
 99//99;
 2/9=110/2;
 3/5=30,11=9,16=1,25=1,30=1/1;
 4/16=2,20=9,22=1001,24=3/2;
 7/44=-1/16;
 1/6=10,10=10,14=-1,18=4000020,64=1/3(-4);
 2/9=110/2;
 99//99;
 -----------------------
 Dioxaphosphoriane-OH-ax
 -----------------------
 Symbolic Z-matrix:
 Charge =  0 Multiplicity = 1
 H                     2.05242  -1.54616  -1.58877 
 O                     1.24142  -1.12016  -1.80677 
 O                    -1.20758  -0.54616  -0.65877 
 C                    -1.03758   0.84984  -0.74677 
 C                    -0.37058   1.43184   0.52023 
 P                     0.28742  -1.29216  -0.43277 
 C                     1.04942   0.84784   0.69723 
 O                     1.02642  -0.54816   0.88723 
 H                    -0.47458   1.09584  -1.67877 
 H                    -2.06358   1.26584  -0.86677 
 C                    -0.25158   2.96184   0.35023 
 C                    -1.23258   1.14084   1.76623 
 O                     0.06842  -2.84516  -0.11677 
 H                     1.72442   1.09484  -0.15777 
 H                     1.52342   1.26284   1.61623 
 H                    -1.25158   3.43484   0.21723 
 H                     0.36442   3.22384  -0.53977 
 H                     0.22542   3.43284   1.23923 
 H                    -1.35658   0.04884   1.94423 
 H                    -2.25258   1.57684   1.66123 
 H                    -0.77458   1.57584   2.68323 
 
 I=    6 IAn= 15 Valence= 4.
          JB=  1 J=    2 IAn=  8 IBT= 1 Dist= 1.68D+00
          JB=  2 J=    3 IAn=  8 IBT= 1 Dist= 1.69D+00
          JB=  3 J=    8 IAn=  8 IBT= 1 Dist= 1.69D+00
          JB=  4 J=   13 IAn=  8 IBT= 1 Dist= 1.60D+00
 Include all MM classes
 MMInit generated parameter data with length LenPar=  2262.

 GradGradGradGradGradGradGradGradGradGradGradGradGradGradGradGradGradGrad
 Berny optimization.
 Initialization pass.
 No Z-matrix variables, so optimization will use Cartesian coordinates.
 Trust Radius=1.00D-01 FncErr=1.00D-07 GrdErr=1.00D-07
 Number of steps in this run=   2 maximum allowed number of steps=   2.
 GradGradGradGradGradGradGradGradGradGradGradGradGradGradGradGradGradGrad

                          Input orientation:                          
 ---------------------------------------------------------------------
 Center     Atomic     Atomic              Coordinates (Angstroms)
 Number     Number      Type              X           Y           Z
 ---------------------------------------------------------------------
    1          1      10011000        2.052420   -1.546159   -1.588773
    2          8      10081003        1.241420   -1.120159   -1.806773
    3          8      10081003       -1.207580   -0.546159   -0.658773
    4          6      10061003       -1.037580    0.849841   -0.746773
    5          6      10061003       -0.370580    1.431841    0.520227
    6         15      10151003        0.287420   -1.292159   -0.432773
    7          6      10061003        1.049420    0.847841    0.697227
    8          8      10081003        1.026420   -0.548159    0.887227
    9          1      10011000       -0.474580    1.095841   -1.678773
   10          1      10011000       -2.063580    1.265841   -0.866773
   11          6      10061003       -0.251580    2.961841    0.350227
   12          6      10061003       -1.232580    1.140841    1.766227
   13          8      10081000        0.068420   -2.845159   -0.116773
   14          1      10011000        1.724420    1.094841   -0.157773
   15          1      10011000        1.523420    1.262841    1.616227
   16          1      10011000       -1.251580    3.434841    0.217227
   17          1      10011000        0.364420    3.223841   -0.539773
   18          1      10011000        0.225420    3.432841    1.239227
   19          1      10011000       -1.356580    0.048841    1.944227
   20          1      10011000       -2.252580    1.576841    1.661227
   21          1      10011000       -0.774580    1.575841    2.683227
 ---------------------------------------------------------------------
                    Distance matrix (angstroms):
                    1          2          3          4          5
     1  H    0.000000
     2  O    0.941659   0.000000
     3  O    3.534473   2.764956   0.000000
     4  C    3.999735   3.193484   1.409064   0.000000
     5  C    4.380330   3.811322   2.450121   1.545607   0.000000
     6  P    2.125106   1.681540   1.686006   2.538185   2.959958
     7  C    3.458763   3.190596   2.979265   2.537855   1.545569
     8  O    2.859940   2.762435   2.716777   2.980680   2.450857
     9  H    3.657047   2.805654   2.067330   1.116293   2.226952
    10  H    5.036872   4.183255   2.014781   1.113612   2.194897
    11  C    5.421273   4.852259   3.773338   2.506342   1.544008
    12  C    5.409919   4.898890   2.954187   2.537297   1.542803
    13  O    2.791136   2.684707   2.684649   3.908089   4.346403
    14  H    3.021626   2.803340   3.397132   2.834712   2.227617
    15  H    4.294455   4.180328   3.988291   3.508997   2.194769
    16  H    6.244070   5.573119   4.076478   2.767186   2.209067
    17  H    5.167460   4.609203   4.086349   2.764838   2.207960
    18  H    6.010487   5.571372   4.635551   3.494460   2.208207
    19  H    5.162111   4.710219   2.674291   2.825746   2.216452
    20  H    6.232869   5.613276   3.313843   2.793424   2.205636
    21  H    5.999066   5.611842   3.982378   3.515842   2.205112
                    6          7          8          9         10
     6  P    0.000000
     7  C    2.537153   0.000000
     8  O    1.685840   1.409058   0.000000
     9  H    2.799233   2.833629   3.397071   0.000000
    10  H    3.501274   3.508787   3.989387   1.792530   0.000000
    11  C    4.358913   2.506393   3.773825   2.765597   2.764209
    12  C    3.614622   2.536954   2.954394   3.527692   2.763851
    13  O    1.599883   3.906815   2.683652   4.273894   4.691295
    14  H    2.799708   1.116987   2.068497   2.673769   3.857573
    15  H    3.500589   1.114209   2.014490   3.857061   4.362553
    16  H    5.013537   3.495364   4.637076   3.109576   2.557139
    17  H    4.517924   2.764918   4.086876   2.555313   3.136220
    18  H    5.012490   2.766761   4.076011   3.803458   3.790863
    19  H    3.186086   2.825287   2.674387   3.873017   3.143670
    20  H    4.366646   3.516240   3.983283   3.814216   2.554061
    21  H    4.366088   2.793055   3.313698   4.398573   3.789475
                   11         12         13         14         15
    11  C    0.000000
    12  C    2.506683   0.000000
    13  O    5.834530   4.596356   0.000000
    14  H    2.765561   3.528136   4.274063   0.000000
    15  H    2.764052   2.762774   4.689987   1.793238   0.000000
    16  H    1.114189   2.768068   6.425913   3.804313   3.791492
    17  H    1.113643   3.493842   6.090920   2.555027   3.136421
    18  H    1.113414   2.767085   6.424692   3.108835   2.556528
    19  H    3.499633   1.113339   3.828000   3.873639   3.142575
    20  H    2.764226   1.114236   5.301171   4.399729   3.789300
    21  H    2.763587   1.113498   5.300556   3.814137   2.552893
                   16         17         18         19         20
    16  H    0.000000
    17  H    1.796949   0.000000
    18  H    1.796112   1.796620   0.000000
    19  H    3.802440   4.383232   3.801474   0.000000
    20  H    2.557206   3.795484   3.124629   1.793792   0.000000
    21  H    3.124831   3.794859   2.556088   1.793481   1.796933
                   21
    21  H    0.000000
 Stoichiometry    C5H11O4P
 Framework group  C1[X(C5H11O4P)]
 Deg. of freedom    57
 Full point group                 C1
 Largest Abelian subgroup         C1      NOp   1
 Largest concise Abelian subgroup C1      NOp   1
                         Standard orientation:                         
 ---------------------------------------------------------------------
 Center     Atomic     Atomic              Coordinates (Angstroms)
 Number     Number      Type              X           Y           Z
 ---------------------------------------------------------------------
    1          1      10011000       -2.443836    1.735562   -0.377796
    2          8      10081003       -1.931514    1.480744    0.370078
    3          8      10081003       -0.422918   -0.660751    1.255017
    4          6      10061003        0.774774    0.078428    1.322892
    5          6      10061003        1.567750    0.016978   -0.002368
    6         15      10151003       -1.390922   -0.069703    0.007520
    7          6      10061003        0.748850    0.651727   -1.149225
    8          8      10081003       -0.450442   -0.047187   -1.391425
    9          1      10011000        0.546244    1.124876    1.637267
   10          1      10011000        1.363700   -0.387354    2.145294
   11          6      10061003        2.872088    0.824743    0.171355
   12          6      10061003        1.934477   -1.441940   -0.344874
   13          8      10081000       -2.642446   -1.043198   -0.206068
   14          1      10011000        0.519769    1.729688   -0.967065
   15          1      10011000        1.319928    0.597487   -2.104416
   16          1      10011000        3.502078    0.407912    0.990368
   17          1      10011000        2.659287    1.889104    0.420456
   18          1      10011000        3.483220    0.813370   -0.759279
   19          1      10011000        1.032213   -2.079321   -0.483398
   20          1      10011000        2.545172   -1.904411    0.464256
   21          1      10011000        2.526979   -1.497856   -1.285987
 ---------------------------------------------------------------------
 Rotational constants (GHZ):      2.1522508      0.8520496      0.8435381
 Standard basis: Dummy (5D, 7F)
 There are    21 symmetry adapted basis functions of A   symmetry.
 Integral buffers will be    262144 words long.
 Raffenetti 1 integral format.
 Two-electron integral symmetry is turned on.
    21 basis functions,    21 primitive gaussians,    21 cartesian basis functions
    15 alpha electrons       15 beta electrons
       nuclear repulsion energy        83.9250722598 Hartrees.



 Warning!  P  atom    6 may be hypervalent but has no d functions.



 NAtoms=   21 NActive=   21 NUniq=   21 SFac= 7.50D-01 NAtFMM=   80 NAOKFM=F Big=F
 Dreiding calculation of energy and first derivatives.
 MO and density RWFs will be updated without deorthogonalization.
 NRF= 0 NRA=   0 NVA=  21 HaveQM=F
 Convergence limit is  0.750E-04 MaxStp=  5000 StMxLn= 1.00D-04 StpMin= 1.00D-06.
 Convergence criteria           0.00011250 0.00007500 0.00045000 0.00030000
  Step  NS  ND Rises OKQ   Scale  Max. Force  RMS Force Max. Disp.  RMS Disp.     Energy   Flag
     1   0   0   F    T  1.00D+00 0.08208058 0.02266481 0.08208058 0.02266481    0.1084396 ----
     2   0   0   F    F  8.73D-01 0.08208058 0.02266481 0.08208058 0.02266481    0.0846573 ----
     3   0   0   F    T  3.92D+00 0.02632716 0.00991472 0.03164186 0.01082187    0.0780229 ----
     4   0   0   T    F  4.60D-01 0.02632716 0.00991472 0.12410982 0.04244696    0.0801201 ----
     5   0   0   F    T  4.93D+00 0.01023929 0.00367717 0.01032119 0.00396003    0.0724280 ----
     6   0   0   T    F  4.44D-01 0.01023929 0.00367717 0.05093482 0.01954263    0.0729583 ----
     7   0   0   F    T  2.16D+00 0.00962760 0.00301419 0.01303334 0.00402165    0.0714942 ----
     8   0   0   F    F  7.50D-01 0.00962760 0.00301419 0.02812941 0.00867980    0.0706130 ----
     9   0   0   F    T  3.19D+00 0.01225739 0.00290563 0.01480209 0.00476073    0.0704154 ----
    10   0   0   F    F -2.67D-01 0.01225739 0.00290563 0.04721532 0.01518566    0.0698755 ----
    11   0   0   F    T  4.99D+00 0.00499413 0.00163515 0.00595519 0.00223188    0.0697920 ----
    12   0   0   F    F -3.43D-01 0.00499413 0.00163515 0.02969478 0.01112900    0.0695917 ----
    13   0   0   F    T  4.01D+00 0.00339967 0.00126285 0.00574797 0.00182363    0.0695158 ----
    14   0   0   F    F -2.21D-01 0.00339967 0.00126285 0.02303089 0.00730689    0.0693717 ----
    15   0   0   F    T  4.65D+00 0.00315765 0.00086973 0.00346610 0.00122335    0.0693590 ----
    16   0   0   F    F -2.88D-01 0.00315765 0.00086973 0.01612577 0.00569154    0.0692931 ----
    17   0   0   F    T  4.54D+00 0.00213890 0.00062667 0.00211818 0.00089249    0.0692802 ----
    18   0   0   F    F -2.66D-01 0.00213890 0.00062667 0.00961111 0.00404960    0.0692444 ----
    19   0   0   F    T  2.57D+00 0.00213525 0.00064934 0.00409786 0.00115752    0.0692390 ----
    20   0   0   F    F  4.62D-01 0.00213525 0.00064934 0.01052071 0.00297177    0.0691942 ----
    21   0   0   F    T  3.85D+00 0.00189156 0.00059134 0.00474057 0.00112831    0.0691892 ----
    22   0   0   F    F -3.87D-01 0.00189156 0.00059134 0.01825584 0.00434510    0.0691736 ----
    23   0   0   F    T  2.89D+00 0.00138377 0.00049044 0.00329840 0.00092062    0.0691632 ----
    24   0   0   F    F  1.29D+00 0.00138377 0.00049044 0.00953800 0.00266216    0.0691290 ----
    25   0   0   F    T  9.22D+00 0.00086470 0.00037566 0.00171133 0.00066252    0.0691130 ----
    26   0   0   T    F  2.84D-01 0.00086470 0.00037566 0.01578112 0.00610946    0.0691753 ----
    27   0   0   F    T  2.50D+00 0.00088728 0.00035660 0.00201972 0.00069511    0.0691013 ----
    28   0   0   F    F  1.58D+00 0.00088728 0.00035660 0.00504337 0.00173573    0.0690852 ----
    29   0   0   F    T  6.13D+00 0.00097302 0.00034288 0.00194667 0.00072978    0.0690756 ----
    30   0   0   T    F  3.14D-01 0.00097302 0.00034288 0.01193547 0.00447443    0.0691024 ----
    31   0   0   F    T  2.41D+00 0.00079098 0.00028595 0.00163108 0.00058261    0.0690684 ----
    32   0   0   F    F  1.34D+00 0.00079098 0.00028595 0.00393898 0.00140698    0.0690586 ----
    33   0   0   F    T  5.32D+00 0.00084957 0.00027842 0.00171010 0.00061931    0.0690539 ----
    34   0   0   F    F -4.99D-01 0.00084957 0.00027842 0.00909512 0.00329381    0.0690538 ----
    35   0   0   F    T  3.87D+00 0.00058517 0.00021483 0.00119868 0.00042708    0.0690473 ----
    36   0   0   F    F  2.72D-01 0.00058517 0.00021483 0.00463515 0.00165147    0.0690405 ----
    37   0   0   F    T  4.68D+00 0.00068846 0.00020725 0.00130170 0.00044887    0.0690402 ----
    38   0   0   F    F  1.10D-01 0.00068846 0.00020725 0.00609106 0.00210043    0.0690332 ----
    39   0   0   F    T  4.18D+00 0.00091541 0.00022168 0.00140517 0.00055824    0.0690332 ----
    40   0   0   F    F -4.88D-01 0.00091541 0.00022168 0.00587073 0.00233228    0.0690328 ----
    41   0   0   F    T  6.08D+00 0.00028880 0.00011783 0.00051490 0.00019662    0.0690298 ---+
    42   0   0   F    F -1.29D-01 0.00028880 0.00011783 0.00312829 0.00119459    0.0690276 ----
    43   0   0   F    T  2.76D+00 0.00053638 0.00015538 0.00102415 0.00037653    0.0690275 ----
    44   0   0   F    F  2.72D-01 0.00053638 0.00015538 0.00282869 0.00103997    0.0690250 ----
    45   0   0   F    T  2.99D+00 0.00055017 0.00016212 0.00117970 0.00044215    0.0690249 ----
    46   0   0   F    T  3.66D+00 0.00035605 0.00013947 0.00106778 0.00036171    0.0690224 ----
    47   0   0   F    F  1.15D-01 0.00035605 0.00013947 0.00390629 0.00132325    0.0690200 ----
    48   0   0   F    T  4.10D+00 0.00040996 0.00013759 0.00127653 0.00035987    0.0690200 ----
    49   0   0   F    F -2.58D-02 0.00040996 0.00013759 0.00523275 0.00147516    0.0690176 ----
    50   0   0   F    T  3.01D+00 0.00039164 0.00015275 0.00182241 0.00047684    0.0690176 ----
    51   0   0   F    F -2.30D-01 0.00039164 0.00015275 0.00549262 0.00143717    0.0690161 ----
    52   0   0   F    T  7.94D+00 0.00020669 0.00007552 0.00038923 0.00013942    0.0690159 --++
    53   0   0   T    F  3.37D-01 0.00020669 0.00007552 0.00309015 0.00110688    0.0690173 ----
    54   0   0   F    T  2.06D+00 0.00025973 0.00008128 0.00040499 0.00018082    0.0690154 --++
    55   0   0   F    F  2.45D+00 0.00025973 0.00008128 0.00083466 0.00037266    0.0690147 ----
    56   0   0   F    T  6.21D+00 0.00023219 0.00008322 0.00061733 0.00020686    0.0690140 ---+
    57   0   0   F    F  4.18D-02 0.00023219 0.00008322 0.00383224 0.00128414    0.0690126 ----
    58   0   0   F    T  2.98D+00 0.00038300 0.00012034 0.00142716 0.00044891    0.0690126 ----
    59   0   0   F    F  1.58D-01 0.00038300 0.00012034 0.00425295 0.00133777    0.0690110 ----
    60   0   0   F    T  2.72D+00 0.00038391 0.00013356 0.00184198 0.00056930    0.0690110 ----
    61   0   0   F    F  6.95D-01 0.00038391 0.00013356 0.00501172 0.00154897    0.0690088 ----
    62   0   0   F    T  4.13D+00 0.00033226 0.00013946 0.00214785 0.00063539    0.0690084 ----
    63   0   0   F    F -4.19D-01 0.00033226 0.00013946 0.00887770 0.00262624    0.0690077 ----
    64   0   0   F    T  3.88D+00 0.00023844 0.00010767 0.00140968 0.00039342    0.0690069 ----
    65   0   0   F    F  3.47D-01 0.00023844 0.00010767 0.00546328 0.00152470    0.0690051 ----
    66   0   0   F    T  5.45D+00 0.00028209 0.00010324 0.00123289 0.00037717    0.0690050 ----
    67   0   0   T    F  4.09D-01 0.00028209 0.00010324 0.00671508 0.00205429    0.0690058 ----
    68   0   0   F    T  4.73D+00 0.00017112 0.00006811 0.00059490 0.00017767    0.0690043 -+-+
    69   0   0   F    F -3.41D-01 0.00017112 0.00006811 0.00281149 0.00083968    0.0690039 -+--
    70   0   0   F    T  2.93D+00 0.00017094 0.00006791 0.00076155 0.00018901    0.0690038 -+-+
    71   0   0   F    F  1.58D-01 0.00017094 0.00006791 0.00222932 0.00055330    0.0690033 -+--
    72   0   0   F    T  3.89D+00 0.00021971 0.00006113 0.00066903 0.00016494    0.0690033 -+-+
    73   0   0   F    F -2.01D-01 0.00021971 0.00006113 0.00259923 0.00064082    0.0690030 -+--
    74   0   0   F    T  4.06D+00 0.00017840 0.00005106 0.00041431 0.00012604    0.0690029 -+++
    75   0   0   F    F -3.82D-01 0.00017840 0.00005106 0.00168211 0.00051174    0.0690028 -+--
    76   0   0   F    T  7.46D+00 0.00007750 0.00002625 0.00013624 0.00004240    0.0690027 ====
 Energy=    0.069002743350 NIter=   0.
 Dipole moment=       0.000000       0.000000       0.000000
 ***** Axes restored to original set *****
 -------------------------------------------------------------------
 Center     Atomic                   Forces (Hartrees/Bohr)
 Number     Number              X              Y              Z
 -------------------------------------------------------------------
    1          1           0.000041380    0.000032969    0.000020588
    2          8           0.000019976   -0.000034054    0.000034384
    3          8           0.000012551   -0.000003186   -0.000034708
    4          6          -0.000041767    0.000024533   -0.000007512
    5          6           0.000007678   -0.000026960   -0.000036170
    6         15          -0.000008733   -0.000022240    0.000004377
    7          6           0.000016845   -0.000032047   -0.000034701
    8          8          -0.000050087    0.000043964    0.000009479
    9          1          -0.000017858   -0.000013722    0.000039202
   10          1          -0.000011874   -0.000013462   -0.000011990
   11          6          -0.000015466   -0.000020473    0.000012107
   12          6           0.000000782    0.000018736   -0.000000671
   13          8           0.000013223    0.000071829   -0.000035595
   14          1          -0.000010100   -0.000042642   -0.000002312
   15          1           0.000018211   -0.000010434   -0.000017478
   16          1           0.000023608    0.000001145   -0.000010350
   17          1           0.000024456    0.000029076   -0.000010213
   18          1           0.000011071   -0.000018753   -0.000008170
   19          1           0.000012094    0.000021991    0.000002290
   20          1          -0.000037995   -0.000016445    0.000074500
   21          1          -0.000007995    0.000010176    0.000012943
 -------------------------------------------------------------------
 Cartesian Forces:  Max     0.000074500 RMS     0.000026246

 GradGradGradGradGradGradGradGradGradGradGradGradGradGradGradGradGradGrad
 Berny optimization.
 Search for a local minimum.
 Step number   1 out of a maximum of   2
 All quantities printed in internal units (Hartrees-Bohrs-Radians)
 Second derivative matrix not updated -- unit matrix used.
 RFO step:  Lambda=-4.33986013D-08.
 Linear search not attempted -- first point.
 TrRot=  0.000000  0.000000  0.000000  0.000000  0.000000  0.000000
 Variable       Old X    -DE/DX   Delta X   Delta X   Delta X     New X
                                 (Linear)    (Quad)   (Total)
    X1        3.85949   0.00004   0.00000   0.00004   0.00004   3.85953
    Y1       -2.95646   0.00003   0.00000   0.00003   0.00003  -2.95643
    Z1       -2.96510   0.00002   0.00000   0.00002   0.00002  -2.96508
    X2        2.23661   0.00002   0.00000   0.00002   0.00002   2.23663
    Y2       -2.13997  -0.00003   0.00000  -0.00003  -0.00003  -2.14001
    Z2       -3.33562   0.00003   0.00000   0.00003   0.00003  -3.33558
    X3       -2.02022   0.00001   0.00000   0.00001   0.00001  -2.02021
    Y3       -1.19506   0.00000   0.00000   0.00000   0.00000  -1.19507
    Z3       -1.27960  -0.00003   0.00000  -0.00003  -0.00003  -1.27963
    X4       -1.95054  -0.00004   0.00000  -0.00004  -0.00004  -1.95059
    Y4        1.53268   0.00002   0.00000   0.00002   0.00002   1.53271
    Z4       -1.38092  -0.00001   0.00000  -0.00001  -0.00001  -1.38093
    X5       -0.71693   0.00001   0.00000   0.00001   0.00001  -0.71693
    Y5        2.77094  -0.00003   0.00000  -0.00003  -0.00003   2.77091
    Z5        1.01268  -0.00004   0.00000  -0.00004  -0.00004   1.01265
    X6        0.62530  -0.00001   0.00000  -0.00001  -0.00001   0.62530
    Y6       -2.43995  -0.00002   0.00000  -0.00002  -0.00002  -2.43997
    Z6       -0.91693   0.00000   0.00000   0.00000   0.00000  -0.91693
    X7        1.95974   0.00002   0.00000   0.00002   0.00002   1.95976
    Y7        1.53805  -0.00003   0.00000  -0.00003  -0.00003   1.53802
    Z7        1.32938  -0.00003   0.00000  -0.00003  -0.00003   1.32935
    X8        1.89643  -0.00005   0.00000  -0.00005  -0.00005   1.89638
    Y8       -1.18986   0.00004   0.00000   0.00004   0.00004  -1.18982
    Z8        1.43138   0.00001   0.00000   0.00001   0.00001   1.43139
    X9       -0.97152  -0.00002   0.00000  -0.00002  -0.00002  -0.97154
    Y9        2.13957  -0.00001   0.00000  -0.00001  -0.00001   2.13956
    Z9       -3.10289   0.00004   0.00000   0.00004   0.00004  -3.10285
   X10       -3.90273  -0.00001   0.00000  -0.00001  -0.00001  -3.90275
   Y10        2.18039  -0.00001   0.00000  -0.00001  -0.00001   2.18038
   Z10       -1.56033  -0.00001   0.00000  -0.00001  -0.00001  -1.56034
   X11       -0.46103  -0.00002   0.00000  -0.00002  -0.00002  -0.46104
   Y11        5.68588  -0.00002   0.00000  -0.00002  -0.00002   5.68586
   Z11        0.63650   0.00001   0.00000   0.00001   0.00001   0.63651
   X12       -2.37212   0.00000   0.00000   0.00000   0.00000  -2.37212
   Y12        2.23674   0.00002   0.00000   0.00002   0.00002   2.23676
   Z12        3.40009   0.00000   0.00000   0.00000   0.00000   3.40009
   X13        0.20502   0.00001   0.00000   0.00001   0.00001   0.20503
   Y13       -5.26695   0.00007   0.00000   0.00007   0.00007  -5.26688
   Z13       -0.35703  -0.00004   0.00000  -0.00004  -0.00004  -0.35706
   X14        3.22715  -0.00001   0.00000  -0.00001  -0.00001   3.22714
   Y14        2.14634  -0.00004   0.00000  -0.00004  -0.00004   2.14629
   Z14       -0.19217   0.00000   0.00000   0.00000   0.00000  -0.19217
   X15        2.81118   0.00002   0.00000   0.00002   0.00002   2.81119
   Y15        2.18886  -0.00001   0.00000  -0.00001  -0.00001   2.18885
   Z15        3.09415  -0.00002   0.00000  -0.00002  -0.00002   3.09414
   X16       -2.31608   0.00002   0.00000   0.00002   0.00002  -2.31606
   Y16        6.55285   0.00000   0.00000   0.00000   0.00000   6.55285
   Z16        0.37416  -0.00001   0.00000  -0.00001  -0.00001   0.37415
   X17        0.68781   0.00002   0.00000   0.00002   0.00002   0.68783
   Y17        6.11664   0.00003   0.00000   0.00003   0.00003   6.11667
   Z17       -1.02340  -0.00001   0.00000  -0.00001  -0.00001  -1.02341
   X18        0.43462   0.00001   0.00000   0.00001   0.00001   0.43463
   Y18        6.55760  -0.00002   0.00000  -0.00002  -0.00002   6.55758
   Z18        2.27949  -0.00001   0.00000  -0.00001  -0.00001   2.27948
   X19       -2.59129   0.00001   0.00000   0.00001   0.00001  -2.59128
   Y19        0.20963   0.00002   0.00000   0.00002   0.00002   0.20965
   Z19        3.71771   0.00000   0.00000   0.00000   0.00000   3.71771
   X20       -4.25417  -0.00004   0.00000  -0.00004  -0.00004  -4.25421
   Y20        3.05543  -0.00002   0.00000  -0.00002  -0.00002   3.05542
   Z20        3.18011   0.00007   0.00000   0.00007   0.00007   3.18018
   X21       -1.50818  -0.00001   0.00000  -0.00001  -0.00001  -1.50818
   Y21        3.05708   0.00001   0.00000   0.00001   0.00001   3.05709
   Z21        5.08576   0.00001   0.00000   0.00001   0.00001   5.08577
         Item               Value     Threshold  Converged?
 Maximum Force            0.000075     0.000450     YES
 RMS     Force            0.000026     0.000300     YES
 Maximum Displacement     0.000075     0.001800     YES
 RMS     Displacement     0.000026     0.001200     YES
 Predicted change in Energy=-2.169930D-08
 Optimization completed.
    -- Stationary point found.
 GradGradGradGradGradGradGradGradGradGradGradGradGradGradGradGradGradGrad

                          Input orientation:                          
 ---------------------------------------------------------------------
 Center     Atomic     Atomic              Coordinates (Angstroms)
 Number     Number      Type              X           Y           Z
 ---------------------------------------------------------------------
    1          1      10011000        2.042355   -1.564490   -1.569065
    2          8      10081003        1.183561   -1.132424   -1.765133
    3          8      10081003       -1.069056   -0.632401   -0.677134
    4          6      10061003       -1.032184    0.811061   -0.730754
    5          6      10061003       -0.379385    1.466319    0.535890
    6         15      10151003        0.330897   -1.291167   -0.485220
    7          6      10061003        1.037051    0.813903    0.703479
    8          8      10081003        1.003547   -0.629649    0.757455
    9          1      10011000       -0.514109    1.132212   -1.641981
   10          1      10011000       -2.065238    1.153815   -0.825692
   11          6      10061003       -0.243966    3.008839    0.336821
   12          6      10061003       -1.255270    1.183630    1.799249
   13          8      10081000        0.108491   -2.787149   -0.188930
   14          1      10011000        1.707734    1.135792   -0.101693
   15          1      10011000        1.487610    1.158297    1.637355
   16          1      10011000       -1.225619    3.467618    0.197999
   17          1      10011000        0.363972    3.236784   -0.541561
   18          1      10011000        0.229993    3.470132    1.206256
   19          1      10011000       -1.371252    0.110933    1.967326
   20          1      10011000       -2.251212    1.616865    1.682840
   21          1      10011000       -0.798092    1.617740    2.691266
 ---------------------------------------------------------------------
                    Distance matrix (angstroms):
                    1          2          3          4          5
     1  H    0.000000
     2  O    0.981148   0.000000
     3  O    3.368265   2.551087   0.000000
     4  C    3.974770   3.123556   1.444928   0.000000
     5  C    4.413781   3.806701   2.520258   1.568405   0.000000
     6  P    2.044142   1.546096   1.559061   2.517467   3.025045
     7  C    3.439746   3.147015   2.904061   2.517690   1.568446
     8  O    2.713991   2.578496   2.520662   2.904240   2.520847
     9  H    3.716588   2.832989   2.086325   1.096300   2.207464
    10  H    4.981376   4.082172   2.050613   1.092563   2.189444
    11  C    5.456648   4.858611   3.868786   2.567339   1.561196
    12  C    5.456376   4.900696   3.076543   2.567000   1.563063
    13  O    2.671984   2.525531   2.503577   3.813374   4.342278
    14  H    3.091388   2.861223   3.341886   2.829897   2.207221
    15  H    4.242929   4.113001   3.885872   3.475324   2.189469
    16  H    6.254941   5.551435   4.195299   2.820868   2.198973
    17  H    5.188928   4.610731   4.128262   2.805206   2.201823
    18  H    6.027809   5.560752   4.697388   3.523599   2.199090
    19  H    5.192863   4.690870   2.763519   2.807985   2.206781
    20  H    6.255448   5.589703   3.467877   2.821486   2.200431
    21  H    6.028694   5.599093   4.059886   3.523599   2.200885
                    6          7          8          9         10
     6  P    0.000000
     7  C    2.518527   0.000000
     8  O    1.560226   1.444949   0.000000
     9  H    2.815119   2.829946   3.341365   0.000000
    10  H    3.440250   3.475356   3.886455   1.752939   0.000000
    11  C    4.415458   2.567720   3.869343   2.740504   2.847733
    12  C    3.722814   2.567517   3.078241   3.520515   2.747226
    13  O    1.541173   3.824420   2.520233   4.226154   4.545520
    14  H    2.816541   1.096235   2.085856   2.703532   3.841851
    15  H    3.441393   1.092582   2.050680   3.842083   4.323118
    16  H    5.053273   3.523832   4.697847   3.057106   2.665819
    17  H    4.528423   2.805978   4.128656   2.532030   3.212562
    18  H    5.053834   2.821290   4.196189   3.759256   3.842163
    19  H    3.298208   2.809163   2.766210   3.847701   3.061073
    20  H    4.452462   3.523715   4.061602   3.782439   2.557682
    21  H    4.452687   2.822269   3.469335   4.369601   3.766946
                   11         12         13         14         15
    11  C    0.000000
    12  C    2.548101   0.000000
    13  O    5.830447   4.645404   0.000000
    14  H    2.740389   3.520690   4.237294   0.000000
    15  H    2.848552   2.747771   4.561121   1.753068   0.000000
    16  H    1.092425   2.789531   6.407158   3.759227   3.842698
    17  H    1.092293   3.509527   6.039652   2.532459   3.214086
    18  H    1.092403   2.790293   6.412087   3.056728   2.666839
    19  H    3.511008   1.091962   3.903582   3.848549   3.062507
    20  H    2.788977   1.092311   5.335453   4.369124   3.767114
    21  H    2.790273   1.092317   5.340455   3.783128   2.558565
                   16         17         18         19         20
    16  H    0.000000
    17  H    1.768342   0.000000
    18  H    1.770704   1.768407   0.000000
    19  H    3.797244   4.367661   3.798346   0.000000
    20  H    2.584934   3.796220   3.133386   1.767227   0.000000
    21  H    3.133881   3.797746   2.587194   1.767220   1.768751
                   21
    21  H    0.000000
 Stoichiometry    C5H11O4P
 Framework group  C1[X(C5H11O4P)]
 Deg. of freedom    57
 Full point group                 C1
 Largest Abelian subgroup         C1      NOp   1
 Largest concise Abelian subgroup C1      NOp   1
                         Standard orientation:                         
 ---------------------------------------------------------------------
 Center     Atomic     Atomic              Coordinates (Angstroms)
 Number     Number      Type              X           Y           Z
 ---------------------------------------------------------------------
    1          1      10011000        2.451287   -1.633503   -0.519754
    2          8      10081003        1.915250   -1.395153    0.266697
    3          8      10081003        0.525390    0.530162    1.199165
    4          6      10061003       -0.752030   -0.137988    1.297110
    5          6      10061003       -1.622178   -0.014791   -0.001951
    6         15      10151003        1.402356    0.040074    0.006934
    7          6      10061003       -0.738408   -0.533740   -1.189244
    8          8      10081003        0.539805    0.132530   -1.289894
    9          1      10011000       -0.597191   -1.191057    1.559681
   10          1      10011000       -1.285741    0.314331    2.136309
   11          6      10061003       -2.914160   -0.881334    0.129266
   12          6      10061003       -2.023020    1.476956   -0.241080
   13          8      10081000        2.596873    1.005030   -0.124221
   14          1      10011000       -0.583140   -1.616041   -1.110202
   15          1      10011000       -1.262164   -0.364688   -2.133086
   16          1      10011000       -3.524768   -0.539090    0.967967
   17          1      10011000       -2.664115   -1.931115    0.298208
   18          1      10011000       -3.515422   -0.818127   -0.780588
   19          1      10011000       -1.140266    2.112565   -0.336617
   20          1      10011000       -2.621866    1.853545    0.591211
   21          1      10011000       -2.611716    1.576899   -1.155742
 ---------------------------------------------------------------------
 Rotational constants (GHZ):      2.3072225      0.8517562      0.8407847
 1|1|UNPC-UNK|FOpt|Dreiding|ZDO|C5H11O4P1|PCUSER|28-Mar-2008|0||# opt d
 reiding||Dioxaphosphoriane-OH-ax||0,1|H,2.0423551687,-1.5644902798,-1.
 5690652719|O,1.1835610154,-1.1324241762,-1.7651332175|O,-1.0690556504,
 -0.6324011325,-0.6771341975|C,-1.0321838588,0.8110608393,-0.7307536045
 |C,-0.3793845511,1.466319274,0.5358895121|P,0.3308970306,-1.2911668751
 ,-0.4852199537|C,1.0370505964,0.8139028387,0.7034792132|O,1.0035467135
 ,-0.6296486283,0.7574550529|H,-0.5141085131,1.1322117239,-1.6419806395
 |H,-2.0652376337,1.1538145953,-0.825692364|C,-0.2439662468,3.008838715
 3,0.3368211633|C,-1.2552698636,1.1836299318,1.7992488375|O,0.108490639
 3,-2.787148774,-0.1889297058|H,1.7077343172,1.1357923514,-0.1016927207
 |H,1.4876102944,1.1582968227,1.6373550146|H,-1.2256188685,3.4676184255
 ,0.1979990483|H,0.3639724514,3.2367844048,-0.5415611522|H,0.2299928988
 ,3.4701315195,1.2062555613|H,-1.3712521828,0.1109329562,1.9673259634|H
 ,-2.2512118587,1.6168650242,1.6828398784|H,-0.7980924482,1.6177395534,
 2.6912662522||Version=IA32W-G03RevD.01|HF=0.0690027|RMSD=0.000e+000|RM
 SF=2.625e-005|Thermal=0.|Dipole=0.,0.,0.|PG=C01 [X(C5H11O4P1)]||@


 ONE THORN OF EXPERIENCE IS WORTH A WHOLE WILDERNESS OF
 WARNING....  LOWELL - AMONG MY BOOKS
 Job cpu time:  0 days  0 hours  0 minutes  3.0 seconds.
 File lengths (MBytes):  RWF=     11 Int=      0 D2E=      0 Chk=      4 Scr=      1
 Normal termination of Gaussian 03 at Fri Mar 28 18:26:17 2008.
